Title
81371
    1CHL1    C3    1   4.746   5.739  10.149  0.6801  0.5016  0.2387
    1CHL1    H3    2   4.756   5.628  10.144 -0.9121  0.1260  3.2470
    1CHL1    O3    3   4.737   5.770  10.288 -0.3138 -0.4169 -0.0646
    1CHL1   H3'    4   4.696   5.695  10.332 -0.5892 -0.9403 -1.1839
    1CHL1    C4    5   4.879   5.793  10.094 -0.5255 -0.2550  0.1849
    1CHL1   H4A    6   4.884   5.904  10.100 -4.3690  0.0385  0.3098
    1CHL1   H4B    7   4.965   5.741  10.142 -0.8784 -1.8796 -0.8677
    1CHL1    C5    8   4.878   5.764   9.946 -0.2483  0.1183 -0.0375
    1CHL1    C6    9   4.971   5.689   9.888  0.1543  0.0419  0.3813
    1CHL1    H6   10   5.049   5.643   9.950 -2.5622 -1.1592  3.1704
    1CHL1    C7   11   4.984   5.668   9.743  0.3826 -0.1169 -0.0581
    1CHL1   H7A   12   5.087   5.663   9.703  0.5192  0.3441  0.2329
    1CHL1   H7B   13   4.943   5.566   9.723  1.8826 -0.7921  0.1957
    1CHL1    C8   14   4.894   5.765   9.657 -0.0428 -0.2485  0.4577
    1CHL1    H8   15   4.945   5.863   9.665 -2.7546  1.1578  1.4127
    1CHL1   C14   16   4.889   5.714   9.516  0.1287  0.0102 -0.2886
    1CHL1   H14   17   4.851   5.610   9.523  2.8028 -1.1296 -1.2387
    1CHL1   C15   18   5.021   5.689   9.435  0.0652 -0.0851  0.4661
    1CHL1  H15A   19   5.085   5.778   9.451 -0.5488  0.4050  0.2408
    1CHL1  H15B   20   5.076   5.598   9.469 -1.3322 -1.1074  0.1094
    1CHL1   C16   21   4.971   5.693   9.285  0.0888 -0.0518  0.3573
    1CHL1  H16A   22   5.031   5.765   9.225  1.1536 -1.8110 -0.7805
    1CHL1  H16B   23   4.982   5.597   9.230 -0.1949 -0.2626  0.6641
    1CHL1   C17   24   4.814   5.715   9.289 -0.2533  0.9059  0.3910
    1CHL1   H17   25   4.769   5.614   9.298 -0.6809  1.0888  0.3230
    1CHL1   C13   26   4.790   5.783   9.424 -0.7715  0.0172 -0.1393
    1CHL1   C18   27   4.829   5.932   9.409 -0.2293 -0.1724 -0.0709
    1CHL1  H18A   28   4.920   5.943   9.346 -0.0220 -0.2289  0.2177
    1CHL1  H18B   29   4.749   5.992   9.359 -0.7497  0.6892  1.7166
    1CHL1  H18C   30   4.854   5.973   9.509  2.3446 -0.5488 -0.4812
    1CHL1   C12   31   4.641   5.780   9.489  0.2953 -0.0920  0.4601
    1CHL1  H12A   32   4.576   5.849   9.430 -0.2414 -2.1376 -1.4946
    1CHL1  H12B   33   4.605   5.675   9.491  0.8442 -0.3250 -0.8152
    1CHL1   C11   34   4.636   5.835   9.632 -0.0262 -0.0673  0.5487
    1CHL1  H11A   35   4.656   5.944   9.634 -2.2097  0.4088 -0.7103
    1CHL1  H11B   36   4.534   5.811   9.669  0.1455  0.8899  1.7091
    1CHL1    C9   37   4.757   5.774   9.718 -0.0358  0.1161  0.4724
    1CHL1    H9   38   4.726   5.668   9.720 -1.4705  0.3158 -3.2314
    1CHL1   C10   39   4.760   5.828   9.863 -0.3580 -0.1823 -0.0791
    1CHL1   C19   40   4.778   5.980   9.873 -0.2702  0.5384 -0.0503
    1CHL1  H19A   41   4.683   6.020   9.832 -1.1102 -0.1608  1.1481
    1CHL1  H19B   42   4.777   6.006   9.981 -3.8968 -1.1819  0.4820
    1CHL1  H19C   43   4.873   6.014   9.826  0.1386 -0.8831 -0.3063
    1CHL1    C1   44   4.628   5.781   9.933  0.7824  0.2379  0.0418
    1CHL1   H1A   45   4.534   5.830   9.899  0.3951  0.5343  1.4598
    1CHL1   H1B   46   4.611   5.672   9.920 -0.2547  0.5573 -1.4380
    1CHL1    C2   47   4.618   5.807  10.081 -0.6715  0.3164 -1.1515
    1CHL1   H2A   48   4.517   5.774  10.112 -1.3753  2.0152 -1.5294
    1CHL1   H2B   49   4.638   5.915  10.095 -0.3009  0.0909  0.2464
    1CHL1   C20   50   4.763   5.775   9.153  0.1276 -0.4239  0.0695
    1CHL1   H20   51   4.801   5.879   9.146 -0.7453 -0.0276  0.9540
    1CHL1   C21   52   4.613   5.792   9.154  0.3344 -0.3968  0.6914
    1CHL1  H21A   53   4.581   5.855   9.240  1.8485  0.5547  0.6056
    1CHL1  H21B   54   4.572   5.690   9.170  2.5847 -1.5788 -0.4935
    1CHL1  H21C   55   4.570   5.844   9.066  1.6443 -0.5131 -0.0419
    1CHL1   C22   56   4.801   5.702   9.028  1.0125  0.5624  0.3021
    1CHL1  H22A   57   4.910   5.700   9.007  0.3708 -2.2639 -4.0742
    1CHL1  H22B   58   4.755   5.601   9.034 -1.9660  1.6143 -2.1837
    1CHL1   C23   59   4.749   5.760   8.895  0.7847  0.1893 -0.4679
    1CHL1  H23A   60   4.639   5.747   8.887  0.6001  1.4922 -0.2648
    1CHL1  H23B   61   4.776   5.867   8.900 -1.9484  1.0032 -1.5239
    1CHL1   C24   62   4.809   5.681   8.778 -0.9666 -0.4241 -0.6407
    1CHL1  H24A   63   4.915   5.706   8.753 -0.0231 -3.6359 -0.3215
    1CHL1  H24B   64   4.814   5.574   8.805 -1.2794 -0.1425  0.5872
    1CHL1   C25   65   4.734   5.713   8.652 -0.0107 -0.5616  1.0498
    1CHL1   H25   66   4.626   5.710   8.674  0.0940 -0.3715  1.5989
    1CHL1   C26   67   4.759   5.856   8.602  0.1029  0.4642  0.7821
    1CHL1  H26A   68   4.867   5.875   8.587  0.3391 -1.9737 -1.2261
    1CHL1  H26B   69   4.700   5.871   8.509 -0.1362  1.6598  1.1170
    1CHL1  H26C   70   4.731   5.929   8.680  1.3963  1.4908  0.3078
    1CHL1   C27   71   4.766   5.617   8.535  0.0806  0.3803 -0.5019
    1CHL1  H27A   72   4.719   5.520   8.561  0.9364 -0.4989 -2.0960
    1CHL1  H27B   73   4.717   5.650   8.440 -1.8268 -0.3616  0.1753
    1CHL1  H27C   74   4.875   5.603   8.518 -0.0199 -1.1012 -0.0272
    2CHL1    C3   75   4.705   4.131  10.027 -0.2979 -0.4193 -0.8088
    2CHL1    H3   76   4.671   4.028  10.004  1.2998 -1.0555 -0.4404
    2CHL1    O3   77   4.701   4.145  10.166 -0.0756  0.3433  0.4300
    2CHL1   H3'   78   4.630   4.085  10.189  1.3120 -1.3332  0.5452
    2CHL1    C4   79   4.835   4.169   9.967  0.0478 -0.0043 -0.6669
    2CHL1   H4A   80   4.868   4.265  10.011 -0.1502 -0.6577  0.9583
    2CHL1   H4B   81   4.912   4.098  10.004  0.2924  0.8480  0.5042
    2CHL1    C5   82   4.820   4.175   9.816  0.2672 -0.1785 -0.4264
    2CHL1    C6   83   4.905   4.106   9.739  0.1540  0.2193  0.6851
    2CHL1    H6   84   4.986   4.049   9.787  0.6452 -0.4165 -0.8314
    2CHL1    C7   85   4.905   4.100   9.588 -0.0653  0.5074  0.0925
    2CHL1   H7A   86   5.006   4.109   9.545  0.2301  2.0445  1.0488
    2CHL1   H7B   87   4.885   3.994   9.559  2.0960  0.3639 -1.0638
    2CHL1    C8   88   4.811   4.192   9.519  0.3856 -0.1160 -0.4558
    2CHL1    H8   89   4.845   4.297   9.527 -2.2154  0.7639 -0.0866
    2CHL1   C14   90   4.786   4.147   9.372  0.4178 -0.0638 -0.2128
    2CHL1   H14   91   4.736   4.049   9.388  0.6763  0.2556  3.3690
    2CHL1   C15   92   4.909   4.117   9.276 -0.5755 -0.0854  0.4126
    2CHL1  H15A   93   4.987   4.190   9.305 -2.0725  2.4615 -1.6165
    2CHL1  H15B   94   4.950   4.013   9.277 -1.7847 -0.6118 -1.0031
    2CHL1   C16   95   4.853   4.140   9.133 -0.1416  0.2481  0.0129
    2CHL1  H16A   96   4.915   4.219   9.085  0.7921  0.0691  0.8946
    2CHL1  H16B   97   4.862   4.061   9.055  2.5680  1.5656 -1.1206
    2CHL1   C17   98   4.706   4.185   9.154 -0.3722 -0.0914 -0.5039
    2CHL1   H17   99   4.653   4.088   9.155  1.6127 -1.2194 -0.6865
    2CHL1   C13  100   4.699   4.247   9.299  0.2422 -0.1609 -0.1938
    2CHL1   C18  101   4.757   4.387   9.293 -0.5375 -0.4239 -0.9450
    2CHL1  H18A  102   4.747   4.443   9.389 -0.4911  2.7549 -2.6675
    2CHL1  H18B  103   4.867   4.393   9.280 -0.5550  1.1788 -0.5800
    2CHL1  H18C  104   4.703   4.455   9.224 -0.4400  0.5705 -0.0658
    2CHL1   C12  105   4.564   4.236   9.375  0.2568 -0.0376  0.2903
    2CHL1  H12A  106   4.487   4.301   9.330 -1.6715 -0.8582  2.2219
    2CHL1  H12B  107   4.530   4.130   9.370  2.0460 -0.5964 -0.9326
    2CHL1   C11  108   4.574   4.283   9.527  0.1354  0.5687 -0.4756
    2CHL1  H11A  109   4.588   4.393   9.524 -1.2095  0.8147  0.8713
    2CHL1  H11B  110   4.474   4.262   9.573  0.0882 -2.3400 -1.6668
    2CHL1    C9  111   4.681   4.197   9.604  0.5062 -0.1813 -0.0363
    2CHL1    H9  112   4.633   4.097   9.604  1.4692 -0.6526  0.0276
    2CHL1   C10  113   4.695   4.240   9.755 -0.7000  0.3059 -0.4657
    2CHL1   C19  114   4.707   4.393   9.762  0.0423 -0.4875  0.4580
    2CHL1  H19A  115   4.759   4.428   9.854  1.2994 -2.0938  0.4067
    2CHL1  H19B  116   4.785   4.416   9.687  0.0121  1.7514  1.0497
    2CHL1  H19C  117   4.617   4.453   9.738  0.0053 -0.5128  0.5343
    2CHL1    C1  118   4.565   4.204   9.836 -1.2066  0.0615 -0.1949
    2CHL1   H1A  119   4.486   4.270   9.795  1.5414  1.6865 -3.3316
    2CHL1   H1B  120   4.535   4.099   9.815  2.6485 -0.8643 -2.0508
    2CHL1    C2  121   4.582   4.223   9.988 -0.3728  1.2354 -0.5394
    2CHL1   H2A  122   4.497   4.181  10.046  1.3032 -0.0734  1.0788
    2CHL1   H2B  123   4.602   4.325  10.029 -0.0888 -0.2634  3.4355
    2CHL1   C20  124   4.657   4.271   9.033  1.1664 -0.7627  0.5308
    2CHL1   H20  125   4.689   4.377   9.048  0.1371 -0.2641 -0.6134
    2CHL1   C21  126   4.505   4.269   9.037  0.7948 -0.0218  0.2846
    2CHL1  H21A  127   4.456   4.323   8.954 -0.0831  0.7046  1.2403
    2CHL1  H21B  128   4.471   4.314   9.133  2.2360  1.0368  0.3303
    2CHL1  H21C  129   4.474   4.162   9.033  0.0083  0.2481 -1.3493
    2CHL1   C22  130   4.714   4.215   8.898 -0.1190  0.2306 -0.0779
    2CHL1  H22A  131   4.824   4.231   8.897 -0.4208  3.0450 -2.4408
    2CHL1  H22B  132   4.702   4.105   8.891  3.8173 -0.2459 -2.3609
    2CHL1   C23  133   4.656   4.278   8.768  0.2620 -0.6163  0.2470
    2CHL1  H23A  134   4.553   4.239   8.755  0.1370 -0.4835  0.8222
    2CHL1  H23B  135   4.651   4.389   8.777 -0.0152 -0.5417 -0.7047
    2CHL1   C24  136   4.749   4.244   8.646 -0.0653  0.6489 -0.9058
    2CHL1  H24A  137   4.692   4.272   8.555 -0.7294 -1.2750 -1.1202
    2CHL1  H24B  138   4.845   4.299   8.656  0.2498  0.3474 -2.1797
    2CHL1   C25  139   4.777   4.094   8.638  0.4474  0.2810  0.2507
    2CHL1   H25  140   4.814   4.051   8.733 -0.4276  2.0623  1.4498
    2CHL1   C26  141   4.642   4.020   8.610  0.5324  0.0675 -0.0781
    2CHL1  H26A  142   4.657   3.917   8.570  2.1697  0.1355  0.2957
    2CHL1  H26B  143   4.593   4.004   8.709 -0.9538  1.3249 -0.5725
    2CHL1  H26C  144   4.575   4.079   8.544 -0.6124  0.7873  1.6291
    2CHL1   C27  145   4.880   4.065   8.521  0.0734  0.1803 -0.4233
    2CHL1  H27A  146   4.832   4.105   8.429  1.6840 -0.3448 -1.5279
    2CHL1  H27B  147   4.973   4.125   8.524 -0.4337  0.9640  0.5803
    2CHL1  H27C  148   4.889   3.956   8.502  1.4764 -0.2584  2.2396
    3CHL1    C3  149   6.363   2.587  10.165 -0.0158 -0.6359 -0.5700
    3CHL1    H3  150   6.271   2.641  10.135 -0.9003 -1.8444 -0.1266
    3CHL1    O3  151   6.366   2.565  10.309 -0.1909 -0.0458 -0.0407
    3CHL1   H3'  152   6.362   2.649  10.355 -1.1792 -0.4683  0.7012
    3CHL1    C4  153   6.379   2.459  10.091 -0.1655  0.4943  0.4935
    3CHL1   H4A  154   6.473   2.409  10.122 -1.0999 -1.5091  0.2667
    3CHL1   H4B  155   6.295   2.392  10.120  2.0054 -2.2533  0.8865
    3CHL1    C5  156   6.382   2.480   9.940 -0.1017 -0.1902 -0.3429
    3CHL1    C6  157   6.289   2.419   9.868  0.1302  0.4902 -0.3694
    3CHL1    H6  158   6.214   2.355   9.917 -0.1629 -0.1584 -1.6067
    3CHL1    C7  159   6.278   2.437   9.716  0.3706 -0.3185  0.5013
    3CHL1   H7A  160   6.264   2.337   9.670  0.8159 -0.6558  1.0863
    3CHL1   H7B  161   6.192   2.500   9.684  1.1456  0.3144 -0.4002
    3CHL1    C8  162   6.417   2.498   9.654 -0.0465 -0.5699 -0.1465
    3CHL1    H8  163   6.489   2.414   9.649  0.7864  0.1646 -0.8910
    3CHL1   C14  164   6.388   2.543   9.517 -0.2055 -0.5835 -0.4788
    3CHL1   H14  165   6.313   2.623   9.529 -0.0061 -0.5515  0.6892
    3CHL1   C15  166   6.321   2.442   9.422  0.0049 -0.6422  0.3212
    3CHL1  H15A  167   6.377   2.347   9.438 -0.1882 -0.6608  0.9426
    3CHL1  H15B  168   6.213   2.420   9.436 -0.6218  2.8079  1.9917
    3CHL1   C16  169   6.349   2.498   9.278  0.2514  0.0734 -0.6073
    3CHL1  H16A  170   6.392   2.424   9.207  2.0976 -0.7728  1.2918
    3CHL1  H16B  171   6.259   2.543   9.231 -1.7152 -2.3568  0.5817
    3CHL1   C17  172   6.448   2.612   9.303 -0.4387  0.5202 -0.3920
    3CHL1   H17  173   6.381   2.699   9.320 -1.7003 -0.4897 -0.0183
    3CHL1   C13  174   6.513   2.585   9.442  0.2876 -0.2184  0.7626
    3CHL1   C18  175   6.615   2.468   9.434  0.1015 -0.6837  0.0465
    3CHL1  H18A  176   6.562   2.386   9.381 -1.8676  0.0848  0.7064
    3CHL1  H18B  177   6.703   2.492   9.372  0.3275 -1.4409  0.0691
    3CHL1  H18C  178   6.643   2.430   9.535  0.3934 -0.8958 -0.1156
    3CHL1   C12  179   6.574   2.706   9.519  0.3020 -0.1918  0.1417
    3CHL1  H12A  180   6.674   2.735   9.479 -0.1195  1.3606  0.1411
    3CHL1  H12B  181   6.502   2.791   9.509 -1.1534 -1.1261  2.0453
    3CHL1   C11  182   6.596   2.680   9.674 -0.6564 -0.3819  1.1196
    3CHL1  H11A  183   6.686   2.615   9.687  1.5471  2.4409  0.9533
    3CHL1  H11B  184   6.625   2.776   9.721  1.6273 -0.6781  0.4561
    3CHL1    C9  185   6.475   2.617   9.740  0.2484  0.0591  0.3289
    3CHL1    H9  186   6.408   2.704   9.727  0.9478  0.3671 -1.6145
    3CHL1   C10  187   6.488   2.574   9.888 -1.1879  0.3232  0.4552
    3CHL1   C19  188   6.618   2.493   9.897  0.8942 -0.4743  0.3426
    3CHL1  H19A  189   6.701   2.566   9.893 -0.3270  0.9093 -0.9047
    3CHL1  H19B  190   6.634   2.437   9.992  0.6325  3.5440  2.9805
    3CHL1  H19C  191   6.628   2.426   9.809 -0.6863 -1.2134  0.6816
    3CHL1    C1  192   6.495   2.702   9.970 -0.5905  0.4875 -0.2361
    3CHL1   H1A  193   6.592   2.748   9.940 -0.5961 -0.3111 -1.5453
    3CHL1   H1B  194   6.412   2.766   9.932 -0.7025  1.3232  1.3188
    3CHL1    C2  195   6.480   2.688  10.127 -0.2816  0.5853  1.0176
    3CHL1   H2A  196   6.451   2.787  10.167 -1.9259  0.0171  1.3125
    3CHL1   H2B  197   6.580   2.665  10.170 -1.1594 -1.3602  2.1901
    3CHL1   C20  198   6.536   2.639   9.179  0.5082 -0.1155  0.4466
    3CHL1   H20  199   6.586   2.542   9.160 -1.9288 -1.7980  2.0589
    3CHL1   C21  200   6.661   2.732   9.207  0.1861 -0.6395  0.4772
    3CHL1  H21A  201   6.730   2.687   9.282  1.2911  0.3133  0.0551
    3CHL1  H21B  202   6.628   2.829   9.248  1.0093  0.7912 -2.0510
    3CHL1  H21C  203   6.723   2.764   9.120  0.1557 -0.6237  0.4605
    3CHL1   C22  204   6.462   2.675   9.051 -0.0541  1.1203  0.2486
    3CHL1  H22A  205   6.381   2.600   9.035  1.1688  0.0901 -1.5167
    3CHL1  H22B  206   6.414   2.773   9.069 -1.9160  0.2417  0.2475
    3CHL1   C23  207   6.543   2.659   8.921 -0.0659 -0.2989  0.1707
    3CHL1  H23A  208   6.623   2.736   8.910  1.9506 -2.2653  0.4515
    3CHL1  H23B  209   6.598   2.563   8.915  2.2687  0.8274  2.0874
    3CHL1   C24  210   6.449   2.664   8.799  0.5741  0.4385  0.1122
    3CHL1  H24A  211   6.360   2.601   8.822  2.2359 -1.7460  0.9403
    3CHL1  H24B  212   6.397   2.761   8.785 -3.2071 -1.2801  1.1436
    3CHL1   C25  213   6.514   2.625   8.669 -0.0766 -0.2135  0.4625
    3CHL1   H25  214   6.606   2.684   8.648 -0.0859  0.6439  2.6376
    3CHL1   C26  215   6.556   2.479   8.660 -0.8627  0.6139 -0.1802
    3CHL1  H26A  216   6.461   2.423   8.679 -0.7624 -0.2689 -2.0627
    3CHL1  H26B  217   6.597   2.459   8.560  2.3604  1.9333  0.7667
    3CHL1  H26C  218   6.631   2.460   8.740 -1.0622 -1.4023 -0.3982
    3CHL1   C27  219   6.416   2.639   8.553 -0.3902 -0.6180  0.3098
    3CHL1  H27A  220   6.401   2.747   8.533  1.2033 -0.6874 -1.5863
    3CHL1  H27B  221   6.461   2.598   8.460  0.1506  0.1887  0.2137
    3CHL1  H27C  222   6.323   2.580   8.570 -0.7157 -0.1263  0.2381
    4CHL1    C3  223   5.017   4.448  10.415 -0.1646 -0.4822  1.3062
    4CHL1    H3  224   4.952   4.359  10.399 -1.6119  0.6087  0.9852
    4CHL1    O3  225   5.041   4.468  10.552  0.2630 -0.2495 -0.3865
    4CHL1   H3'  226   5.028   4.564  10.557 -1.9144 -0.5232  0.4662
    4CHL1    C4  227   5.154   4.427  10.356  0.8057 -0.0657  0.8204
    4CHL1   H4A  228   5.229   4.497  10.400  0.1921  0.1113  1.6111
    4CHL1   H4B  229   5.189   4.332  10.402 -0.0025  0.5694  2.8831
    4CHL1    C5  230   5.145   4.424  10.205  0.4291  0.2452 -0.0677
    4CHL1    C6  231   5.172   4.313  10.143 -0.0203  0.3225  0.6341
    4CHL1    H6  232   5.212   4.227  10.199 -0.6848 -0.2807  0.2022
    4CHL1    C7  233   5.193   4.303   9.990  0.0402  0.2926 -1.0029
    4CHL1   H7A  234   5.296   4.265   9.974 -0.6070 -2.9317  1.4577
    4CHL1   H7B  235   5.117   4.235   9.945 -0.5593 -0.0796  0.4889
    4CHL1    C8  236   5.175   4.438   9.913 -0.3354 -0.0495 -0.3398
    4CHL1    H8  237   5.263   4.505   9.923 -1.0899  1.2525 -1.9014
    4CHL1   C14  238   5.140   4.425   9.767  0.0642 -0.2165 -0.4685
    4CHL1   H14  239   5.038   4.383   9.764 -0.9247  2.0901 -1.8951
    4CHL1   C15  240   5.230   4.330   9.694  0.1912 -0.0054 -0.0916
    4CHL1  H15A  241   5.338   4.347   9.718  0.6941 -1.7977 -0.9344
    4CHL1  H15B  242   5.211   4.221   9.703  0.7003 -0.1040 -0.1637
    4CHL1   C16  243   5.206   4.370   9.551  0.0225 -0.0018 -0.7736
    4CHL1  H16A  244   5.311   4.397   9.523  0.3764  0.3219  0.7849
    4CHL1  H16B  245   5.162   4.294   9.483 -0.1251  0.4013 -1.1299
    4CHL1   C17  246   5.110   4.490   9.545 -0.8298 -0.0487  0.4745
    4CHL1   H17  247   5.010   4.443   9.534 -0.0074 -1.5930 -0.8503
    4CHL1   C13  248   5.130   4.558   9.686 -0.3012  0.1241  0.0587
    4CHL1   C18  249   5.265   4.637   9.692  0.1727 -0.2416  0.1579
    4CHL1  H18A  250   5.253   4.721   9.620 -0.4025  1.1122  1.7899
    4CHL1  H18B  251   5.271   4.684   9.792  0.7292  3.0423 -1.2854
    4CHL1  H18C  252   5.344   4.563   9.667 -0.1003 -1.2848  2.1770
    4CHL1   C12  253   5.017   4.653   9.741  0.3866  0.9973  0.1075
    4CHL1  H12A  254   5.032   4.749   9.688  2.6434 -0.0680 -1.3777
    4CHL1  H12B  255   4.915   4.620   9.710  0.5016  1.6612 -1.0414
    4CHL1   C11  256   5.036   4.667   9.895 -0.3842  0.1103  0.1901
    4CHL1  H11A  257   5.113   4.742   9.923 -1.0021  0.3584  1.2904
    4CHL1  H11B  258   4.935   4.703   9.926  0.0793  1.6668 -0.0358
    4CHL1    C9  259   5.065   4.531   9.972 -0.3101  0.3499 -0.0714
    4CHL1    H9  260   4.968   4.476   9.974  0.4771 -1.1006  1.6951
    4CHL1   C10  261   5.095   4.545  10.130 -0.3859  0.0787 -0.4201
    4CHL1   C19  262   5.196   4.660  10.151 -0.0376  0.1333  0.0262
    4CHL1  H19A  263   5.241   4.653  10.252 -1.7719  3.7205  1.2138
    4CHL1  H19B  264   5.282   4.671  10.081  0.0701  1.6470  0.3514
    4CHL1  H19C  265   5.138   4.754  10.140 -0.6450 -0.2896 -0.4629
    4CHL1    C1  266   4.955   4.584  10.197 -0.0294 -0.6442 -0.2274
    4CHL1   H1A  267   4.912   4.683  10.170  3.1093  0.8911 -0.1052
    4CHL1   H1B  268   4.884   4.503  10.170 -0.4597 -0.2487 -0.2866
    4CHL1    C2  269   4.955   4.578  10.355  0.1557 -0.3792 -0.1788
    4CHL1   H2A  270   4.859   4.591  10.408  0.5147  2.4564 -0.0803
    4CHL1   H2B  271   5.015   4.668  10.380 -2.7892  0.9427  2.8140
    4CHL1   C20  272   5.136   4.582   9.427 -0.2673 -0.2208 -0.7819
    4CHL1   H20  273   5.237   4.628   9.437  0.2775 -1.4962 -0.1431
    4CHL1   C21  274   5.020   4.679   9.405  0.3995 -0.1685 -0.0646
    4CHL1  H21A  275   4.940   4.616   9.362  2.0388 -1.8930 -0.7507
    4CHL1  H21B  276   5.050   4.758   9.332  0.6833 -0.3984 -0.2017
    4CHL1  H21C  277   4.970   4.714   9.497 -0.6048  0.3484 -0.7842
    4CHL1   C22  278   5.153   4.500   9.294  0.1294  0.5120  0.5577
    4CHL1  H22A  279   5.234   4.426   9.311 -0.6598 -0.9412 -1.5105
    4CHL1  H22B  280   5.060   4.439   9.285  0.6557 -0.2444  0.2107
    4CHL1   C23  281   5.189   4.570   9.162 -0.3550  0.3290  0.3091
    4CHL1  H23A  282   5.169   4.679   9.169  1.8518  0.9172 -1.4231
    4CHL1  H23B  283   5.300   4.576   9.150 -0.2360 -1.2309  0.4735
    4CHL1   C24  284   5.117   4.519   9.039 -0.0648  0.8572 -0.6714
    4CHL1  H24A  285   5.132   4.409   9.037 -0.5654  0.7797 -2.7158
    4CHL1  H24B  286   5.008   4.524   9.055 -0.3755 -3.0412 -0.5054
    4CHL1   C25  287   5.163   4.574   8.898  0.0829 -0.5475 -0.1742
    4CHL1   H25  288   5.257   4.524   8.867 -0.5169 -0.9754 -1.4038
    4CHL1   C26  289   5.058   4.533   8.796 -0.4957 -0.3100 -0.6778
    4CHL1  H26A  290   5.084   4.558   8.691  1.9201 -2.3760 -0.6690
    4CHL1  H26B  291   5.034   4.425   8.809 -1.8235  0.0959  0.5246
    4CHL1  H26C  292   4.964   4.584   8.826 -0.1238 -0.5304  0.9911
    4CHL1   C27  293   5.187   4.726   8.878 -0.0222  0.4162 -0.3226
    4CHL1  H27A  294   5.202   4.753   8.771  1.8517 -1.3438 -0.5491
    4CHL1  H27B  295   5.102   4.784   8.918  1.2281  3.8595 -2.1744
    4CHL1  H27C  296   5.277   4.762   8.932  0.6005  1.1592 -1.7789
    5CHL1    C3  297   0.070   1.707  10.231  0.3121  0.0477  0.1942
    5CHL1    H3  298   0.137   1.619  10.241  0.2046  0.0849  1.4432
    5CHL1    O3  299   0.040   1.758  10.361  0.5584 -0.3992  0.2860
    5CHL1   H3'  300   0.001   1.685  10.409 -0.5450  0.1677  0.2834
    5CHL1    C4  301   0.136   1.819  10.133 -0.2140 -0.5615 -0.1069
    5CHL1   H4A  302   0.080   1.914  10.143  0.3394 -0.4152  1.8951
    5CHL1   H4B  303   0.239   1.839  10.169 -0.6193  3.0312 -0.5624
    5CHL1    C5  304   0.144   1.780   9.990 -0.2414  0.4713  0.1123
    5CHL1    C6  305   0.262   1.784   9.918  0.2090  0.7705  0.0982
    5CHL1    H6  306   0.353   1.820   9.968 -1.5617  2.0247  2.6302
    5CHL1    C7  307   0.264   1.755   9.773  0.2171 -0.2248  0.2719
    5CHL1   H7A  308   0.339   1.824   9.727  0.5134 -0.6323  0.1309
    5CHL1   H7B  309   0.317   1.658   9.770  1.2374  0.2017  2.3505
    5CHL1    C8  310   0.132   1.750   9.698  0.4491 -0.6867 -0.2248
    5CHL1    H8  311   0.086   1.851   9.696 -0.1760 -0.8221  2.6806
    5CHL1   C14  312   0.147   1.702   9.558 -0.6390 -0.5302  0.3248
    5CHL1   H14  313   0.197   1.604   9.568  2.3670  0.6853 -1.4751
    5CHL1   C15  314   0.235   1.777   9.455 -0.1711 -0.2400 -0.2294
    5CHL1  H15A  315   0.227   1.888   9.453 -0.3868 -0.2563 -1.8132
    5CHL1  H15B  316   0.340   1.748   9.475 -0.8066 -2.5521  0.0409
    5CHL1   C16  317   0.187   1.714   9.327  0.7420 -0.2102 -0.0005
    5CHL1  H16A  318   0.150   1.787   9.252 -1.1162 -0.6574  0.4297
    5CHL1  H16B  319   0.268   1.656   9.279  0.1975 -0.9805 -0.0100
    5CHL1   C17  320   0.067   1.620   9.352  0.7437  0.1472  0.1004
    5CHL1   H17  321   0.106   1.518   9.374 -0.3106 -0.3573 -0.2939
    5CHL1   C13  322   0.013   1.667   9.487 -0.6020 -0.5442 -1.0352
    5CHL1   C18  323  -0.079   1.792   9.469 -0.0830 -0.3950  0.1377
    5CHL1  H18A  324  -0.036   1.879   9.416 -1.8905  0.0374 -0.7057
    5CHL1  H18B  325  -0.157   1.749   9.402  0.0011  2.0650 -1.6590
    5CHL1  H18C  326  -0.120   1.823   9.568 -0.5397  0.0462 -0.1873
    5CHL1   C12  327  -0.052   1.559   9.572  0.0201 -0.1955 -0.1774
    5CHL1  H12A  328  -0.156   1.535   9.540 -1.0237  0.2867  2.5768
    5CHL1  H12B  329   0.022   1.477   9.579  0.4395  0.1020 -0.9979
    5CHL1   C11  330  -0.083   1.609   9.713 -0.2806  0.2827 -0.0549
    5CHL1  H11A  331  -0.149   1.698   9.709  2.5228  2.4890 -0.2308
    5CHL1  H11B  332  -0.138   1.533   9.772 -0.4193  1.8784  1.9884
    5CHL1    C9  333   0.042   1.665   9.784  0.2374  0.5707  0.2086
    5CHL1    H9  334   0.103   1.576   9.812  0.6751  0.4398 -1.0799
    5CHL1   C10  335   0.013   1.740   9.923  0.1369  0.2707  0.2105
    5CHL1   C19  336  -0.081   1.861   9.911  0.0120 -0.1465 -0.4788
    5CHL1  H19A  337  -0.178   1.825   9.871  0.0638  1.3460 -2.0592
    5CHL1  H19B  338  -0.100   1.917  10.005 -0.8649 -0.2175 -0.6106
    5CHL1  H19C  339  -0.041   1.940   9.843  0.2070 -0.5060 -0.7862
    5CHL1    C1  340  -0.062   1.640  10.015 -0.0426  0.2734  0.0759
    5CHL1   H1A  341  -0.167   1.630   9.980  0.3975 -0.9686 -0.9895
    5CHL1   H1B  342  -0.019   1.539   9.995  0.8176  0.6805 -0.1457
    5CHL1    C2  343  -0.067   1.665  10.162 -0.2012 -0.4571 -0.8067
    5CHL1   H2A  344  -0.101   1.582  10.226  0.4146  1.0245  1.5562
    5CHL1   H2B  345  -0.148   1.740  10.174 -1.8679 -2.3164 -0.0453
    5CHL1   C20  346  -0.026   1.614   9.226  0.5402 -0.3805 -0.1597
    5CHL1   H20  347  -0.066   1.717   9.220  1.0437 -0.2422 -1.6328
    5CHL1   C21  348  -0.126   1.500   9.243 -0.6042 -0.1661  0.2037
    5CHL1  H21A  349  -0.201   1.538   9.315  0.1988  2.4586 -0.2402
    5CHL1  H21B  350  -0.073   1.409   9.280 -1.3963 -0.3635  0.8910
    5CHL1  H21C  351  -0.177   1.480   9.146  1.6072  0.5487 -1.1853
    5CHL1   C22  352   0.049   1.607   9.090  0.6412 -0.0408  0.6020
    5CHL1  H22A  353   0.159   1.622   9.100  0.8238 -1.2654  0.5533
    5CHL1  H22B  354   0.053   1.501   9.057  1.3860  0.6330 -1.6534
    5CHL1   C23  355  -0.007   1.688   8.968  0.2436 -0.3833  0.0649
    5CHL1  H23A  356  -0.090   1.639   8.913 -1.1532  1.2010  0.6708
    5CHL1  H23B  357  -0.047   1.781   9.013 -0.9048 -2.1781  3.0380
    5CHL1   C24  358   0.108   1.718   8.875 -0.2083 -0.1591  0.2782
    5CHL1  H24A  359   0.183   1.785   8.921 -0.6948  0.3840  0.2883
    5CHL1  H24B  360   0.160   1.621   8.856  1.0870  0.6688 -0.5944
    5CHL1   C25  361   0.068   1.789   8.741  0.2316  0.7464 -0.0338
    5CHL1   H25  362  -0.008   1.730   8.687  0.9842  0.2584 -0.5742
    5CHL1   C26  363   0.015   1.929   8.765 -0.4904  0.2986 -0.2682
    5CHL1  H26A  364  -0.040   1.957   8.673 -2.0067 -1.5563  0.0113
    5CHL1  H26B  365  -0.051   1.922   8.854  0.2055  0.0067  0.2394
    5CHL1  H26C  366   0.100   1.999   8.781 -1.0173  0.9077 -0.0887
    5CHL1   C27  367   0.187   1.782   8.647  0.1119  0.5414 -0.6192
    5CHL1  H27A  368   0.226   1.678   8.641 -1.5980 -0.5301  3.2746
    5CHL1  H27B  369   0.163   1.816   8.545 -2.7757 -0.3331 -0.3121
    5CHL1  H27C  370   0.272   1.844   8.682  0.0535 -0.7647  2.1338
    6CHL1    C3  371   5.053   0.554  10.323  0.0303 -0.2186 -0.6024
    6CHL1    H3  372   5.098   0.656  10.320 -0.0664 -0.1927 -1.1496
    6CHL1    O3  373   5.038   0.517  10.461  0.2313 -0.8109  0.2935
    6CHL1   H3'  374   5.125   0.537  10.495  1.2057 -3.3508 -0.4720
    6CHL1    C4  375   4.915   0.569  10.261  0.0653  0.2330  0.7053
    6CHL1   H4A  376   4.847   0.484  10.281  2.2764 -2.1118 -1.1407
    6CHL1   H4B  377   4.864   0.653  10.314 -1.4228 -0.3497  0.2398
    6CHL1    C5  378   4.919   0.588  10.113  0.3464  0.2450  0.0593
    6CHL1    C6  379   4.866   0.695  10.050  0.3550 -0.2662 -0.0277
    6CHL1    H6  380   4.822   0.780  10.105  1.3014  0.1094  0.1647
    6CHL1    C7  381   4.854   0.718   9.900 -0.2220  0.7140 -0.3875
    6CHL1   H7A  382   4.749   0.742   9.874 -0.8631 -1.2899  0.1781
    6CHL1   H7B  383   4.920   0.804   9.874 -1.6384  1.4882 -1.5330
    6CHL1    C8  384   4.890   0.593   9.825  0.0884  0.0548  0.1083
    6CHL1    H8  385   4.800   0.528   9.835 -1.4161  1.7427 -1.5454
    6CHL1   C14  386   4.907   0.623   9.678  0.1598  0.2462  0.3456
    6CHL1   H14  387   4.990   0.695   9.668  2.4250 -2.4161 -1.7318
    6CHL1   C15  388   4.787   0.681   9.594  0.4556  0.8944  0.0693
    6CHL1  H15A  389   4.704   0.610   9.617 -0.6602  1.9551 -0.5557
    6CHL1  H15B  390   4.753   0.785   9.614 -0.2554  0.1850  3.2053
    6CHL1   C16  391   4.845   0.670   9.456 -0.1692  0.3154  0.6471
    6CHL1  H16A  392   4.761   0.636   9.392 -0.9262  0.7352  1.3988
    6CHL1  H16B  393   4.893   0.764   9.423  1.6056 -1.0146 -0.8110
    6CHL1   C17  394   4.960   0.561   9.453 -0.7341 -0.3750 -0.0982
    6CHL1   H17  395   5.047   0.629   9.451  1.4025 -2.6342  3.9784
    6CHL1   C13  396   4.955   0.507   9.599  0.4032  0.3463 -0.4739
    6CHL1   C18  397   4.854   0.388   9.607  0.2967 -0.1908 -0.3123
    6CHL1  H18A  398   4.823   0.363   9.711  1.8236 -0.4091  0.1135
    6CHL1  H18B  399   4.758   0.412   9.555 -0.2222 -0.7367  0.3728
    6CHL1  H18C  400   4.895   0.297   9.559  1.2778 -0.3867  0.8444
    6CHL1   C12  401   5.095   0.460   9.661  0.0507  0.3734 -0.1833
    6CHL1  H12A  402   5.136   0.372   9.607 -0.6485 -0.3702  0.4602
    6CHL1  H12B  403   5.168   0.543   9.647 -1.2116  1.4891 -0.3365
    6CHL1   C11  404   5.081   0.418   9.802 -0.6249  0.8679 -0.4007
    6CHL1  H11A  405   5.027   0.322   9.796  0.7727 -0.0083  0.5601
    6CHL1  H11B  406   5.182   0.396   9.843 -1.2721 -0.5278  0.5107
    6CHL1    C9  407   5.012   0.527   9.891 -0.6297  0.4019  0.1593
    6CHL1    H9  408   5.087   0.609   9.894 -0.3721  0.1431  2.4338
    6CHL1   C10  409   4.990   0.479  10.034  0.2368 -0.2000 -0.4100
    6CHL1   C19  410   4.895   0.354  10.034 -0.5371 -0.2621 -0.4472
    6CHL1  H19A  411   4.854   0.324  10.132 -1.3095  0.5810 -0.4980
    6CHL1  H19B  412   4.805   0.368   9.970  0.6544  1.4765 -1.8252
    6CHL1  H19C  413   4.955   0.272   9.989  0.9964  0.8345 -0.4992
    6CHL1    C1  414   5.130   0.454  10.101 -0.4035 -0.1650 -0.1320
    6CHL1   H1A  415   5.175   0.360  10.062  3.3992  1.6080 -0.4253
    6CHL1   H1B  416   5.197   0.537  10.070  1.8938 -1.8869 -0.0750
    6CHL1    C2  417   5.136   0.446  10.257 -0.1409 -0.6205  0.1773
    6CHL1   H2A  418   5.240   0.444  10.295 -0.9878 -1.4604  2.6036
    6CHL1   H2B  419   5.086   0.350  10.282  0.5718 -0.6607  1.5001
    6CHL1   C20  420   4.959   0.454   9.341  0.2655  0.2557  0.3829
    6CHL1   H20  421   4.883   0.376   9.361  0.9243 -0.3382  0.6409
    6CHL1   C21  422   5.093   0.386   9.321 -0.4256  0.4008  0.4476
    6CHL1  H21A  423   5.177   0.458   9.329 -1.0678  1.0657  1.6426
    6CHL1  H21B  424   5.105   0.342   9.220  1.0647 -1.2766  1.3087
    6CHL1  H21C  425   5.098   0.309   9.401 -4.3118 -0.2264  0.2835
    6CHL1   C22  426   4.928   0.517   9.199 -0.2915  0.1984  0.6632
    6CHL1  H22A  427   4.957   0.441   9.124  1.6284 -0.9360  2.4561
    6CHL1  H22B  428   4.819   0.535   9.189 -0.3371 -0.4476 -0.0734
    6CHL1   C23  429   5.007   0.651   9.161  0.6812  0.7824 -0.1595
    6CHL1  H23A  430   4.953   0.716   9.233 -1.2345 -0.9338  0.0505
    6CHL1  H23B  431   5.113   0.635   9.190  0.5924  0.3038 -0.1020
    6CHL1   C24  432   4.986   0.696   9.011 -0.1728 -0.1381  0.1338
    6CHL1  H24A  433   4.876   0.704   8.998 -0.1168 -1.3110 -1.3889
    6CHL1  H24B  434   5.036   0.794   8.995  0.4784  0.2446  3.6183
    6CHL1   C25  435   5.045   0.607   8.897  0.6734 -0.0205  0.1434
    6CHL1   H25  436   4.988   0.512   8.895  1.4926 -0.5207 -0.8560
    6CHL1   C26  437   5.014   0.684   8.765  0.1886  0.2829  0.1144
    6CHL1  H26A  438   4.907   0.707   8.745 -0.1417  0.4271  1.8559
    6CHL1  H26B  439   5.074   0.775   8.745  1.2980 -1.0312 -3.3687
    6CHL1  H26C  440   5.036   0.612   8.683 -2.9724 -2.0221  1.1011
    6CHL1   C27  441   5.199   0.577   8.911  0.2897  0.2247  0.6268
    6CHL1  H27A  442   5.229   0.504   8.833  1.9798  1.1213  0.3858
    6CHL1  H27B  443   5.253   0.673   8.894  1.6131 -0.7224 -0.7975
    6CHL1  H27C  444   5.227   0.534   9.010  3.4550  0.1077 -0.2273
    7CHL1    C3  445   0.583   3.383  10.392 -0.1879 -0.0068 -0.0505
    7CHL1    H3  446   0.684   3.426  10.370 -0.1451 -0.4646 -0.7831
    7CHL1    O3  447   0.573   3.376  10.530 -0.2191 -0.2289 -0.6024
    7CHL1   H3'  448   0.482   3.351  10.548  0.3080 -3.6734 -2.0182
    7CHL1    C4  449   0.456   3.456  10.336  0.8061  0.5713 -0.4529
    7CHL1   H4A  450   0.367   3.396  10.366  1.4767 -1.4004 -2.1204
    7CHL1   H4B  451   0.450   3.554  10.387 -0.7088 -1.3750  3.5008
    7CHL1    C5  452   0.468   3.459  10.186 -0.3832  0.0410  0.3452
    7CHL1    C6  453   0.475   3.571  10.120 -0.0442  0.5819 -0.9103
    7CHL1    H6  454   0.468   3.668  10.172 -0.7270  0.5230 -0.8882
    7CHL1    C7  455   0.487   3.589   9.976 -0.3886  1.4721 -0.0586
    7CHL1   H7A  456   0.413   3.660   9.932  0.4450  1.2961 -1.8582
    7CHL1   H7B  457   0.588   3.634   9.963 -0.5579  1.7607 -0.3845
    7CHL1    C8  458   0.475   3.458   9.896 -1.0564 -1.0508  0.7668
    7CHL1    H8  459   0.366   3.436   9.901 -1.9623  2.0752 -2.1335
    7CHL1   C14  460   0.519   3.462   9.752  0.6147  0.3145  0.1502
    7CHL1   H14  461   0.630   3.465   9.760  0.7479 -1.8536 -0.3628
    7CHL1   C15  462   0.470   3.578   9.667 -0.0223 -0.1241  0.2457
    7CHL1  H15A  463   0.362   3.594   9.688 -0.9710 -1.5275 -2.9755
    7CHL1  H15B  464   0.517   3.670   9.706  0.4080 -0.3874  0.3561
    7CHL1   C16  465   0.489   3.541   9.520  0.1140  0.4733 -0.7220
    7CHL1  H16A  466   0.391   3.538   9.469 -0.4227  2.3815  0.0988
    7CHL1  H16B  467   0.551   3.612   9.460  1.1269 -0.6651 -1.0715
    7CHL1   C17  468   0.541   3.394   9.526 -0.3065  0.0543 -0.6038
    7CHL1   H17  469   0.650   3.406   9.542 -0.8229  1.7672  2.3448
    7CHL1   C13  470   0.501   3.335   9.665  0.7560  0.9576 -0.2026
    7CHL1   C18  471   0.355   3.284   9.666  0.4572 -0.2087  0.8075
    7CHL1  H18A  472   0.338   3.196   9.601 -0.9042  0.0021  0.8451
    7CHL1  H18B  473   0.317   3.273   9.770  0.9137 -1.0144  0.8912
    7CHL1  H18C  474   0.298   3.366   9.617  0.4784 -1.6882 -1.8300
    7CHL1   C12  475   0.590   3.226   9.726 -0.3904 -0.4008  0.2030
    7CHL1  H12A  476   0.591   3.126   9.678  0.4393 -1.4767  2.3452
    7CHL1  H12B  477   0.695   3.261   9.718 -0.8490  0.8499 -0.5118
    7CHL1   C11  478   0.544   3.204   9.875 -0.2241 -0.3347  0.3435
    7CHL1  H11A  479   0.442   3.160   9.869 -1.1729  1.8065  0.0016
    7CHL1  H11B  480   0.619   3.136   9.923  0.1706  0.1758  0.4556
    7CHL1    C9  481   0.544   3.333   9.961 -0.3838  0.0006  0.3451
    7CHL1    H9  482   0.649   3.362   9.983 -0.5757 -0.6127  2.2669
    7CHL1   C10  483   0.491   3.323  10.106  0.2178  1.1030 -0.0161
    7CHL1   C19  484   0.350   3.249  10.100 -0.6403  0.2251 -0.2352
    7CHL1  H19A  485   0.354   3.140  10.079 -1.7140 -0.4241  2.5245
    7CHL1  H19B  486   0.293   3.259  10.195  1.7808 -3.7547  1.9202
    7CHL1  H19C  487   0.292   3.286  10.013 -2.5390 -1.8826  0.0389
    7CHL1    C1  488   0.594   3.240  10.184 -0.2586  0.4326 -0.0653
    7CHL1   H1A  489   0.598   3.132  10.158 -2.6914  1.0452 -3.6165
    7CHL1   H1B  490   0.694   3.281  10.158 -0.0764  0.7728  1.1233
    7CHL1    C2  491   0.580   3.245  10.340 -0.5182  0.2101  0.3058
    7CHL1   H2A  492   0.678   3.198  10.364 -0.4395  0.9597  1.5289
    7CHL1   H2B  493   0.489   3.188  10.370 -0.7892 -0.5449 -1.8233
    7CHL1   C20  494   0.534   3.306   9.401  0.4905 -0.5859 -0.9808
    7CHL1   H20  495   0.426   3.279   9.396  0.2073  0.3546 -0.1858
    7CHL1   C21  496   0.602   3.163   9.427  0.2604  0.1321  0.0291
    7CHL1  H21A  497   0.696   3.184   9.481  0.6360 -2.9019  0.7599
    7CHL1  H21B  498   0.618   3.106   9.333  0.1634  1.3368 -0.7478
    7CHL1  H21C  499   0.527   3.109   9.489 -0.9456  0.2355 -1.2746
    7CHL1   C22  500   0.568   3.383   9.275  0.4645 -0.1464  0.4040
    7CHL1  H22A  501   0.501   3.471   9.262 -1.0272 -1.2333  0.4832
    7CHL1  H22B  502   0.674   3.416   9.275  1.1948 -2.0335 -3.1058
    7CHL1   C23  503   0.531   3.302   9.147 -0.3549  0.2170  0.2270
    7CHL1  H23A  504   0.580   3.203   9.159  1.7032  1.2774  1.1378
    7CHL1  H23B  505   0.422   3.282   9.147 -0.2442 -0.3972 -0.3749
    7CHL1   C24  506   0.570   3.363   9.008  0.1626 -0.5456  0.9631
    7CHL1  H24A  507   0.541   3.470   9.001 -0.7299 -0.8466 -0.0902
    7CHL1  H24B  508   0.680   3.359   8.989  0.0699  2.9081 -1.1411
    7CHL1   C25  509   0.513   3.285   8.882  0.4419 -0.1994 -0.4076
    7CHL1   H25  510   0.566   3.188   8.882  0.8521 -0.0555 -3.2306
    7CHL1   C26  511   0.365   3.272   8.902  0.0930  0.3339  0.4250
    7CHL1  H26A  512   0.346   3.193   8.979 -1.8707  0.3632  0.0165
    7CHL1  H26B  513   0.317   3.371   8.916  1.2013  0.7927  1.1411
    7CHL1  H26C  514   0.313   3.236   8.811  0.7193 -0.2854  0.3005
    7CHL1   C27  515   0.546   3.351   8.750  0.0585  0.2268 -0.4935
    7CHL1  H27A  516   0.519   3.277   8.672  1.6334 -2.0288  0.9747
    7CHL1  H27B  517   0.478   3.438   8.737  1.7397  1.2776 -3.2023
    7CHL1  H27C  518   0.654   3.377   8.742  0.5280 -1.1154  1.0404
    8CHL1    C3  519   0.295   5.861  10.538  0.7611  0.0483 -0.3744
    8CHL1    H3  520   0.243   5.951  10.501  1.6078  0.8516  0.3516
    8CHL1    O3  521   0.281   5.874  10.681  0.2156  0.0848  0.3227
    8CHL1   H3'  522   0.302   5.790  10.723  2.2812  0.2449 -0.2600
    8CHL1    C4  523   0.237   5.729  10.498  0.6497  0.1839  0.0680
    8CHL1   H4A  524   0.275   5.638  10.549 -3.2989 -1.4204  0.5179
    8CHL1   H4B  525   0.130   5.728  10.526  0.5648  1.6818 -0.1235
    8CHL1    C5  526   0.254   5.698  10.351 -0.7077  0.0636 -0.1464
    8CHL1    C6  527   0.153   5.660  10.274 -0.1983 -0.2389  0.3470
    8CHL1    H6  528   0.053   5.651  10.320  0.9548 -0.6229  2.9526
    8CHL1    C7  529   0.174   5.614  10.130  0.1179 -0.2132  0.1748
    8CHL1   H7A  530   0.142   5.509  10.115 -0.3206 -0.5950  3.1381
    8CHL1   H7B  531   0.116   5.681  10.062  1.3699 -0.0710 -0.7806
    8CHL1    C8  532   0.323   5.596  10.079  0.2498 -0.1322 -0.3192
    8CHL1    H8  533   0.364   5.498  10.110 -2.8301 -1.4160  0.0510
    8CHL1   C14  534   0.332   5.612   9.927  0.2375 -0.1406  0.5078
    8CHL1   H14  535   0.293   5.714   9.911 -0.9415 -0.4688  1.1435
    8CHL1   C15  536   0.240   5.525   9.836  0.4693 -0.7509  0.1080
    8CHL1  H15A  537   0.234   5.426   9.886 -0.1040 -0.4010  0.7529
    8CHL1  H15B  538   0.136   5.562   9.844  0.2440 -1.6608  1.8295
    8CHL1   C16  539   0.296   5.532   9.698 -0.3242  0.6423  0.3899
    8CHL1  H16A  540   0.314   5.428   9.661  3.7503 -0.3661  4.2113
    8CHL1  H16B  541   0.228   5.581   9.626 -1.3252 -0.7223  0.3574
    8CHL1   C17  542   0.434   5.602   9.713  0.3367  0.0090  0.3501
    8CHL1   H17  543   0.415   5.710   9.696  1.4758  0.1204 -0.2692
    8CHL1   C13  544   0.468   5.594   9.866  0.1807 -0.0199  0.2059
    8CHL1   C18  545   0.514   5.449   9.902 -0.1191 -0.5278 -0.4127
    8CHL1  H18A  546   0.525   5.422  10.009 -1.0011  0.0172 -0.1747
    8CHL1  H18B  547   0.437   5.378   9.864 -1.5196  0.8006 -0.1638
    8CHL1  H18C  548   0.608   5.428   9.846  0.9414 -0.5606  1.3339
    8CHL1   C12  549   0.572   5.683   9.935 -0.2943 -0.4177  0.2865
    8CHL1  H12A  550   0.673   5.639   9.917 -0.3871 -0.7016  0.4606
    8CHL1  H12B  551   0.554   5.782   9.887  0.6025 -0.4164 -0.0756
    8CHL1   C11  552   0.558   5.696  10.089 -0.3514  0.3438  0.1581
    8CHL1  H11A  553   0.603   5.602  10.129 -0.5018  0.0314 -0.3781
    8CHL1  H11B  554   0.626   5.779  10.116 -0.6237  1.1523 -1.5345
    8CHL1    C9  555   0.409   5.705  10.144  0.0808 -0.0518 -0.7005
    8CHL1    H9  556   0.364   5.799  10.104  2.2395  1.2648 -0.2461
    8CHL1   C10  557   0.406   5.707  10.298  0.5528 -0.8186  0.1335
    8CHL1   C19  558   0.484   5.595  10.362 -0.5152 -0.6864 -0.5817
    8CHL1  H19A  559   0.455   5.589  10.469 -1.0905  1.5875 -0.5475
    8CHL1  H19B  560   0.457   5.501  10.310 -1.2637 -1.6236  1.4029
    8CHL1  H19C  561   0.593   5.615  10.358 -0.4535 -0.6383  0.8769
    8CHL1    C1  562   0.469   5.847  10.355 -0.3365  0.5398  0.7147
    8CHL1   H1A  563   0.578   5.852  10.335 -0.9790  2.4068 -3.2679
    8CHL1   H1B  564   0.434   5.934  10.295  1.1439  0.5974 -0.0934
    8CHL1    C2  565   0.440   5.870  10.507 -0.3970 -0.1298  0.4372
    8CHL1   H2A  566   0.489   5.964  10.543  1.7652 -0.3967 -1.5183
    8CHL1   H2B  567   0.497   5.787  10.553 -1.1223 -1.6124 -1.2255
    8CHL1   C20  568   0.530   5.559   9.604  0.2636  0.3041  0.3957
    8CHL1   H20  569   0.558   5.454   9.628 -0.6056  0.1006  0.5491
    8CHL1   C21  570   0.656   5.640   9.622 -0.0017 -0.2087  0.1170
    8CHL1  H21A  571   0.714   5.606   9.710 -0.9631 -1.0051  0.4565
    8CHL1  H21B  572   0.635   5.748   9.637 -1.7219 -0.5300  0.2783
    8CHL1  H21C  573   0.725   5.618   9.538  0.4853  2.4070 -0.2555
    8CHL1   C22  574   0.473   5.567   9.461 -0.1753  0.2617 -0.6356
    8CHL1  H22A  575   0.541   5.503   9.400 -0.3319 -0.2731 -0.2553
    8CHL1  H22B  576   0.374   5.516   9.460 -0.0499  0.0097 -0.4576
    8CHL1   C23  577   0.446   5.702   9.390 -0.5302 -0.3602 -0.5791
    8CHL1  H23A  578   0.382   5.766   9.455 -0.2937 -1.5683  0.9238
    8CHL1  H23B  579   0.535   5.767   9.378 -0.4682  0.4194  2.9020
    8CHL1   C24  580   0.385   5.691   9.258 -0.1033  0.6644 -0.0579
    8CHL1  H24A  581   0.467   5.681   9.184  0.8758  1.1349  0.9343
    8CHL1  H24B  582   0.325   5.598   9.245 -1.0691  1.1829  0.5244
    8CHL1   C25  583   0.306   5.812   9.201 -0.7748 -0.0237  0.0276
    8CHL1   H25  584   0.232   5.837   9.281  0.0774  0.6651  0.6206
    8CHL1   C26  585   0.392   5.945   9.185 -0.2754  0.7670  0.3381
    8CHL1  H26A  586   0.436   5.968   9.284 -0.2240 -0.2780  0.5750
    8CHL1  H26B  587   0.476   5.921   9.116 -1.4084  1.1838 -1.2355
    8CHL1  H26C  588   0.328   6.032   9.160 -1.0978 -0.2509 -1.3411
    8CHL1   C27  589   0.221   5.782   9.073  0.2835  0.1748 -0.2429
    8CHL1  H27A  590   0.297   5.753   8.997  1.8069 -0.2936  1.3955
    8CHL1  H27B  591   0.135   5.711   9.082  0.4230 -0.1935 -1.6543
    8CHL1  H27C  592   0.181   5.882   9.045  1.6419  1.5413  2.3422
    9CHL1    C3  593   3.245   0.611  10.360 -0.0228  0.1177 -0.0011
    9CHL1    H3  594   3.219   0.506  10.335  0.8025 -0.1485  0.2343
    9CHL1    O3  595   3.229   0.627  10.506  0.4141  0.7467 -0.2749
    9CHL1   H3'  596   3.197   0.715  10.524 -2.5094 -0.6277  1.9260
    9CHL1    C4  597   3.392   0.620  10.336  0.7893  0.5422 -0.3098
    9CHL1   H4A  598   3.428   0.713  10.385  1.2932 -0.0038  0.3657
    9CHL1   H4B  599   3.448   0.539  10.387 -2.6161 -1.3770  0.6904
    9CHL1    C5  600   3.418   0.615  10.182 -0.0213  0.4909 -0.5890
    9CHL1    C6  601   3.487   0.506  10.136 -0.3514  0.7505 -0.2014
    9CHL1    H6  602   3.535   0.429  10.198  0.1480  0.6085 -0.7508
    9CHL1    C7  603   3.520   0.486   9.985  0.1560 -0.6497 -0.5385
    9CHL1   H7A  604   3.624   0.448   9.972  1.1474  1.8257 -0.4143
    9CHL1   H7B  605   3.443   0.417   9.943 -0.8768 -0.8584  1.5829
    9CHL1    C8  606   3.490   0.612   9.904  0.0442  0.0398  0.1681
    9CHL1    H8  607   3.572   0.680   9.932  0.9876 -1.6584  1.7746
    9CHL1   C14  608   3.488   0.573   9.760 -0.3017  0.4728  0.2083
    9CHL1   H14  609   3.402   0.506   9.743 -0.7646  1.2446 -0.5729
    9CHL1   C15  610   3.601   0.484   9.711  0.5362 -0.4446 -0.2611
    9CHL1  H15A  611   3.684   0.549   9.746  1.4151 -2.6743  2.0847
    9CHL1  H15B  612   3.613   0.381   9.751  0.3574  0.4329  2.2496
    9CHL1   C16  613   3.596   0.493   9.556 -0.5761  0.0438  0.3220
    9CHL1  H16A  614   3.694   0.532   9.523 -0.7375  0.7869  0.7147
    9CHL1  H16B  615   3.573   0.402   9.496  0.7061  0.0674 -0.2299
    9CHL1   C17  616   3.483   0.606   9.526 -0.3419  0.3287 -0.2532
    9CHL1   H17  617   3.387   0.552   9.513 -0.6087  1.1562 -2.0522
    9CHL1   C13  618   3.470   0.684   9.661 -0.8172 -0.3066  0.8668
    9CHL1   C18  619   3.574   0.791   9.679 -0.1835 -0.6970  0.7089
    9CHL1  H18A  620   3.678   0.752   9.680  0.5677  1.1953  1.8271
    9CHL1  H18B  621   3.576   0.868   9.599 -1.6423 -1.3807 -0.0307
    9CHL1  H18C  622   3.566   0.846   9.775  3.3719  2.4278 -0.5317
    9CHL1   C12  623   3.331   0.742   9.691  0.0756  0.3403 -0.5342
    9CHL1  H12A  624   3.315   0.841   9.644 -1.8861  0.8632  1.1072
    9CHL1  H12B  625   3.262   0.660   9.660 -1.9327  0.8666  2.2045
    9CHL1   C11  626   3.307   0.777   9.838  0.5539 -0.0192 -0.5920
    9CHL1  H11A  627   3.373   0.866   9.850 -1.2208  1.2398  0.2226
    9CHL1  H11B  628   3.203   0.804   9.864  0.5602 -0.6290  0.1092
    9CHL1    C9  629   3.354   0.665   9.942 -0.5637  0.6031 -0.5739
    9CHL1    H9  630   3.283   0.580   9.939 -1.2147  1.0362  1.5528
    9CHL1   C10  631   3.340   0.714  10.096  0.7051  0.1749  0.4355
    9CHL1   C19  632   3.403   0.847  10.129  0.3361  0.4762  0.4275
    9CHL1  H19A  633   3.359   0.925  10.064  0.6518 -1.8645 -2.8114
    9CHL1  H19B  634   3.375   0.885  10.230 -3.6581  0.2708 -0.4534
    9CHL1  H19C  635   3.513   0.843  10.110  0.1532  0.2399 -0.6270
    9CHL1    C1  636   3.188   0.704  10.137  0.2362 -0.3269 -0.2987
    9CHL1   H1A  637   3.143   0.795  10.092  1.0859  1.3449  2.0204
    9CHL1   H1B  638   3.133   0.613  10.106 -0.5557 -0.7691  2.1420
    9CHL1    C2  639   3.156   0.703  10.291  0.8460 -0.4506  0.4294
    9CHL1   H2A  640   3.052   0.667  10.303  0.5327  0.1292 -0.4118
    9CHL1   H2B  641   3.174   0.807  10.324  0.9646 -0.5010  0.5246
    9CHL1   C20  642   3.497   0.687   9.397 -0.2292 -0.2535  0.5726
    9CHL1   H20  643   3.592   0.745   9.399 -0.4877  0.1942  0.0967
    9CHL1   C21  644   3.390   0.795   9.387 -0.0097 -0.7785  0.4039
    9CHL1  H21A  645   3.387   0.833   9.282  0.2985 -2.5699 -0.2797
    9CHL1  H21B  646   3.417   0.876   9.459 -2.2709  0.4588 -0.0372
    9CHL1  H21C  647   3.292   0.747   9.410  1.2033 -2.4760  2.2995
    9CHL1   C22  648   3.497   0.590   9.275 -0.2883  0.5635 -0.3179
    9CHL1  H22A  649   3.564   0.506   9.302  1.2481  1.9057  0.2792
    9CHL1  H22B  650   3.397   0.543   9.264 -1.4595  2.7617  0.2330
    9CHL1   C23  651   3.538   0.663   9.140 -0.3140  0.1241 -0.2246
    9CHL1  H23A  652   3.463   0.734   9.097  0.0528 -0.1880 -1.4249
    9CHL1  H23B  653   3.633   0.714   9.163  0.3351 -1.6843  1.3675
    9CHL1   C24  654   3.574   0.566   9.026 -0.0141 -0.3877 -1.1146
    9CHL1  H24A  655   3.638   0.489   9.074 -1.1728 -0.7909 -0.1550
    9CHL1  H24B  656   3.488   0.512   8.980 -2.0859 -0.2784  2.2639
    9CHL1   C25  657   3.654   0.650   8.919 -0.9262  1.0391  0.3336
    9CHL1   H25  658   3.731   0.702   8.980 -1.9122  4.3759 -1.0031
    9CHL1   C26  659   3.725   0.565   8.809  0.1809 -0.2472  0.6046
    9CHL1  H26A  660   3.656   0.509   8.742 -0.0018  1.7809 -1.0187
    9CHL1  H26B  661   3.777   0.636   8.740 -0.0029 -1.4680 -0.8575
    9CHL1  H26C  662   3.808   0.507   8.854  0.6706  0.8428  1.1226
    9CHL1   C27  663   3.574   0.761   8.866  1.0905  0.4260  0.2456
    9CHL1  H27A  664   3.484   0.729   8.809  0.5381  0.2144  1.2295
    9CHL1  H27B  665   3.555   0.837   8.944 -0.3662  0.8115 -0.4530
    9CHL1  H27C  666   3.628   0.828   8.795 -0.1432  3.3724  1.9037
   10CHL1    C3  667   3.725   4.210  10.110 -0.3121  0.2212  0.4620
   10CHL1    H3  668   3.625   4.249  10.138 -1.0880  0.0070 -1.8314
   10CHL1    O3  669   3.779   4.178  10.237  0.3248 -0.0256  0.5802
   10CHL1   H3'  670   3.806   4.261  10.276  0.6092  0.9433 -1.5127
   10CHL1    C4  671   3.701   4.083  10.030 -0.4306 -0.1390 -0.1488
   10CHL1   H4A  672   3.794   4.023  10.018 -1.4167 -2.0183  1.0677
   10CHL1   H4B  673   3.628   4.015  10.080 -0.0724 -0.3416  0.1084
   10CHL1    C5  674   3.650   4.129   9.893 -0.6010  0.1182 -0.5272
   10CHL1    C6  675   3.536   4.089   9.835  0.0844  0.7585 -0.7502
   10CHL1    H6  676   3.485   4.008   9.889  1.1759  0.9135  0.5561
   10CHL1    C7  677   3.490   4.115   9.695 -0.5596 -0.1120  0.7277
   10CHL1   H7A  678   3.462   4.021   9.642 -1.7970 -0.7788  2.4981
   10CHL1   H7B  679   3.402   4.183   9.700 -0.7613 -0.0050 -2.1771
   10CHL1    C8  680   3.591   4.196   9.606 -0.3116 -0.0646 -0.0310
   10CHL1    H8  681   3.664   4.122   9.566 -0.6107 -2.6778  3.7419
   10CHL1   C14  682   3.529   4.270   9.488  0.0647  0.4903  0.7364
   10CHL1   H14  683   3.464   4.345   9.538 -0.6016 -1.0812  2.3463
   10CHL1   C15  684   3.435   4.193   9.396 -0.7614 -0.2004 -0.0317
   10CHL1  H15A  685   3.483   4.096   9.369 -2.1937 -0.9905  0.2036
   10CHL1  H15B  686   3.343   4.167   9.451 -1.2895  0.8762 -0.3584
   10CHL1   C16  687   3.416   4.285   9.276 -0.1414  0.4469  0.2778
   10CHL1  H16A  688   3.448   4.226   9.187 -0.6211 -0.2451  0.5541
   10CHL1  H16B  689   3.312   4.316   9.255 -0.2204  0.5925  0.8642
   10CHL1   C17  690   3.520   4.397   9.291  0.5807 -0.4738  0.2394
   10CHL1   H17  691   3.455   4.475   9.336 -0.3511 -0.6233 -0.8204
   10CHL1   C13  692   3.622   4.344   9.395 -0.1198 -0.7449 -0.4823
   10CHL1   C18  693   3.716   4.242   9.324 -0.3666  0.4698  0.9968
   10CHL1  H18A  694   3.807   4.294   9.285 -2.0143  1.7478 -1.3967
   10CHL1  H18B  695   3.736   4.145   9.373 -0.6096  0.4321  1.0212
   10CHL1  H18C  696   3.674   4.204   9.229 -1.1847  0.6369  1.2879
   10CHL1   C12  697   3.704   4.447   9.483  0.0460  0.1528  0.1137
   10CHL1  H12A  698   3.781   4.481   9.411  0.6922 -0.9700  0.2513
   10CHL1  H12B  699   3.644   4.533   9.520 -1.5034 -1.5517  1.7854
   10CHL1   C11  700   3.773   4.381   9.605  0.5675  0.7017 -0.1361
   10CHL1  H11A  701   3.854   4.321   9.557 -0.0939 -0.3037 -0.0064
   10CHL1  H11B  702   3.822   4.462   9.664 -1.0877  1.1996  0.5846
   10CHL1    C9  703   3.671   4.294   9.691 -0.7915 -0.4142 -0.4044
   10CHL1    H9  704   3.600   4.365   9.737  0.7276  0.3501  0.8596
   10CHL1   C10  705   3.739   4.233   9.819 -0.7077  0.6197  0.0041
   10CHL1   C19  706   3.877   4.160   9.793  0.0704 -0.4964 -0.2324
   10CHL1  H19A  707   3.949   4.236   9.757 -0.6298  0.7811  0.9542
   10CHL1  H19B  708   3.915   4.118   9.889 -0.0080 -2.2745 -0.9264
   10CHL1  H19C  709   3.859   4.079   9.719 -0.9678 -1.2596  0.8054
   10CHL1    C1  710   3.758   4.350   9.912  0.2336 -0.1326  0.0383
   10CHL1   H1A  711   3.823   4.434   9.877  1.3638 -0.1570  1.9129
   10CHL1   H1B  712   3.658   4.392   9.933  0.1017  1.6190 -3.3945
   10CHL1    C2  713   3.818   4.314  10.046  0.1065  0.2956 -0.3500
   10CHL1   H2A  714   3.804   4.406  10.106 -0.6027  1.3650 -2.0770
   10CHL1   H2B  715   3.918   4.266  10.045 -1.2881 -2.8777  0.2777
   10CHL1   C20  716   3.572   4.461   9.157 -0.4498 -0.9400 -0.3174
   10CHL1   H20  717   3.648   4.398   9.107 -1.4964 -2.3041 -0.2657
   10CHL1   C21  718   3.618   4.605   9.189 -0.4910 -0.3231 -0.2853
   10CHL1  H21A  719   3.644   4.664   9.098  1.1646  0.9988  0.9705
   10CHL1  H21B  720   3.698   4.593   9.266  0.4970 -1.6888 -1.4624
   10CHL1  H21C  721   3.537   4.658   9.243  0.3312 -0.3656  1.0325
   10CHL1   C22  722   3.460   4.472   9.051  0.1941  0.0278  0.8069
   10CHL1  H22A  723   3.389   4.387   9.042 -0.0986  0.3589 -0.1658
   10CHL1  H22B  724   3.396   4.561   9.073  1.2927  1.2442 -0.6668
   10CHL1   C23  725   3.523   4.492   8.909 -0.0675  0.3497  0.3861
   10CHL1  H23A  726   3.597   4.575   8.911  0.1697  0.1635 -0.1798
   10CHL1  H23B  727   3.583   4.401   8.883 -0.7987 -1.2218  3.6950
   10CHL1   C24  728   3.423   4.505   8.798  0.4970  0.4528  0.5612
   10CHL1  H24A  729   3.329   4.449   8.814  1.0358 -0.1474  1.7743
   10CHL1  H24B  730   3.391   4.611   8.804 -1.9330 -0.2449  0.7304
   10CHL1   C25  731   3.464   4.486   8.651 -0.0944 -0.1278  0.1081
   10CHL1   H25  732   3.509   4.384   8.642  2.6187  1.1422 -3.2323
   10CHL1   C26  733   3.356   4.498   8.546  0.6929  0.2474  0.5696
   10CHL1  H26A  734   3.388   4.486   8.441 -2.2532 -2.5877 -0.1869
   10CHL1  H26B  735   3.283   4.414   8.557  2.0079 -0.9609  0.4591
   10CHL1  H26C  736   3.301   4.594   8.551 -0.1653 -0.2085  0.1293
   10CHL1   C27  737   3.581   4.583   8.617  0.6564  0.3181  0.1943
   10CHL1  H27A  738   3.652   4.569   8.701 -0.9055 -0.1792  1.4907
   10CHL1  H27B  739   3.632   4.563   8.520  1.6018 -0.3778  0.8226
   10CHL1  H27C  740   3.538   4.685   8.607  0.3196  0.3150  1.4683
   11CHL1    C3  741   5.320   1.486  10.219 -0.7617 -0.0839  0.0053
   11CHL1    H3  742   5.215   1.504  10.187 -1.8251 -2.5454  1.7600
   11CHL1    O3  743   5.314   1.441  10.358  0.2079 -0.1568 -0.0277
   11CHL1   H3'  744   5.385   1.487  10.404 -0.8217  2.5231 -0.9142
   11CHL1    C4  745   5.383   1.378  10.140 -0.7483 -0.1963 -0.0850
   11CHL1   H4A  746   5.489   1.359  10.166 -0.4148  1.4964 -0.1389
   11CHL1   H4B  747   5.321   1.287  10.160 -1.6262  0.4254  0.0867
   11CHL1    C5  748   5.390   1.401   9.990  0.6315 -0.1316 -0.0535
   11CHL1    C6  749   5.325   1.318   9.913  0.1359  0.5505  0.7505
   11CHL1    H6  750   5.279   1.225   9.950  2.1728 -1.3310 -1.1370
   11CHL1    C7  751   5.310   1.344   9.765  0.1345  0.1344 -0.0673
   11CHL1   H7A  752   5.322   1.252   9.705 -0.1315  0.6902 -0.9872
   11CHL1   H7B  753   5.207   1.383   9.751  0.3606  0.9688  0.5371
   11CHL1    C8  754   5.416   1.436   9.710  0.6282 -0.3281 -0.3166
   11CHL1    H8  755   5.514   1.385   9.722  0.4425 -0.4479  0.7920
   11CHL1   C14  756   5.389   1.474   9.565 -0.2380  0.1337 -0.5538
   11CHL1   H14  757   5.287   1.519   9.572 -0.1101  0.3459 -0.0060
   11CHL1   C15  758   5.374   1.363   9.461 -0.4514  0.7124 -0.8911
   11CHL1  H15A  759   5.457   1.291   9.480  0.7315  2.4254  0.8361
   11CHL1  H15B  760   5.275   1.318   9.479 -0.5952  0.7194 -1.6328
   11CHL1   C16  761   5.394   1.434   9.322  0.2116 -0.9449 -0.6191
   11CHL1  H16A  762   5.479   1.389   9.267  0.4594  0.2184 -1.2145
   11CHL1  H16B  763   5.311   1.423   9.248 -1.2725 -0.9070  0.9783
   11CHL1   C17  764   5.412   1.581   9.363  0.6825  0.0705  0.5493
   11CHL1   H17  765   5.308   1.612   9.385  1.3543  3.1981 -0.2473
   11CHL1   C13  766   5.483   1.575   9.499  0.4530 -0.0993 -0.5459
   11CHL1   C18  767   5.627   1.521   9.497  0.0035  0.7837 -0.0401
   11CHL1  H18A  768   5.651   1.430   9.438 -0.7483 -0.0874  0.9569
   11CHL1  H18B  769   5.700   1.591   9.451  0.7786 -0.2359 -0.3937
   11CHL1  H18C  770   5.666   1.485   9.594  0.1002 -1.5931 -0.9147
   11CHL1   C12  771   5.486   1.707   9.584 -0.4672  0.2528  0.1225
   11CHL1  H12A  772   5.562   1.780   9.550  0.1108 -0.5104 -0.2635
   11CHL1  H12B  773   5.385   1.752   9.582 -0.8966 -0.6385  0.7940
   11CHL1   C11  774   5.519   1.677   9.737 -0.2424 -0.4455 -0.0356
   11CHL1  H11A  775   5.626   1.650   9.732 -0.2851 -0.5879 -0.2051
   11CHL1  H11B  776   5.506   1.765   9.804  1.6409 -0.9973  1.1118
   11CHL1    C9  777   5.428   1.566   9.797  0.3780 -0.1716  0.8293
   11CHL1    H9  778   5.328   1.614   9.803  0.5253  0.6364 -1.6655
   11CHL1   C10  779   5.448   1.545   9.947  0.0693  0.1641 -0.9555
   11CHL1   C19  780   5.600   1.523   9.962 -0.0657 -0.2237 -0.3507
   11CHL1  H19A  781   5.653   1.620   9.947  0.4282 -0.6477 -1.4612
   11CHL1  H19B  782   5.627   1.484  10.062 -1.7635 -0.0931  0.1849
   11CHL1  H19C  783   5.648   1.455   9.888  0.8275 -0.7852  0.7324
   11CHL1    C1  784   5.398   1.659  10.047 -0.5820  0.2891  0.3695
   11CHL1   H1A  785   5.460   1.749  10.030  1.1415 -1.4179 -3.5969
   11CHL1   H1B  786   5.292   1.673  10.015 -0.6111  0.9774  0.7509
   11CHL1    C2  787   5.398   1.612  10.198  0.2700 -0.2234 -0.3816
   11CHL1   H2A  788   5.351   1.699  10.249 -1.2592 -0.5699 -1.1429
   11CHL1   H2B  789   5.504   1.608  10.234  0.0759 -0.3540  0.1854
   11CHL1   C20  790   5.473   1.671   9.255  0.0427  0.2185 -0.3087
   11CHL1   H20  791   5.543   1.738   9.309 -0.0087  0.3413 -0.3938
   11CHL1   C21  792   5.365   1.758   9.180 -0.0956  0.3310  0.3279
   11CHL1  H21A  793   5.303   1.693   9.115  0.3619  0.1721  0.0439
   11CHL1  H21B  794   5.401   1.842   9.115 -1.0551  1.0463  0.6928
   11CHL1  H21C  795   5.293   1.800   9.253 -0.8224 -0.5841  0.1487
   11CHL1   C22  796   5.567   1.596   9.154 -0.6396  0.2636 -0.3658
   11CHL1  H22A  797   5.629   1.518   9.203 -1.3455 -0.0102  0.1089
   11CHL1  H22B  798   5.510   1.537   9.079  0.5212 -1.2355 -0.1195
   11CHL1   C23  799   5.661   1.693   9.079  0.7317 -0.0819 -0.4307
   11CHL1  H23A  800   5.594   1.766   9.028 -1.0388 -0.7510  0.8275
   11CHL1  H23B  801   5.726   1.757   9.143 -1.4589  1.4249  0.4219
   11CHL1   C24  802   5.762   1.623   8.994  0.0374  0.6270  0.5080
   11CHL1  H24A  803   5.812   1.542   9.052  0.5193 -0.3107 -1.1554
   11CHL1  H24B  804   5.712   1.576   8.907  0.5698 -1.0174  1.0588
   11CHL1   C25  805   5.869   1.723   8.937  0.9409  0.7365 -0.5082
   11CHL1   H25  806   5.908   1.673   8.846 -0.8934 -0.2507 -0.7945
   11CHL1   C26  807   5.793   1.853   8.882 -0.8481  0.3221 -0.4674
   11CHL1  H26A  808   5.874   1.915   8.837 -2.0354  3.3846  1.3447
   11CHL1  H26B  809   5.722   1.827   8.800 -2.1574  0.6067  0.5424
   11CHL1  H26C  810   5.746   1.908   8.966  1.1589  1.3290  0.0538
   11CHL1   C27  811   5.976   1.762   9.040 -0.4419 -0.4166 -0.5688
   11CHL1  H27A  812   6.050   1.685   9.072  1.9084  2.3339  1.0935
   11CHL1  H27B  813   6.033   1.852   9.007  0.0887 -0.5932 -0.1424
   11CHL1  H27C  814   5.928   1.810   9.127  0.1923  0.6577 -0.7979
   12CHL1    C3  815   2.044   4.803  10.354  0.6545 -0.3566 -0.2760
   12CHL1    H3  816   2.151   4.829  10.371 -0.0547  2.4670  0.3592
   12CHL1    O3  817   1.965   4.833  10.467  0.0937 -0.5000 -0.2037
   12CHL1   H3'  818   1.882   4.786  10.461  0.2432 -0.7821 -0.1139
   12CHL1    C4  819   1.977   4.871  10.232 -0.4763  0.5099 -0.5061
   12CHL1   H4A  820   1.868   4.858  10.245 -0.3419  0.6890  1.0133
   12CHL1   H4B  821   1.992   4.980  10.250  2.7549  0.1458 -0.4286
   12CHL1    C5  822   2.033   4.827  10.098  0.8540 -0.5119  0.5071
   12CHL1    C6  823   2.085   4.914  10.007 -0.4835  0.0230  0.8013
   12CHL1    H6  824   2.108   5.019  10.031  2.5565 -0.2463 -0.5006
   12CHL1    C7  825   2.133   4.867   9.871  0.3558  0.3333  1.0332
   12CHL1   H7A  826   2.090   4.923   9.785 -1.3358  0.3465  1.8582
   12CHL1   H7B  827   2.242   4.888   9.864  0.6462 -1.1828  0.5234
   12CHL1    C8  828   2.097   4.725   9.831  0.5770 -0.0082 -0.1102
   12CHL1    H8  829   1.988   4.719   9.809  0.5034 -0.8949  0.4706
   12CHL1   C14  830   2.182   4.679   9.714  0.6271  0.1846  0.4813
   12CHL1   H14  831   2.289   4.681   9.743  1.7492  1.1457 -3.1505
   12CHL1   C15  832   2.181   4.767   9.585  0.3100  0.5784 -0.0719
   12CHL1  H15A  833   2.082   4.809   9.560  0.2390  1.2067  1.2213
   12CHL1  H15B  834   2.257   4.848   9.591  0.2204  0.6168  0.6641
   12CHL1   C16  835   2.219   4.663   9.470  0.2498  0.2451 -0.5540
   12CHL1  H16A  836   2.137   4.669   9.396 -0.6751 -1.0035  0.3146
   12CHL1  H16B  837   2.315   4.693   9.423  0.0991  2.6035  0.4968
   12CHL1   C17  838   2.231   4.523   9.540 -0.2636 -0.0958 -0.1724
   12CHL1   H17  839   2.333   4.507   9.581 -0.2752  0.0669 -0.0762
   12CHL1   C13  840   2.142   4.538   9.666 -0.5353  0.6222 -0.0313
   12CHL1   C18  841   1.997   4.535   9.622 -0.4302  0.1904 -0.5011
   12CHL1  H18A  842   1.977   4.596   9.532  0.5133 -1.3848 -1.8401
   12CHL1  H18B  843   1.976   4.427   9.602  0.3525 -0.0376 -0.1423
   12CHL1  H18C  844   1.925   4.568   9.699 -1.0713 -3.3005  0.6033
   12CHL1   C12  845   2.166   4.444   9.789 -0.0976 -0.1588 -0.1035
   12CHL1  H12A  846   2.134   4.342   9.760 -1.1409  0.8053 -2.6549
   12CHL1  H12B  847   2.274   4.429   9.811  0.3028  0.4655 -1.4798
   12CHL1   C11  848   2.087   4.488   9.908  0.0504  0.5044 -0.3018
   12CHL1  H11A  849   1.978   4.484   9.887 -0.0054  1.3979 -0.2403
   12CHL1  H11B  850   2.113   4.429   9.998  0.2123 -0.1989 -0.7997
   12CHL1    C9  851   2.117   4.628   9.951 -0.3503  0.1648  0.3271
   12CHL1    H9  852   2.225   4.641   9.973 -0.7557 -0.7090  3.2197
   12CHL1   C10  853   2.043   4.670  10.077 -0.0387  0.1941 -0.3462
   12CHL1   C19  854   1.896   4.623  10.063  0.1460 -0.5723 -0.1428
   12CHL1  H19A  855   1.889   4.515  10.088  1.6286 -0.3142  1.6002
   12CHL1  H19B  856   1.828   4.665  10.141  0.2642  1.1664 -0.9364
   12CHL1  H19C  857   1.842   4.636   9.967 -1.1380 -0.6585  0.5412
   12CHL1    C1  858   2.108   4.608  10.202 -0.4566 -0.0581 -0.1869
   12CHL1   H1A  859   2.110   4.497  10.204 -0.0876 -0.0392  1.0129
   12CHL1   H1B  860   2.215   4.639  10.206  0.0382 -1.8745  1.9326
   12CHL1    C2  861   2.041   4.655  10.341 -0.6183  0.2724  0.5828
   12CHL1   H2A  862   2.094   4.606  10.425  1.2559 -1.2232 -1.3515
   12CHL1   H2B  863   1.939   4.612  10.338 -0.7873  0.6914 -1.3115
   12CHL1   C20  864   2.200   4.413   9.442  0.4274 -0.4120  0.5167
   12CHL1   H20  865   2.095   4.424   9.406  0.8305  1.1647 -0.2471
   12CHL1   C21  866   2.221   4.274   9.513  0.6052  0.1170  0.3460
   12CHL1  H21A  867   2.214   4.189   9.442 -0.7159 -0.4012  1.0431
   12CHL1  H21B  868   2.141   4.251   9.587 -0.0869 -1.0005 -0.7045
   12CHL1  H21C  869   2.320   4.267   9.563  1.0677  1.2670 -0.3753
   12CHL1   C22  870   2.286   4.417   9.312 -0.6578  0.2718 -0.2762
   12CHL1  H22A  871   2.280   4.520   9.271 -1.0261  2.0039  3.6671
   12CHL1  H22B  872   2.389   4.405   9.352  0.7770  2.3507 -3.0191
   12CHL1   C23  873   2.252   4.310   9.200 -0.8531  0.5203  0.1031
   12CHL1  H23A  874   2.271   4.210   9.246 -2.1402  0.8275  1.3516
   12CHL1  H23B  875   2.146   4.319   9.170  0.1201  2.5497 -3.2807
   12CHL1   C24  876   2.340   4.310   9.069  0.2712 -0.4490  0.5886
   12CHL1  H24A  877   2.315   4.406   9.018  0.9244 -0.8129 -0.4421
   12CHL1  H24B  878   2.449   4.318   9.092  0.3681 -1.0136  0.3275
   12CHL1   C25  879   2.307   4.195   8.973  0.4651 -0.0646 -0.3003
   12CHL1   H25  880   2.197   4.178   8.965  0.6563 -1.4270 -0.3134
   12CHL1   C26  881   2.362   4.223   8.833 -0.6512 -0.3522 -0.1853
   12CHL1  H26A  882   2.331   4.138   8.770  0.0579 -0.8162  0.0854
   12CHL1  H26B  883   2.314   4.317   8.799 -2.0073 -0.5751  0.9985
   12CHL1  H26C  884   2.473   4.228   8.830 -0.5958  1.0018  1.7172
   12CHL1   C27  885   2.340   4.063   9.037 -0.1954  0.1212  0.2441
   12CHL1  H27A  886   2.442   4.059   9.080  0.8961  2.4903 -1.8656
   12CHL1  H27B  887   2.268   4.030   9.116  0.3993 -1.8812  0.0061
   12CHL1  H27C  888   2.330   3.981   8.962 -0.6080  0.8158 -0.4755
   13CHL1    C3  889   1.690   0.491   9.937  0.3962 -0.0258  0.1449
   13CHL1    H3  890   1.755   0.423   9.996 -0.3328  0.9685  2.2075
   13CHL1    O3  891   1.646   0.580  10.039 -0.0170  0.2196  0.1688
   13CHL1   H3'  892   1.597   0.646   9.990 -0.1087 -0.3700 -0.5506
   13CHL1    C4  893   1.774   0.565   9.840 -0.4644  0.1165  0.0171
   13CHL1   H4A  894   1.710   0.647   9.800 -0.2294  0.0953 -0.4121
   13CHL1   H4B  895   1.855   0.620   9.892 -2.2786  1.8832  1.1510
   13CHL1    C5  896   1.806   0.491   9.716  0.3552  0.3970  0.1059
   13CHL1    C6  897   1.932   0.462   9.680  0.1401  0.2993 -0.5121
   13CHL1    H6  898   2.019   0.497   9.738 -0.9242 -0.4452  1.6009
   13CHL1    C7  899   1.960   0.385   9.553  0.4989 -0.4261 -0.9035
   13CHL1   H7A  900   2.048   0.426   9.500  0.6615 -0.9919 -1.0676
   13CHL1   H7B  901   1.971   0.280   9.587  0.4814 -0.0467  0.3219
   13CHL1    C8  902   1.844   0.381   9.451 -1.1188 -0.6594 -0.3958
   13CHL1    H8  903   1.837   0.486   9.416  2.2198 -0.0720  0.4196
   13CHL1   C14  904   1.871   0.293   9.337 -0.3083  0.2377  0.5835
   13CHL1   H14  905   1.898   0.192   9.375 -3.0090 -0.3907  1.0532
   13CHL1   C15  906   1.999   0.339   9.256 -0.8403 -0.3691  0.1964
   13CHL1  H15A  907   1.997   0.449   9.238 -1.8341 -0.5603 -0.9931
   13CHL1  H15B  908   2.090   0.308   9.313 -1.0493 -1.5574 -0.0915
   13CHL1   C16  909   1.988   0.276   9.114  0.9875  0.1134 -0.4071
   13CHL1  H16A  910   1.970   0.346   9.030 -1.6600  0.0165 -0.0044
   13CHL1  H16B  911   2.070   0.204   9.092  0.0456 -1.1908  0.1835
   13CHL1   C17  912   1.851   0.202   9.127 -0.1623  0.7570  0.3609
   13CHL1   H17  913   1.893   0.105   9.161 -1.4440 -0.5660 -1.6056
   13CHL1   C13  914   1.765   0.270   9.231  0.1606 -0.4892  0.2217
   13CHL1   C18  915   1.717   0.404   9.169 -0.1731  0.0172  0.0441
   13CHL1  H18A  916   1.619   0.401   9.117 -0.1012  1.6711 -0.2264
   13CHL1  H18B  917   1.694   0.480   9.247  0.5195  0.0814  0.1907
   13CHL1  H18C  918   1.793   0.443   9.099 -1.6843  0.7410 -1.2622
   13CHL1   C12  919   1.659   0.191   9.312  0.1733  0.2495  0.5176
   13CHL1  H12A  920   1.575   0.163   9.245  0.3828  0.4736  0.1594
   13CHL1  H12B  921   1.703   0.094   9.345  0.3655 -0.4212 -1.5858
   13CHL1   C11  922   1.614   0.282   9.430  0.1759 -0.3549 -1.1743
   13CHL1  H11A  923   1.566   0.375   9.395  0.1648 -0.0087 -0.2730
   13CHL1  H11B  924   1.542   0.224   9.493 -1.6360 -0.2096 -3.0268
   13CHL1    C9  925   1.726   0.328   9.528 -0.1418  0.1271  0.0216
   13CHL1    H9  926   1.754   0.232   9.576  0.6565  0.1415 -0.4056
   13CHL1   C10  927   1.684   0.414   9.648 -0.7044  0.4565 -0.0243
   13CHL1   C19  928   1.595   0.526   9.586  0.2430  0.0368  0.1812
   13CHL1  H19A  929   1.494   0.491   9.555 -0.6293  4.5648 -3.1498
   13CHL1  H19B  930   1.580   0.606   9.662  0.0898  0.6761 -0.5039
   13CHL1  H19C  931   1.656   0.573   9.506 -0.8587 -3.0960 -2.7356
   13CHL1    C1  932   1.606   0.338   9.760  0.1727  0.2705 -0.8538
   13CHL1   H1A  933   1.515   0.297   9.712 -0.1580 -0.7661  0.5654
   13CHL1   H1B  934   1.668   0.248   9.784 -0.2320 -0.9549 -3.9816
   13CHL1    C2  935   1.572   0.420   9.884  0.5720 -0.0433 -0.5980
   13CHL1   H2A  936   1.524   0.360   9.964  0.2197  0.5886 -0.3237
   13CHL1   H2B  937   1.492   0.491   9.854 -0.9652 -0.4376  2.2043
   13CHL1   C20  938   1.786   0.177   8.983 -1.5385  0.8382 -0.2002
   13CHL1   H20  939   1.770   0.278   8.939 -0.2166  1.5009  0.7776
   13CHL1   C21  940   1.650   0.098   8.994  0.9772 -0.1968 -0.2874
   13CHL1  H21A  941   1.611   0.066   8.895 -0.9950  2.5395 -0.4834
   13CHL1  H21B  942   1.585   0.177   9.035  1.2303 -1.2825  2.3887
   13CHL1  H21C  943   1.666   0.001   9.047 -0.5363 -1.2157 -1.6052
   13CHL1   C22  944   1.888   0.104   8.896  0.8276  0.6314  0.0376
   13CHL1  H22A  945   1.989   0.141   8.924  0.6173  0.9103  0.4374
   13CHL1  H22B  946   1.889  -0.000   8.935 -3.1258 -0.3646 -2.0332
   13CHL1   C23  947   1.857   0.104   8.745 -0.4019  0.7475  0.5122
   13CHL1  H23A  948   1.758   0.060   8.719 -0.8589  1.5772  0.7979
   13CHL1  H23B  949   1.838   0.207   8.708 -1.1892  0.3234 -0.3068
   13CHL1   C24  950   1.956   0.019   8.666 -0.2527 -0.0139 -0.1956
   13CHL1  H24A  951   1.949  -0.085   8.705 -2.4119 -0.1586 -0.8325
   13CHL1  H24B  952   1.928   0.018   8.559  0.6836 -3.1367 -0.5286
   13CHL1   C25  953   2.103   0.061   8.683 -0.2715  0.2704  0.6918
   13CHL1   H25  954   2.119   0.117   8.778 -1.3512 -1.5269  1.9893
   13CHL1   C26  955   2.198  -0.060   8.686  0.4257 -0.0187  0.6160
   13CHL1  H26A  956   2.197  -0.123   8.594 -0.2689  0.9927 -0.1015
   13CHL1  H26B  957   2.301  -0.031   8.714  1.5581 -1.6178 -1.5759
   13CHL1  H26C  958   2.162  -0.120   8.772 -1.5430  0.4338  0.1629
   13CHL1   C27  959   2.128   0.158   8.554 -0.9943 -0.4278  0.5466
   13CHL1  H27A  960   2.067   0.251   8.557 -0.9502 -0.3528 -0.3695
   13CHL1  H27B  961   2.236   0.184   8.555 -1.1292  0.2342 -0.5049
   13CHL1  H27C  962   2.110   0.094   8.465  4.0034 -0.9190 -0.4022
   14CHL1    C3  963   0.278   2.462  10.296 -0.3673 -0.0264  0.4568
   14CHL1    H3  964   0.364   2.526  10.266 -1.4585  0.4556 -1.9509
   14CHL1    O3  965   0.243   2.473  10.431  0.2159 -0.5139 -0.0373
   14CHL1   H3'  966   0.156   2.433  10.439 -0.4172  0.7533 -0.2645
   14CHL1    C4  967   0.163   2.502  10.209  0.0161 -0.2540  0.0183
   14CHL1   H4A  968   0.068   2.454  10.242 -0.4019  0.8428  0.4711
   14CHL1   H4B  969   0.147   2.612  10.218 -0.0843 -0.3745  1.6932
   14CHL1    C5  970   0.192   2.490  10.066  0.4824  0.0501  0.6097
   14CHL1    C6  971   0.193   2.597   9.981  0.1124 -0.2848 -0.1030
   14CHL1    H6  972   0.154   2.691  10.023 -1.5176 -1.6241  1.5282
   14CHL1    C7  973   0.217   2.584   9.833 -0.0005  0.1459  0.0722
   14CHL1   H7A  974   0.146   2.653   9.783 -0.1989  0.1362  0.3348
   14CHL1   H7B  975   0.322   2.616   9.815 -0.7762  0.6343 -4.9173
   14CHL1    C8  976   0.205   2.436   9.780  0.2582  0.1598  0.5350
   14CHL1    H8  977   0.099   2.409   9.760  1.0278 -0.9875 -2.5042
   14CHL1   C14  978   0.270   2.424   9.639  0.1757 -0.4065 -0.0381
   14CHL1   H14  979   0.374   2.462   9.649  0.7747 -2.0853  0.2908
   14CHL1   C15  980   0.204   2.511   9.531 -0.4459 -0.1791  0.4278
   14CHL1  H15A  981   0.094   2.498   9.532 -1.0652  3.8257  0.1487
   14CHL1  H15B  982   0.215   2.618   9.560 -0.3176  0.2544 -1.1161
   14CHL1   C16  983   0.281   2.466   9.403 -0.1615  0.5904 -0.4223
   14CHL1  H16A  984   0.211   2.450   9.319  0.4742  1.4502 -1.1247
   14CHL1  H16B  985   0.354   2.545   9.376  1.4333 -0.0855  1.6503
   14CHL1   C17  986   0.353   2.329   9.438 -0.3309 -0.1418 -0.2751
   14CHL1   H17  987   0.459   2.351   9.463  0.0774 -1.1197 -1.0829
   14CHL1   C13  988   0.295   2.291   9.574  0.3537  0.1546  0.2846
   14CHL1   C18  989   0.165   2.223   9.550  0.8483  0.2983  0.1695
   14CHL1  H18A  990   0.093   2.262   9.475  1.4892  0.9750 -0.1013
   14CHL1  H18B  991   0.170   2.118   9.512  0.1939 -0.0360  0.9607
   14CHL1  H18C  992   0.112   2.215   9.647  0.8021  0.3383  0.1472
   14CHL1   C12  993   0.381   2.207   9.673 -0.3264 -0.1601  0.4323
   14CHL1  H12A  994   0.388   2.099   9.645  0.1229 -0.0690  0.1923
   14CHL1  H12B  995   0.480   2.254   9.688 -0.3023  1.2448 -3.1362
   14CHL1   C11  996   0.302   2.197   9.812 -0.1705 -0.0916 -0.1040
   14CHL1  H11A  997   0.206   2.143   9.804 -1.0093  0.2869  4.6474
   14CHL1  H11B  998   0.361   2.136   9.884 -1.3809  0.0307  1.0275
   14CHL1    C9  999   0.279   2.337   9.879 -0.0673  0.3358 -0.0297
   14CHL1    H9 1000   0.382   2.379   9.885  0.0914  0.6017 -2.9293
   14CHL1   C10 1001   0.229   2.348  10.023  0.6574 -0.3113 -0.4220
   14CHL1   C19 1002   0.102   2.253  10.029  0.3027  0.0993  0.3615
   14CHL1  H19A 1003   0.050   2.261  10.126  0.3290  0.7433  0.3266
   14CHL1  H19B 1004   0.025   2.277   9.952  0.2471 -0.4740  0.2367
   14CHL1  H19C 1005   0.129   2.147  10.014 -1.0641 -0.2000 -0.1481
   14CHL1    C1 1006   0.345   2.286  10.118  0.1116 -0.3971  0.0338
   14CHL1   H1A 1007   0.341   2.176  10.103  1.4411 -0.3091 -1.1835
   14CHL1   H1B 1008   0.440   2.325  10.076  0.7261 -1.7709  0.0940
   14CHL1    C2 1009   0.327   2.319  10.270  0.0851 -0.0658  1.0370
   14CHL1   H2A 1010   0.417   2.291  10.329 -1.1187 -0.0999  2.9442
   14CHL1   H2B 1011   0.253   2.242  10.300  1.1797 -0.6870  2.2247
   14CHL1   C20 1012   0.357   2.224   9.323 -0.2199  0.0878 -0.0343
   14CHL1   H20 1013   0.254   2.190   9.300  0.3624 -0.7225 -1.6275
   14CHL1   C21 1014   0.440   2.111   9.378  0.2357  0.0824  0.0572
   14CHL1  H21A 1015   0.474   2.040   9.299 -1.3748 -1.2248  0.4848
   14CHL1  H21B 1016   0.380   2.041   9.440  1.7026  0.2859  1.8276
   14CHL1  H21C 1017   0.527   2.130   9.445  0.4706  0.5427 -0.3730
   14CHL1   C22 1018   0.429   2.270   9.198 -0.5844  0.0970  0.1689
   14CHL1  H22A 1019   0.388   2.368   9.166 -0.5787  0.4468  1.2105
   14CHL1  H22B 1020   0.538   2.288   9.209 -0.8944  0.8641  2.3803
   14CHL1   C23 1021   0.408   2.171   9.079 -0.1263  0.0927  0.3420
   14CHL1  H23A 1022   0.438   2.068   9.107 -4.7297 -1.4787  0.2607
   14CHL1  H23B 1023   0.300   2.167   9.056  0.1413 -0.8150 -0.9015
   14CHL1   C24 1024   0.480   2.203   8.948  0.3758 -0.5131  0.3907
   14CHL1  H24A 1025   0.454   2.307   8.920 -0.7339 -0.3392  1.9553
   14CHL1  H24B 1026   0.590   2.191   8.963  0.6671 -0.4741 -1.4692
   14CHL1   C25 1027   0.436   2.110   8.827  0.2333 -0.5242  0.2712
   14CHL1   H25 1028   0.325   2.113   8.827  0.2263  3.3406 -0.0333
   14CHL1   C26 1029   0.473   2.156   8.686  0.6885 -0.2148  0.2744
   14CHL1  H26A 1030   0.571   2.206   8.671  0.0171  1.5664  1.4967
   14CHL1  H26B 1031   0.465   2.072   8.614 -0.0959 -0.3314  0.4915
   14CHL1  H26C 1032   0.405   2.239   8.659  0.4705 -0.4761  0.0172
   14CHL1   C27 1033   0.489   1.966   8.850 -0.8740  0.2211 -0.0326
   14CHL1  H27A 1034   0.446   1.885   8.788  0.3900 -3.0859  3.0517
   14CHL1  H27B 1035   0.599   1.964   8.836 -0.9015  2.8370 -1.1226
   14CHL1  H27C 1036   0.468   1.929   8.953 -0.8810 -1.0320 -0.4728
   15CHL1    C3 1037   1.553   1.539  10.176 -0.2280  0.2628 -0.4925
   15CHL1    H3 1038   1.444   1.557  10.161  0.0815  1.3294 -1.6139
   15CHL1    O3 1039   1.570   1.549  10.314  0.1406  0.1837 -0.2346
   15CHL1   H3' 1040   1.662   1.531  10.338  0.3138 -1.1611 -1.7782
   15CHL1    C4 1041   1.602   1.401  10.130 -0.4328 -0.4231 -0.8226
   15CHL1   H4A 1042   1.709   1.375  10.143 -0.3360  0.5700  0.6168
   15CHL1   H4B 1043   1.537   1.331  10.187 -0.3017  0.1487  0.0458
   15CHL1    C5 1044   1.577   1.392   9.980  0.0159 -0.2700  0.5842
   15CHL1    C6 1045   1.495   1.300   9.927  0.4947  0.6235 -0.7839
   15CHL1    H6 1046   1.436   1.251  10.005 -0.1365  0.3373 -1.4259
   15CHL1    C7 1047   1.471   1.274   9.781  0.0814  0.5019  0.1775
   15CHL1   H7A 1048   1.470   1.168   9.749 -0.3278  0.8213 -0.9214
   15CHL1   H7B 1049   1.369   1.313   9.760 -0.7393 -0.3997  2.2056
   15CHL1    C8 1050   1.573   1.349   9.695 -0.0219  0.4972 -0.3263
   15CHL1    H8 1051   1.664   1.290   9.719  0.3263  0.2961 -1.9747
   15CHL1   C14 1052   1.535   1.340   9.551  0.1886  0.0074  0.2372
   15CHL1   H14 1053   1.446   1.403   9.535 -0.5365 -1.6108 -2.9470
   15CHL1   C15 1054   1.487   1.206   9.495  0.2593  0.6704 -0.0079
   15CHL1  H15A 1055   1.547   1.121   9.534  0.0129  0.8134  0.6936
   15CHL1  H15B 1056   1.381   1.195   9.527  0.6301 -0.1791  0.9919
   15CHL1   C16 1057   1.510   1.224   9.347 -0.0512 -0.6456 -0.0314
   15CHL1  H16A 1058   1.587   1.152   9.312  1.3487  0.4349  0.7372
   15CHL1  H16B 1059   1.420   1.193   9.290 -0.4556  1.1398 -0.4292
   15CHL1   C17 1060   1.562   1.373   9.322  0.2339 -0.0587  0.2911
   15CHL1   H17 1061   1.471   1.436   9.313 -1.5236 -2.2463  1.5957
   15CHL1   C13 1062   1.639   1.396   9.449  0.0185 -0.3676 -0.6724
   15CHL1   C18 1063   1.774   1.329   9.449 -0.5591  0.8294 -0.5872
   15CHL1  H18A 1064   1.811   1.335   9.554 -0.1089  0.0373 -0.6929
   15CHL1  H18B 1065   1.761   1.221   9.425  2.9933  0.7238 -2.7178
   15CHL1  H18C 1066   1.849   1.365   9.376 -0.8680 -0.5073 -1.6060
   15CHL1   C12 1067   1.655   1.553   9.483 -0.1111 -0.1254 -0.5419
   15CHL1  H12A 1068   1.742   1.604   9.436  0.6897 -1.0730 -0.1129
   15CHL1  H12B 1069   1.563   1.616   9.477  0.1910  0.3953  0.1541
   15CHL1   C11 1070   1.688   1.570   9.634 -0.0298 -0.3305 -0.2458
   15CHL1  H11A 1071   1.791   1.530   9.640 -0.4408 -1.3428  0.4112
   15CHL1  H11B 1072   1.683   1.674   9.673  1.5288 -0.4587  0.3485
   15CHL1    C9 1073   1.596   1.490   9.741  0.0058  0.7364 -0.5595
   15CHL1    H9 1074   1.496   1.538   9.742 -1.3817 -1.9451  1.5913
   15CHL1   C10 1075   1.641   1.497   9.894 -0.5415 -0.6224 -0.1114
   15CHL1   C19 1076   1.791   1.471   9.898 -0.0495 -0.0203  0.6434
   15CHL1  H19A 1077   1.838   1.496   9.996  0.9713  0.3250  0.0830
   15CHL1  H19B 1078   1.808   1.364   9.871  0.6223  0.5937 -1.4974
   15CHL1  H19C 1079   1.847   1.546   9.839 -0.1232  0.6423  1.3915
   15CHL1    C1 1080   1.600   1.632   9.954  0.2747  0.0254 -0.6146
   15CHL1   H1A 1081   1.658   1.710   9.899  0.8211 -0.8334 -1.2922
   15CHL1   H1B 1082   1.490   1.646   9.944  0.1138  0.2664  1.1717
   15CHL1    C2 1083   1.632   1.649  10.103  1.0272  0.1656  0.3518
   15CHL1   H2A 1084   1.596   1.751  10.129  1.3046 -0.0240  1.5518
   15CHL1   H2B 1085   1.740   1.636  10.128  0.6753 -0.1133  1.8251
   15CHL1   C20 1086   1.638   1.394   9.194 -0.6457  0.6462  0.0339
   15CHL1   H20 1087   1.743   1.359   9.195 -1.2923 -1.4319  0.3139
   15CHL1   C21 1088   1.636   1.541   9.153 -0.0957  0.2953  0.2369
   15CHL1  H21A 1089   1.536   1.586   9.136  0.5144  1.5391 -0.1798
   15CHL1  H21B 1090   1.673   1.556   9.050 -0.9486 -0.9169 -0.2721
   15CHL1  H21C 1091   1.688   1.614   9.219 -0.4791  1.5235 -0.7763
   15CHL1   C22 1092   1.583   1.315   9.072  0.0131  0.1528  0.3512
   15CHL1  H22A 1093   1.661   1.336   8.995  1.1137  1.3353  1.7244
   15CHL1  H22B 1094   1.576   1.205   9.082 -2.9156 -0.0997 -2.7501
   15CHL1   C23 1095   1.447   1.359   9.017 -0.7475  0.0145  0.0981
   15CHL1  H23A 1096   1.376   1.336   9.100 -0.1009 -0.9438  0.4072
   15CHL1  H23B 1097   1.446   1.467   8.991  1.3452  0.1469  0.4229
   15CHL1   C24 1098   1.399   1.283   8.886  0.3838  0.1149 -0.2792
   15CHL1  H24A 1099   1.471   1.292   8.802 -0.3449  0.8402 -0.8394
   15CHL1  H24B 1100   1.396   1.177   8.920 -0.5112 -0.0854 -0.9344
   15CHL1   C25 1101   1.264   1.319   8.831  0.2871 -0.8708 -0.4481
   15CHL1   H25 1102   1.194   1.298   8.915 -0.3539  0.6767 -0.5733
   15CHL1   C26 1103   1.247   1.475   8.809  0.0970  0.0159 -0.5179
   15CHL1  H26A 1104   1.320   1.530   8.746  1.2740  2.1241  2.4535
   15CHL1  H26B 1105   1.146   1.479   8.761  0.5414  1.4017 -1.3951
   15CHL1  H26C 1106   1.247   1.531   8.905 -0.4247  2.3258 -1.7884
   15CHL1   C27 1107   1.230   1.251   8.697 -0.0773 -1.2363  0.4520
   15CHL1  H27A 1108   1.242   1.141   8.687 -0.2613 -1.0286 -3.1685
   15CHL1  H27B 1109   1.120   1.245   8.685 -0.2438  1.7188 -0.0781
   15CHL1  H27C 1110   1.280   1.299   8.611  0.2409 -1.0229  0.7508
   16CHL1    C3 1111   0.657   2.876  10.321  0.7598 -0.5366 -0.3758
   16CHL1    H3 1112   0.684   2.974  10.279  3.2742 -0.8966  0.2464
   16CHL1    O3 1113   0.632   2.907  10.461  0.6261  0.3764  0.7938
   16CHL1   H3' 1114   0.581   2.834  10.496 -0.3150  1.1795  1.1526
   16CHL1    C4 1115   0.533   2.810  10.249  0.2625  0.1119 -0.0254
   16CHL1   H4A 1116   0.516   2.709  10.291  0.2789  0.2982  0.4312
   16CHL1   H4B 1117   0.449   2.875  10.279 -1.2699 -0.3805 -2.8886
   16CHL1    C5 1118   0.559   2.786  10.103 -0.4505 -1.4380 -0.0980
   16CHL1    C6 1119   0.498   2.859  10.010 -0.1801 -0.3548 -0.6831
   16CHL1    H6 1120   0.424   2.932  10.046  0.1849  0.1365 -0.9130
   16CHL1    C7 1121   0.518   2.835   9.865 -0.2568 -0.3116 -0.5633
   16CHL1   H7A 1122   0.416   2.823   9.823 -0.6657 -1.2359  0.6289
   16CHL1   H7B 1123   0.568   2.922   9.818  0.4027 -0.2774  0.1784
   16CHL1    C8 1124   0.607   2.711   9.834  0.6981 -0.3264 -0.0164
   16CHL1    H8 1125   0.544   2.621   9.847 -3.4942  2.1390 -1.2283
   16CHL1   C14 1126   0.662   2.723   9.691  0.6545 -0.5816 -0.7155
   16CHL1   H14 1127   0.721   2.817   9.700 -2.9003  1.6959  0.7902
   16CHL1   C15 1128   0.551   2.754   9.585  0.3821 -0.3214  0.3115
   16CHL1  H15A 1129   0.489   2.662   9.576  2.0664 -1.3161 -2.8795
   16CHL1  H15B 1130   0.497   2.849   9.605  0.6266  0.0856 -0.8727
   16CHL1   C16 1131   0.633   2.761   9.459 -0.0530  0.9167  0.5282
   16CHL1  H16A 1132   0.569   2.724   9.376 -1.6902  0.1257  2.0880
   16CHL1  H16B 1133   0.681   2.860   9.441 -0.0903  0.6312 -1.2970
   16CHL1   C17 1134   0.762   2.661   9.486 -0.5515 -0.5444 -0.6094
   16CHL1   H17 1135   0.849   2.731   9.483  0.3661 -1.6884 -1.3879
   16CHL1   C13 1136   0.744   2.613   9.632 -0.4271  0.3579  0.4300
   16CHL1   C18 1137   0.665   2.481   9.636  0.1761  0.2186  0.0835
   16CHL1  H18A 1138   0.575   2.473   9.572  0.1435 -1.2536  0.2960
   16CHL1  H18B 1139   0.726   2.390   9.618  1.8550  1.2420  0.3492
   16CHL1  H18C 1140   0.631   2.479   9.742  1.0685  0.6421  0.3900
   16CHL1   C12 1141   0.868   2.600   9.723  0.5043  0.2381 -0.2618
   16CHL1  H12A 1142   0.930   2.513   9.691 -1.8838 -1.6841  0.0377
   16CHL1  H12B 1143   0.925   2.690   9.693  1.7573 -0.8995 -1.4231
   16CHL1   C11 1144   0.827   2.594   9.874 -0.1815  0.2509  0.3832
   16CHL1  H11A 1145   0.789   2.491   9.889 -0.4937  0.5278  1.5305
   16CHL1  H11B 1146   0.925   2.606   9.926  0.8697 -2.0982 -0.8282
   16CHL1    C9 1147   0.728   2.700   9.930 -0.6211 -0.2745 -0.7291
   16CHL1    H9 1148   0.771   2.800   9.911 -1.6450  0.4585  0.5919
   16CHL1   C10 1149   0.684   2.697  10.074  0.9653  0.6268 -0.0026
   16CHL1   C19 1150   0.638   2.555  10.113 -0.2773  0.3924 -0.5405
   16CHL1  H19A 1151   0.637   2.547  10.224  0.9774 -0.2012 -0.5543
   16CHL1  H19B 1152   0.548   2.518  10.059  0.8650 -1.2412 -1.4087
   16CHL1  H19C 1153   0.709   2.478  10.077  2.3125  3.0806 -1.6607
   16CHL1    C1 1154   0.801   2.755  10.161  0.1230  0.2426 -0.1366
   16CHL1   H1A 1155   0.886   2.685  10.144 -0.9126 -0.7868 -1.3068
   16CHL1   H1B 1156   0.837   2.855  10.127 -0.9516  1.1787  1.3438
   16CHL1    C2 1157   0.771   2.782  10.307 -1.4378  0.3259 -0.3630
   16CHL1   H2A 1158   0.864   2.828  10.347 -0.8418  0.0985 -1.4238
   16CHL1   H2B 1159   0.746   2.689  10.362  0.9748 -0.5554 -0.6335
   16CHL1   C20 1160   0.791   2.554   9.375 -0.2933 -0.8603  0.5353
   16CHL1   H20 1161   0.716   2.472   9.368 -0.4106 -0.7501  0.5140
   16CHL1   C21 1162   0.938   2.510   9.394  0.7102 -0.2614  0.0723
   16CHL1  H21A 1163   0.946   2.445   9.484  1.7505 -1.6507 -0.9878
   16CHL1  H21B 1164   1.010   2.594   9.385  0.5701 -0.2948 -1.5781
   16CHL1  H21C 1165   0.964   2.443   9.310 -0.9160 -0.4658 -0.2890
   16CHL1   C22 1166   0.788   2.621   9.233 -0.2920 -0.1336  0.2788
   16CHL1  H22A 1167   0.696   2.681   9.217  1.4219  1.7611 -4.5152
   16CHL1  H22B 1168   0.875   2.689   9.221  0.1950 -0.9848 -1.1936
   16CHL1   C23 1169   0.804   2.541   9.104 -0.0805 -0.0734 -0.9738
   16CHL1  H23A 1170   0.904   2.493   9.093 -1.0134 -1.9661 -1.8134
   16CHL1  H23B 1171   0.741   2.451   9.122 -0.0328 -0.0094 -0.4805
   16CHL1   C24 1172   0.760   2.604   8.976  0.2427  0.1077 -0.3441
   16CHL1  H24A 1173   0.650   2.619   8.970  0.0560 -0.2391  1.6517
   16CHL1  H24B 1174   0.825   2.693   8.960  1.3272 -0.4558  0.7028
   16CHL1   C25 1175   0.792   2.522   8.840  0.1133  0.1598 -0.6910
   16CHL1   H25 1176   0.766   2.415   8.857 -1.1014  0.3113 -1.4406
   16CHL1   C26 1177   0.722   2.593   8.718  0.1247 -0.0294 -0.6568
   16CHL1  H26A 1178   0.612   2.580   8.718  0.1273 -0.1989 -2.1213
   16CHL1  H26B 1179   0.734   2.703   8.731 -1.2309 -0.1517  2.4310
   16CHL1  H26C 1180   0.762   2.567   8.617 -0.8880 -1.2918 -0.7531
   16CHL1   C27 1181   0.941   2.522   8.815  0.3304 -0.6666 -1.0340
   16CHL1  H27A 1182   0.968   2.458   8.728  5.2795 -2.4098  1.3954
   16CHL1  H27B 1183   0.988   2.621   8.798  0.7160 -0.8733 -1.1899
   16CHL1  H27C 1184   0.995   2.465   8.893 -1.7831 -0.5743  0.5549
   17CHL1    C3 1185   4.241   6.524  10.481 -0.2722  0.1334 -0.2688
   17CHL1    H3 1186   4.271   6.429  10.431  0.8352  0.8925 -1.0653
   17CHL1    O3 1187   4.194   6.506  10.619 -0.2534  0.4633  0.0888
   17CHL1   H3' 1188   4.198   6.593  10.661  1.1160  0.7111 -0.4780
   17CHL1    C4 1189   4.366   6.618  10.492 -0.6949  0.2247  0.6105
   17CHL1   H4A 1190   4.344   6.705  10.557  0.5638  1.7593 -0.9315
   17CHL1   H4B 1191   4.444   6.555  10.539  0.9632  1.7031 -0.0531
   17CHL1    C5 1192   4.411   6.665  10.354  0.4320  0.0522  0.3612
   17CHL1    C6 1193   4.539   6.655  10.311  0.2937  0.1587 -0.7991
   17CHL1    H6 1194   4.619   6.614  10.374  1.3622 -1.4331 -3.0451
   17CHL1    C7 1195   4.584   6.698  10.176 -0.6324  0.3869 -0.1728
   17CHL1   H7A 1196   4.687   6.740  10.177 -0.0817 -0.8967  1.2566
   17CHL1   H7B 1197   4.588   6.606  10.114  1.0207 -1.0294  1.9113
   17CHL1    C8 1198   4.483   6.783  10.106 -0.1289 -0.0350 -0.0820
   17CHL1    H8 1199   4.488   6.887  10.144 -1.6073  0.0936 -0.1907
   17CHL1   C14 1200   4.531   6.786   9.958  0.1978 -0.5289  0.8223
   17CHL1   H14 1201   4.519   6.684   9.915 -1.2090 -0.2482  0.5047
   17CHL1   C15 1202   4.683   6.811   9.932 -0.2835  0.1301  0.1343
   17CHL1  H15A 1203   4.728   6.898   9.984 -0.9269  0.4419  0.1819
   17CHL1  H15B 1204   4.738   6.720   9.965 -1.9105 -0.7132  0.6185
   17CHL1   C16 1205   4.685   6.841   9.785 -0.1566  0.2521 -0.2626
   17CHL1  H16A 1206   4.741   6.931   9.753  2.6633 -0.6621  1.6987
   17CHL1  H16B 1207   4.730   6.756   9.728 -0.1296 -0.8743  1.3663
   17CHL1   C17 1208   4.534   6.850   9.738  0.5048  0.1511  0.3386
   17CHL1   H17 1209   4.499   6.748   9.712 -2.2444  0.3533  2.8060
   17CHL1   C13 1210   4.450   6.876   9.869 -0.7686  0.1668  1.2239
   17CHL1   C18 1211   4.455   7.023   9.916  0.6169  0.8491 -0.1540
   17CHL1  H18A 1212   4.560   7.060   9.913  2.2352 -3.0465  1.3481
   17CHL1  H18B 1213   4.383   7.082   9.855 -0.8812 -1.6060 -0.8904
   17CHL1  H18C 1214   4.424   7.034  10.022 -0.7708  0.2094 -0.4746
   17CHL1   C12 1215   4.304   6.819   9.880 -0.8104  0.1209  0.0708
   17CHL1  H12A 1216   4.246   6.896   9.824 -2.2354 -0.7845  0.2618
   17CHL1  H12B 1217   4.300   6.722   9.825 -1.9605 -0.9823  1.9791
   17CHL1   C11 1218   4.247   6.809  10.023 -0.6925  0.0616  0.3525
   17CHL1  H11A 1219   4.216   6.907  10.065 -1.4077 -0.8930  2.1517
   17CHL1  H11B 1220   4.153   6.749  10.019 -0.0695 -0.9122  0.1006
   17CHL1    C9 1221   4.341   6.734  10.116  0.4502 -0.1407  0.0963
   17CHL1    H9 1222   4.354   6.630  10.081  2.6322  0.5630 -1.4219
   17CHL1   C10 1223   4.297   6.724  10.266  0.5478 -0.3998 -0.2710
   17CHL1   C19 1224   4.256   6.862  10.329  0.4681  0.0915  0.5515
   17CHL1  H19A 1225   4.337   6.935  10.310  0.1629  0.2817 -0.0445
   17CHL1  H19B 1226   4.167   6.908  10.282  0.3552 -0.7348 -0.0851
   17CHL1  H19C 1227   4.234   6.858  10.438 -0.4436  3.2831  0.5855
   17CHL1    C1 1228   4.180   6.630  10.270 -0.3903  0.4041  1.0294
   17CHL1   H1A 1229   4.100   6.672  10.206 -0.4993 -0.2535  0.7258
   17CHL1   H1B 1230   4.208   6.532  10.224  0.5511  0.4791  1.4172
   17CHL1    C2 1231   4.127   6.592  10.407 -0.3272  0.4661 -0.5294
   17CHL1   H2A 1232   4.042   6.522  10.394  1.0555 -1.2084 -0.9686
   17CHL1   H2B 1233   4.098   6.683  10.463  1.2051 -0.8982  2.7000
   17CHL1   C20 1234   4.500   6.921   9.606  0.6613 -0.6394  0.4142
   17CHL1   H20 1235   4.521   7.028   9.628  1.6583 -0.4079 -1.4663
   17CHL1   C21 1236   4.349   6.912   9.569 -0.1105  0.6264 -0.0898
   17CHL1  H21A 1237   4.333   6.953   9.467 -0.9909 -1.6936 -0.9384
   17CHL1  H21B 1238   4.287   6.970   9.641 -2.6953 -0.3493 -1.4191
   17CHL1  H21C 1239   4.317   6.806   9.575  0.5741  0.4576  0.7256
   17CHL1   C22 1240   4.603   6.882   9.490  0.4326 -0.0431  0.2903
   17CHL1  H22A 1241   4.707   6.898   9.523  0.7397  0.3360 -0.8337
   17CHL1  H22B 1242   4.586   6.777   9.458 -2.4396  0.1993  0.7213
   17CHL1   C23 1243   4.579   6.969   9.368 -0.9757 -0.3783  0.4318
   17CHL1  H23A 1244   4.471   6.963   9.340 -0.7886  0.9512 -0.6995
   17CHL1  H23B 1245   4.610   7.071   9.399  2.1814 -0.7677 -1.0844
   17CHL1   C24 1246   4.680   6.925   9.263 -0.0509  0.1941 -0.2401
   17CHL1  H24A 1247   4.780   6.944   9.307  0.8866 -1.5644 -1.4654
   17CHL1  H24B 1248   4.677   6.814   9.257 -0.9842  0.2588 -1.4150
   17CHL1   C25 1249   4.673   6.994   9.124  0.4624  0.2236  0.5028
   17CHL1   H25 1250   4.674   7.101   9.155  1.5379  0.2418  0.4675
   17CHL1   C26 1251   4.801   6.965   9.040 -0.0102  0.1593  0.1425
   17CHL1  H26A 1252   4.797   7.029   8.950  2.2242 -0.0585 -0.1682
   17CHL1  H26B 1253   4.890   7.000   9.096 -1.3085  0.1800  2.3242
   17CHL1  H26C 1254   4.813   6.860   9.008  1.5384  0.5008 -0.4471
   17CHL1   C27 1255   4.541   6.949   9.065 -0.4186 -0.1603  0.5917
   17CHL1  H27A 1256   4.530   6.838   9.058 -1.4900 -0.0564  0.3871
   17CHL1  H27B 1257   4.455   6.988   9.124  0.4376 -0.5356  2.1503
   17CHL1  H27C 1258   4.523   6.990   8.964  0.8165 -1.2569 -0.1011
   18CHL1    C3 1259   3.015   3.881  10.343 -0.5711  0.3095 -0.4787
   18CHL1    H3 1260   3.064   3.783  10.327  0.1765  0.7588 -1.0027
   18CHL1    O3 1261   3.018   3.895  10.482  0.0392  0.1557  0.0318
   18CHL1   H3' 1262   3.101   3.938  10.504  0.6424 -0.3412 -1.1579
   18CHL1    C4 1263   3.085   3.999  10.278  0.0477 -0.1071  0.1935
   18CHL1   H4A 1264   3.031   4.087  10.320 -1.3066  0.0597 -1.7639
   18CHL1   H4B 1265   3.189   4.010  10.315  0.9932 -1.3131 -1.9300
   18CHL1    C5 1266   3.065   4.013  10.128 -0.3632  0.5655 -0.0076
   18CHL1    C6 1267   3.174   4.007  10.049 -0.2493  1.0597 -0.3384
   18CHL1    H6 1268   3.271   4.020  10.101 -1.4896  1.2515  2.0722
   18CHL1    C7 1269   3.173   4.019   9.894  0.4809 -0.2043 -0.7063
   18CHL1   H7A 1270   3.252   4.085   9.852 -0.9657  1.9719 -0.1617
   18CHL1   H7B 1271   3.185   3.916   9.855 -1.1184 -1.5095  2.0076
   18CHL1    C8 1272   3.033   4.063   9.845 -0.2368 -0.3584 -0.8804
   18CHL1    H8 1273   3.022   4.172   9.860 -0.2605 -0.5185  0.4274
   18CHL1   C14 1274   3.013   4.032   9.696  0.3033 -0.5977  0.2482
   18CHL1   H14 1275   3.030   3.925   9.671 -2.9816 -1.0251 -0.5429
   18CHL1   C15 1276   3.125   4.096   9.611 -0.0737 -0.1911 -0.3453
   18CHL1  H15A 1277   3.134   4.206   9.624  1.0571 -0.3651  0.5081
   18CHL1  H15B 1278   3.224   4.048   9.620 -0.4001 -0.6945  0.7376
   18CHL1   C16 1279   3.074   4.069   9.469 -0.1921  0.2488 -0.2149
   18CHL1  H16A 1280   3.075   4.163   9.410  0.5864 -0.1924 -0.9111
   18CHL1  H16B 1281   3.117   3.983   9.414 -0.0069 -0.8170  1.5262
   18CHL1   C17 1282   2.917   4.038   9.487 -0.3051 -0.3725 -0.0554
   18CHL1   H17 1283   2.918   3.928   9.476 -1.1094 -0.4816  0.8530
   18CHL1   C13 1284   2.881   4.064   9.636  0.6693  0.3361 -0.3289
   18CHL1   C18 1285   2.859   4.221   9.659  0.6769  0.1157  1.1585
   18CHL1  H18A 1286   2.766   4.256   9.610  0.3192  0.9146  2.3605
   18CHL1  H18B 1287   2.864   4.257   9.764  0.9815  1.9622  0.5519
   18CHL1  H18C 1288   2.942   4.274   9.608 -0.9163  1.3833 -0.2017
   18CHL1   C12 1289   2.780   3.980   9.704 -0.4430  0.0604 -0.5122
   18CHL1  H12A 1290   2.678   3.974   9.661 -0.5381 -3.6237 -0.1030
   18CHL1  H12B 1291   2.813   3.875   9.692  0.7715  0.4439 -0.6619
   18CHL1   C11 1292   2.775   4.010   9.856 -0.1716  0.0482 -0.6541
   18CHL1  H11A 1293   2.756   4.118   9.873  0.7943  0.1448 -0.1213
   18CHL1  H11B 1294   2.702   3.942   9.905 -0.6954  0.7089 -0.5007
   18CHL1    C9 1295   2.921   3.993   9.925  0.4332  0.1376 -0.0292
   18CHL1    H9 1296   2.944   3.885   9.911  0.6555  0.2986 -0.9725
   18CHL1   C10 1297   2.920   4.004  10.082  0.9747 -0.7991  0.1565
   18CHL1   C19 1298   2.839   4.132  10.124 -0.0154 -0.1558 -0.2343
   18CHL1  H19A 1299   2.883   4.222  10.076  0.6653  1.3239  2.9283
   18CHL1  H19B 1300   2.738   4.140  10.079 -0.3056 -2.0243  0.0062
   18CHL1  H19C 1301   2.831   4.125  10.235 -0.7176  1.3575 -0.1568
   18CHL1    C1 1302   2.850   3.882  10.143 -0.5126 -0.3057 -0.0441
   18CHL1   H1A 1303   2.741   3.876  10.123 -0.6895  0.9102  0.4925
   18CHL1   H1B 1304   2.905   3.792  10.108  0.7057 -0.1041  1.2410
   18CHL1    C2 1305   2.870   3.874  10.295 -0.4043  0.3504  0.0402
   18CHL1   H2A 1306   2.833   3.775  10.329 -1.5955  0.2836 -1.3362
   18CHL1   H2B 1307   2.808   3.951  10.345  1.5135  1.4073  0.9077
   18CHL1   C20 1308   2.831   4.096   9.368 -0.8482 -0.4260 -0.3478
   18CHL1   H20 1309   2.834   4.207   9.376 -0.2756 -0.5321  1.6965
   18CHL1   C21 1310   2.687   4.054   9.391 -0.1203 -0.7665 -0.8758
   18CHL1  H21A 1311   2.677   3.943   9.391  0.0656 -0.7985  0.4431
   18CHL1  H21B 1312   2.612   4.094   9.320 -2.0094  0.9218  1.8802
   18CHL1  H21C 1313   2.652   4.086   9.491 -1.7443  1.6185 -2.1205
   18CHL1   C22 1314   2.879   4.054   9.226  0.0103 -0.1296 -0.0392
   18CHL1  H22A 1315   2.983   4.089   9.211 -0.1024  0.0548 -0.4199
   18CHL1  H22B 1316   2.878   3.945   9.209  2.1455 -0.5269  1.9066
   18CHL1   C23 1317   2.793   4.123   9.118  0.7454  1.6182 -0.6151
   18CHL1  H23A 1318   2.692   4.076   9.115  1.8862 -1.1036  0.4848
   18CHL1  H23B 1319   2.790   4.234   9.121  1.6940  1.6325  0.1323
   18CHL1   C24 1320   2.859   4.091   8.977 -0.6680 -0.5328 -0.5281
   18CHL1  H24A 1321   2.951   4.154   8.981  0.2972 -1.8743 -0.6901
   18CHL1  H24B 1322   2.882   3.982   8.984  0.9041 -0.1453  2.1985
   18CHL1   C25 1323   2.776   4.114   8.844  0.3684  0.3397 -0.0635
   18CHL1   H25 1324   2.682   4.056   8.858  0.5226  0.3046  0.8522
   18CHL1   C26 1325   2.751   4.255   8.804  0.0703 -0.2907  0.9670
   18CHL1  H26A 1326   2.843   4.314   8.783  1.7435 -2.4691  1.7341
   18CHL1  H26B 1327   2.693   4.266   8.710  3.4014  0.9347 -1.0996
   18CHL1  H26C 1328   2.693   4.312   8.880 -0.2329 -0.2167  0.6817
   18CHL1   C27 1329   2.853   4.054   8.729 -1.0261 -0.3941  0.5529
   18CHL1  H27A 1330   2.851   3.943   8.732  0.9417 -0.5144 -0.8996
   18CHL1  H27B 1331   2.800   4.079   8.635  1.0472 -0.1073 -0.6001
   18CHL1  H27C 1332   2.962   4.075   8.730 -0.7668 -1.5953 -0.0643
   19CHL1    C3 1333   0.287   0.834  10.186 -0.1690 -0.4431  0.2631
   19CHL1    H3 1334   0.244   0.738  10.220  0.1124 -0.2568  1.1711
   19CHL1    O3 1335   0.323   0.921  10.289  0.0032 -0.0178  0.5421
   19CHL1   H3' 1336   0.245   0.932  10.344 -0.3890 -0.1833  0.0277
   19CHL1    C4 1337   0.414   0.813  10.098 -0.4480 -0.3194  0.4117
   19CHL1   H4A 1338   0.436   0.922  10.091 -0.4401 -0.0160  3.5756
   19CHL1   H4B 1339   0.504   0.773  10.150 -0.7935 -2.8662 -0.8205
   19CHL1    C5 1340   0.393   0.745   9.965 -0.0505  1.0031  0.2295
   19CHL1    C6 1341   0.467   0.638   9.925 -0.3956  0.1787 -0.0214
   19CHL1    H6 1342   0.552   0.606   9.986  0.6409  3.5679  0.5311
   19CHL1    C7 1343   0.446   0.554   9.794  0.7238 -1.0943 -0.1516
   19CHL1   H7A 1344   0.544   0.527   9.748  0.7482 -0.3937 -0.5308
   19CHL1   H7B 1345   0.397   0.458   9.819 -0.0240 -0.9494 -1.0080
   19CHL1    C8 1346   0.358   0.635   9.690  0.6004  0.4910 -0.1102
   19CHL1    H8 1347   0.428   0.717   9.663  0.8298 -0.0289 -1.1380
   19CHL1   C14 1348   0.309   0.544   9.583  0.3723 -0.4625  1.1723
   19CHL1   H14 1349   0.237   0.475   9.632  1.0763 -0.3806  2.3588
   19CHL1   C15 1350   0.412   0.457   9.512 -0.6078 -0.0668  0.2172
   19CHL1  H15A 1351   0.513   0.500   9.499 -0.8672 -0.1484 -2.6283
   19CHL1  H15B 1352   0.429   0.366   9.574  5.7308 -0.2379 -1.1411
   19CHL1   C16 1353   0.360   0.417   9.375  0.2676 -0.4170 -1.0362
   19CHL1  H16A 1354   0.437   0.450   9.302 -0.3059  0.4700 -1.2603
   19CHL1  H16B 1355   0.344   0.308   9.359  0.7206 -0.7938  0.8357
   19CHL1   C17 1356   0.226   0.503   9.362  0.0870 -0.2006  0.0664
   19CHL1   H17 1357   0.139   0.440   9.390 -0.7305 -0.0846 -2.0245
   19CHL1   C13 1358   0.239   0.620   9.472  0.1386 -0.3317  0.2517
   19CHL1   C18 1359   0.327   0.733   9.415 -0.1956  0.2337  0.0989
   19CHL1  H18A 1360   0.275   0.788   9.334 -1.2608  0.3949  0.8652
   19CHL1  H18B 1361   0.344   0.808   9.495  1.0626 -0.8245  0.8643
   19CHL1  H18C 1362   0.419   0.695   9.365 -1.2503 -1.4523 -0.6435
   19CHL1   C12 1363   0.105   0.674   9.541  0.7285 -0.5477  0.7197
   19CHL1  H12A 1364   0.058   0.736   9.463 -1.2709 -0.6087  1.8110
   19CHL1  H12B 1365   0.036   0.590   9.563 -1.3503  0.8972 -0.0422
   19CHL1   C11 1366   0.128   0.757   9.663  0.0184  0.1279 -0.0448
   19CHL1  H11A 1367   0.162   0.858   9.629  0.8206 -0.6968 -1.7882
   19CHL1  H11B 1368   0.033   0.771   9.719 -0.1897  0.4132 -0.4610
   19CHL1    C9 1369   0.236   0.704   9.762  0.2130  0.3064 -0.4948
   19CHL1    H9 1370   0.179   0.616   9.798 -1.5713  0.7941 -1.9355
   19CHL1   C10 1371   0.272   0.791   9.880  0.0105  0.0195 -0.5880
   19CHL1   C19 1372   0.305   0.928   9.824 -0.0478  0.3457 -0.1977
   19CHL1  H19A 1373   0.382   0.914   9.746 -0.5920 -5.0281 -0.2092
   19CHL1  H19B 1374   0.217   0.983   9.786 -0.9358  0.7318  2.1939
   19CHL1  H19C 1375   0.351   0.994   9.901  0.4558 -2.0880  1.7306
   19CHL1    C1 1376   0.155   0.816   9.973  0.0936  0.2883 -0.9948
   19CHL1   H1A 1377   0.072   0.872   9.923 -0.0566 -0.0907 -1.1743
   19CHL1   H1B 1378   0.115   0.718  10.006  1.0530  0.6805  1.5757
   19CHL1    C2 1379   0.181   0.903  10.101  0.5277 -0.6705  0.2159
   19CHL1   H2A 1380   0.083   0.912  10.152  1.3001 -1.0732  1.8252
   19CHL1   H2B 1381   0.202   1.010  10.080  1.0251  0.0925  3.9177
   19CHL1   C20 1382   0.200   0.545   9.215 -0.1954 -0.4992  0.2244
   19CHL1   H20 1383   0.276   0.623   9.197  0.3780 -1.0942  0.0129
   19CHL1   C21 1384   0.061   0.608   9.200  0.2672 -0.2265  0.1709
   19CHL1  H21A 1385  -0.022   0.540   9.229 -2.1830  1.3655 -2.5596
   19CHL1  H21B 1386   0.040   0.640   9.096 -2.2356 -1.7225  0.1453
   19CHL1  H21C 1387   0.045   0.702   9.256  0.9719  0.1665 -0.2593
   19CHL1   C22 1388   0.222   0.426   9.112  0.1759 -0.2445 -0.1055
   19CHL1  H22A 1389   0.324   0.382   9.116  0.2899 -0.0549 -0.7989
   19CHL1  H22B 1390   0.152   0.345   9.142  0.7485 -0.7843 -0.1938
   19CHL1   C23 1391   0.208   0.459   8.964  0.4622  0.0290  0.4592
   19CHL1  H23A 1392   0.121   0.525   8.946  1.4142  1.4760  0.9793
   19CHL1  H23B 1393   0.298   0.512   8.925 -0.2190  0.2127 -0.9519
   19CHL1   C24 1394   0.197   0.339   8.865  0.0919 -0.0984  0.3283
   19CHL1  H24A 1395   0.292   0.294   8.830 -0.2876  0.1956 -1.1629
   19CHL1  H24B 1396   0.139   0.268   8.928 -0.9010  0.9597  0.6565
   19CHL1   C25 1397   0.113   0.359   8.743  0.4046 -0.2284  0.0912
   19CHL1   H25 1398   0.019   0.408   8.777 -0.8327 -2.6487  0.3637
   19CHL1   C26 1399   0.176   0.460   8.646  0.6128 -0.4798 -0.4545
   19CHL1  H26A 1400   0.099   0.498   8.575  1.6600 -1.4283 -2.1843
   19CHL1  H26B 1401   0.226   0.542   8.701 -1.2749  0.6444 -0.3281
   19CHL1  H26C 1402   0.257   0.404   8.594  1.0605  0.2314 -0.5259
   19CHL1   C27 1403   0.087   0.227   8.680 -0.5049 -0.0399 -0.1401
   19CHL1  H27A 1404   0.180   0.172   8.659 -0.0219  0.9384 -0.6561
   19CHL1  H27B 1405   0.029   0.168   8.754  0.9132 -1.0445  0.1906
   19CHL1  H27C 1406   0.020   0.232   8.591 -1.4284 -1.4717  0.4373
   20CHL1    C3 1407   2.685   2.257  10.435 -0.5842 -0.8599  0.1717
   20CHL1    H3 1408   2.629   2.353  10.437  0.0930 -0.4619  1.9009
   20CHL1    O3 1409   2.726   2.216  10.568  0.0936 -0.0948 -0.6081
   20CHL1   H3' 1410   2.642   2.217  10.614  0.9284  0.4064  0.9936
   20CHL1    C4 1411   2.609   2.143  10.379  0.5397  0.4259  0.0320
   20CHL1   H4A 1412   2.674   2.054  10.391  1.2360  0.7790 -0.8736
   20CHL1   H4B 1413   2.525   2.123  10.447  0.9810 -0.7891  0.2402
   20CHL1    C5 1414   2.567   2.165  10.236  0.0964 -0.0744  0.5333
   20CHL1    C6 1415   2.445   2.166  10.193 -0.2322  0.0146  0.1610
   20CHL1    H6 1416   2.357   2.163  10.259 -1.2073  0.0864 -1.1067
   20CHL1    C7 1417   2.400   2.165  10.047 -0.3319 -0.7484  0.5784
   20CHL1   H7A 1418   2.325   2.086  10.025  2.4153 -2.7523 -2.7776
   20CHL1   H7B 1419   2.348   2.261  10.026 -2.1487 -0.9653  3.5918
   20CHL1    C8 1420   2.516   2.143   9.950 -0.4230  0.4772 -0.2129
   20CHL1    H8 1421   2.533   2.034   9.961 -0.4967  0.3724 -1.0800
   20CHL1   C14 1422   2.481   2.173   9.804  0.0003 -0.7307  0.0287
   20CHL1   H14 1423   2.463   2.283   9.802 -1.4036 -0.8345  2.2226
   20CHL1   C15 1424   2.350   2.114   9.746 -0.0788  1.0409  0.8164
   20CHL1  H15A 1425   2.352   2.011   9.788  2.3048  0.7578  0.1466
   20CHL1  H15B 1426   2.255   2.165   9.774 -0.8025  0.2478 -0.1444
   20CHL1   C16 1427   2.377   2.109   9.600  0.0492 -0.0565  0.0822
   20CHL1  H16A 1428   2.370   2.005   9.563  1.4573 -0.6957  1.5167
   20CHL1  H16B 1429   2.311   2.169   9.533  1.2901  0.3646 -0.8144
   20CHL1   C17 1430   2.525   2.175   9.571 -0.0316  0.2988 -0.0046
   20CHL1   H17 1431   2.510   2.285   9.569  1.3627  0.5275  0.8672
   20CHL1   C13 1432   2.597   2.147   9.705 -0.1257  0.0493 -0.4422
   20CHL1   C18 1433   2.642   2.000   9.723  0.5309  0.7575 -0.2757
   20CHL1  H18A 1434   2.557   1.934   9.694  1.0514 -0.6274  1.2326
   20CHL1  H18B 1435   2.726   1.968   9.658 -0.1739 -0.9622 -0.3796
   20CHL1  H18C 1436   2.668   1.962   9.823  0.2061  2.8225  0.6476
   20CHL1   C12 1437   2.716   2.253   9.745 -0.0927  0.8281  0.3893
   20CHL1  H12A 1438   2.791   2.273   9.665  1.8246 -0.2181  1.8578
   20CHL1  H12B 1439   2.668   2.353   9.747 -2.8793 -0.3806  4.2127
   20CHL1   C11 1440   2.762   2.211   9.884  0.6710  0.0842 -0.2915
   20CHL1  H11A 1441   2.786   2.103   9.888  2.1425  0.4402  2.1639
   20CHL1  H11B 1442   2.838   2.283   9.921 -0.0976  0.1007  1.3508
   20CHL1    C9 1443   2.647   2.217   9.997  0.2159 -0.5292  0.4098
   20CHL1    H9 1444   2.622   2.326   9.997  3.2623  0.2400  0.4776
   20CHL1   C10 1445   2.687   2.185  10.146 -0.1447  0.1171  0.0771
   20CHL1   C19 1446   2.776   2.059  10.141  0.0090  0.0271 -0.0976
   20CHL1  H19A 1447   2.801   2.047  10.248  1.4051  1.0154 -0.2884
   20CHL1  H19B 1448   2.734   1.965  10.099 -1.0407  0.9120 -1.1059
   20CHL1  H19C 1449   2.881   2.067  10.105  1.0219 -2.1194  2.0697
   20CHL1    C1 1450   2.772   2.299  10.201 -1.3556  0.1518  0.6297
   20CHL1   H1A 1451   2.868   2.296  10.145 -0.6154 -1.2640  1.9138
   20CHL1   H1B 1452   2.715   2.393  10.182 -0.2370  0.9734  1.1840
   20CHL1    C2 1453   2.809   2.284  10.346  0.0405  0.1321  0.4648
   20CHL1   H2A 1454   2.865   2.374  10.380 -1.0284  1.0108 -0.0853
   20CHL1   H2B 1455   2.886   2.206  10.367 -0.2731 -0.1569  0.5577
   20CHL1   C20 1456   2.592   2.129   9.444  0.2123  0.2331  0.2034
   20CHL1   H20 1457   2.589   2.018   9.436 -0.7689  0.3580 -1.5782
   20CHL1   C21 1458   2.736   2.171   9.441  0.5620 -0.3755  0.3026
   20CHL1  H21A 1459   2.736   2.282   9.449 -1.1991 -0.3154 -0.2709
   20CHL1  H21B 1460   2.791   2.149   9.347 -1.7141  1.8527 -1.6803
   20CHL1  H21C 1461   2.785   2.121   9.528 -0.4623  0.0089  1.1079
   20CHL1   C22 1462   2.508   2.166   9.319  0.1149 -0.1660 -0.0801
   20CHL1  H22A 1463   2.399   2.155   9.332 -0.1122  1.3340 -0.5781
   20CHL1  H22B 1464   2.530   2.270   9.288  2.6183 -0.3902  0.7039
   20CHL1   C23 1465   2.541   2.071   9.201  0.2017  0.4182  0.6247
   20CHL1  H23A 1466   2.640   2.101   9.159  0.5252 -2.9708 -1.3712
   20CHL1  H23B 1467   2.552   1.967   9.238  0.0303 -0.4084 -1.4823
   20CHL1   C24 1468   2.435   2.074   9.089 -0.2934 -0.8471 -0.4028
   20CHL1  H24A 1469   2.331   2.060   9.125  0.2224  0.8713  2.0006
   20CHL1  H24B 1470   2.437   2.180   9.054 -1.8745 -0.9446 -0.8623
   20CHL1   C25 1471   2.456   2.001   8.962 -0.5281  0.3470  0.4283
   20CHL1   H25 1472   2.447   1.893   8.988 -0.7696  0.1116 -0.5723
   20CHL1   C26 1473   2.354   2.034   8.853 -0.0021 -0.3630 -0.3928
   20CHL1  H26A 1474   2.355   2.137   8.810 -3.2743 -0.2965 -0.6054
   20CHL1  H26B 1475   2.362   1.966   8.765  0.5621  0.1245 -0.7234
   20CHL1  H26C 1476   2.252   2.016   8.893 -1.3644  0.9889 -2.9673
   20CHL1   C27 1477   2.596   2.021   8.904 -0.5986  0.2857  0.0455
   20CHL1  H27A 1478   2.604   2.130   8.883 -2.5394  0.5274  0.3757
   20CHL1  H27B 1479   2.679   1.996   8.973 -0.1756  0.0588 -0.5445
   20CHL1  H27C 1480   2.616   1.963   8.812  2.4423  0.0901  0.7448
   21CHL1    C3 1481   1.015   4.677  10.281  0.8414 -0.7247 -0.1220
   21CHL1    H3 1482   1.122   4.647  10.286  0.3677 -3.0320 -2.1167
   21CHL1    O3 1483   0.969   4.647  10.411 -0.2664 -0.4568 -0.2667
   21CHL1   H3' 1484   1.003   4.713  10.471  1.4463 -1.7174  0.2241
   21CHL1    C4 1485   0.993   4.830  10.249 -0.2502  0.3365  0.1181
   21CHL1   H4A 1486   0.888   4.853  10.279 -0.1102 -1.7263  2.5501
   21CHL1   H4B 1487   1.048   4.883  10.330 -3.3906  1.7202  1.5526
   21CHL1    C5 1488   1.046   4.859  10.110  0.0212 -0.4262 -0.2945
   21CHL1    C6 1489   1.142   4.948  10.086  0.0979  0.0109  0.6076
   21CHL1    H6 1490   1.184   5.006  10.169  0.6967  1.6827 -0.8080
   21CHL1    C7 1491   1.215   4.974   9.954  0.5590 -0.1122  0.4889
   21CHL1   H7A 1492   1.244   5.080   9.938 -0.7932 -0.2238 -4.0005
   21CHL1   H7B 1493   1.317   4.929   9.961 -0.2993 -1.9341  2.9917
   21CHL1    C8 1494   1.132   4.912   9.834  0.2947  0.4844  0.3842
   21CHL1    H8 1495   1.045   4.980   9.819 -1.0572 -0.5617  2.9495
   21CHL1   C14 1496   1.212   4.911   9.708  0.7275  0.0975 -0.0148
   21CHL1   H14 1497   1.295   4.840   9.724 -0.3588 -1.0930  0.4661
   21CHL1   C15 1498   1.267   5.040   9.657 -0.3899 -0.0487 -0.0783
   21CHL1  H15A 1499   1.192   5.121   9.671  1.5968  1.5705  1.8198
   21CHL1  H15B 1500   1.360   5.076   9.706  0.5288 -0.9031 -1.1293
   21CHL1   C16 1501   1.295   5.006   9.511 -0.5375 -0.3018  0.4782
   21CHL1  H16A 1502   1.267   5.096   9.453  1.3739 -0.7424 -1.2284
   21CHL1  H16B 1503   1.404   4.985   9.504 -1.0320 -2.8928 -0.9413
   21CHL1   C17 1504   1.229   4.873   9.475  0.1710  0.3246  0.6766
   21CHL1   H17 1505   1.297   4.787   9.493 -0.8476 -0.5195  0.5350
   21CHL1   C13 1506   1.126   4.848   9.591 -0.5614  0.3530 -0.3868
   21CHL1   C18 1507   1.004   4.927   9.560  0.6222  0.1479 -1.0402
   21CHL1  H18A 1508   1.005   5.037   9.539 -1.8421 -0.0415 -2.5761
   21CHL1  H18B 1509   0.961   4.879   9.469 -0.1247 -4.3812  1.4367
   21CHL1  H18C 1510   0.925   4.912   9.636 -1.2284  0.7639 -2.7282
   21CHL1   C12 1511   1.097   4.699   9.629 -0.2473  0.2622 -0.4998
   21CHL1  H12A 1512   1.034   4.656   9.548 -2.1056  2.0664 -0.1129
   21CHL1  H12B 1513   1.185   4.632   9.639 -0.1253  0.2387 -1.5994
   21CHL1   C11 1514   1.016   4.691   9.756  0.0069  0.4642  1.0253
   21CHL1  H11A 1515   0.912   4.721   9.730 -0.0763  0.1917  1.0412
   21CHL1  H11B 1516   1.008   4.582   9.778 -1.1983  0.2452 -0.3097
   21CHL1    C9 1517   1.072   4.773   9.874  0.2653  0.1360 -1.0581
   21CHL1    H9 1518   1.164   4.717   9.901  1.1605  2.0266 -0.0637
   21CHL1   C10 1519   0.988   4.767  10.006 -0.1700 -0.1472  0.5789
   21CHL1   C19 1520   0.843   4.810   9.970 -0.3740 -0.2671 -1.3396
   21CHL1  H19A 1521   0.778   4.825  10.059  0.9143  0.9237 -0.5473
   21CHL1  H19B 1522   0.829   4.902   9.910 -1.3523  0.9136  0.5934
   21CHL1  H19C 1523   0.789   4.728   9.917  1.3329 -1.3455 -1.5131
   21CHL1    C1 1524   0.988   4.614  10.043 -0.3060  0.0207  0.2432
   21CHL1   H1A 1525   0.931   4.551   9.971  0.9844 -0.3207 -0.5082
   21CHL1   H1B 1526   1.093   4.579  10.041 -0.5779 -0.8732  0.7831
   21CHL1    C2 1527   0.939   4.590  10.186  0.1770  0.2257  0.0993
   21CHL1   H2A 1528   0.942   4.483  10.214 -0.3989  0.2296  0.1859
   21CHL1   H2B 1529   0.831   4.606  10.205  0.0031 -0.3251 -0.4060
   21CHL1   C20 1530   1.184   4.867   9.330 -0.5646  0.2886 -0.2582
   21CHL1   H20 1531   1.088   4.922   9.316 -2.3618 -2.7640 -0.9093
   21CHL1   C21 1532   1.175   4.718   9.285  0.3212 -0.1241 -0.6741
   21CHL1  H21A 1533   1.092   4.670   9.342 -0.7922  1.2262 -1.1085
   21CHL1  H21B 1534   1.265   4.655   9.299  0.0881 -0.2665  0.2830
   21CHL1  H21C 1535   1.153   4.719   9.176 -2.3910  3.4132 -0.2753
   21CHL1   C22 1536   1.285   4.935   9.231 -0.1781 -0.0972 -0.3775
   21CHL1  H22A 1537   1.304   5.042   9.254 -1.6979  0.3073 -0.8681
   21CHL1  H22B 1538   1.380   4.882   9.255 -0.4193 -0.5879 -0.5012
   21CHL1   C23 1539   1.256   4.934   9.079  0.5950 -0.5863 -0.3985
   21CHL1  H23A 1540   1.334   4.988   9.022  0.7236  0.9933  1.2035
   21CHL1  H23B 1541   1.248   4.832   9.035 -0.4084 -1.2514  1.2283
   21CHL1   C24 1542   1.124   5.022   9.050  0.3715 -0.3120  0.3393
   21CHL1  H24A 1543   1.037   4.992   9.112 -0.5159  0.7215 -0.3489
   21CHL1  H24B 1544   1.148   5.123   9.090 -0.7330 -0.0419  0.3570
   21CHL1   C25 1545   1.093   5.028   8.906 -0.2380 -0.0859  0.2717
   21CHL1   H25 1546   1.181   5.047   8.842 -0.1929 -0.7002  0.1413
   21CHL1   C26 1547   1.046   4.895   8.846  0.7263 -0.0758  0.0849
   21CHL1  H26A 1548   1.015   4.920   8.742  4.0641 -1.4109 -1.3668
   21CHL1  H26B 1549   1.131   4.824   8.838  1.2975  0.5389  0.6685
   21CHL1  H26C 1550   0.950   4.862   8.892 -0.2806  4.0087  1.2836
   21CHL1   C27 1551   0.988   5.143   8.881 -0.7920  0.7600 -0.7556
   21CHL1  H27A 1552   0.887   5.125   8.922 -0.4284 -1.0196 -0.5750
   21CHL1  H27B 1553   1.026   5.242   8.914  1.4279 -0.7163  1.5361
   21CHL1  H27C 1554   0.973   5.158   8.772 -0.6592  1.6410 -0.6629
   22CHL1    C3 1555   3.048   5.410  10.122  0.4154  0.0284 -0.5749
   22CHL1    H3 1556   3.155   5.383  10.103  0.3991 -0.9001  0.5372
   22CHL1    O3 1557   3.011   5.383  10.259  0.2016  0.1773 -0.2493
   22CHL1   H3' 1558   2.916   5.391  10.245  0.5714  0.4878 -3.1749
   22CHL1    C4 1559   3.006   5.554  10.085  0.5093  0.3988 -0.3608
   22CHL1   H4A 1560   2.899   5.563  10.114  0.2385  0.3360 -1.3269
   22CHL1   H4B 1561   3.065   5.622  10.150 -0.3873  1.6437 -0.8089
   22CHL1    C5 1562   3.025   5.585   9.941 -0.2889 -0.7481  0.8006
   22CHL1    C6 1563   3.104   5.693   9.904  0.5848 -0.3053  0.6374
   22CHL1    H6 1564   3.150   5.764   9.974  0.6938  2.7299 -2.2344
   22CHL1    C7 1565   3.128   5.734   9.762  0.2881  0.7852 -0.8189
   22CHL1   H7A 1566   3.128   5.844   9.745 -0.3872  0.8697 -0.3125
   22CHL1   H7B 1567   3.231   5.702   9.736  0.7273  1.5663 -0.1149
   22CHL1    C8 1568   3.033   5.654   9.664 -0.3324 -0.4646 -0.3536
   22CHL1    H8 1569   2.934   5.703   9.672 -0.6493 -1.0571 -0.5454
   22CHL1   C14 1570   3.076   5.658   9.515 -0.1795 -0.3622  0.9980
   22CHL1   H14 1571   3.167   5.594   9.518 -1.6441 -2.7086 -1.4431
   22CHL1   C15 1572   3.109   5.797   9.463 -1.2947  0.5825  0.2954
   22CHL1  H15A 1573   3.033   5.873   9.492  0.2510  2.8942 -1.3932
   22CHL1  H15B 1574   3.207   5.837   9.496 -1.6793 -0.0605  2.3651
   22CHL1   C16 1575   3.108   5.781   9.306  0.4033 -0.1994 -0.0820
   22CHL1  H16A 1576   3.027   5.840   9.259 -0.8913 -1.0504  0.9896
   22CHL1  H16B 1577   3.204   5.794   9.252  0.0599  4.2615 -0.0038
   22CHL1   C17 1578   3.071   5.634   9.277  0.8435  0.2596  0.3908
   22CHL1   H17 1579   3.164   5.574   9.290  1.7410  1.7417  1.0735
   22CHL1   C13 1580   2.989   5.594   9.406  0.2067  0.3343  0.0277
   22CHL1   C18 1581   2.844   5.663   9.396 -0.7803  0.1504 -0.6257
   22CHL1  H18A 1582   2.788   5.615   9.313  0.9455 -3.7494  0.2045
   22CHL1  H18B 1583   2.784   5.649   9.489 -1.5046  0.5224 -1.0239
   22CHL1  H18C 1584   2.852   5.773   9.399 -2.7931  0.3593  2.2129
   22CHL1   C12 1585   2.992   5.442   9.447  0.1586 -0.2427 -0.4265
   22CHL1  H12A 1586   2.922   5.381   9.385 -0.3871 -1.3772  1.2348
   22CHL1  H12B 1587   3.089   5.395   9.423  1.4906  0.5371  2.8997
   22CHL1   C11 1588   2.942   5.420   9.593  0.6968  0.5408  0.0945
   22CHL1  H11A 1589   2.833   5.438   9.608  0.7213  0.1565  0.7772
   22CHL1  H11B 1590   2.954   5.312   9.615  0.5751  0.6112  0.5233
   22CHL1    C9 1591   3.018   5.506   9.702  0.2851 -0.5027 -0.3902
   22CHL1    H9 1592   3.119   5.460   9.701 -0.4980 -2.3116 -0.7281
   22CHL1   C10 1593   2.968   5.480   9.840  0.2939 -0.2883 -0.1791
   22CHL1   C19 1594   2.812   5.485   9.854 -0.7831 -0.0541 -0.2078
   22CHL1  H19A 1595   2.765   5.390   9.819 -2.4436  0.5653  0.2658
   22CHL1  H19B 1596   2.789   5.488   9.963  3.4192 -0.3617  0.8614
   22CHL1  H19C 1597   2.759   5.562   9.793 -4.2260 -3.0027 -1.2912
   22CHL1    C1 1598   3.005   5.335   9.886 -0.1234 -0.0592  0.3827
   22CHL1   H1A 1599   2.958   5.256   9.824  1.4699  0.2870 -1.3601
   22CHL1   H1B 1600   3.114   5.324   9.866 -0.0779  1.5571 -0.4347
   22CHL1    C2 1601   2.981   5.304  10.029 -0.3319 -0.2175 -0.7908
   22CHL1   H2A 1602   3.016   5.202  10.055 -0.1689 -0.3295 -1.4254
   22CHL1   H2B 1603   2.872   5.297  10.050 -0.2585 -1.4547 -0.7776
   22CHL1   C20 1604   3.014   5.616   9.141  0.2752 -0.2175  0.0513
   22CHL1   H20 1605   2.934   5.691   9.127 -0.6155 -0.9103  1.2557
   22CHL1   C21 1606   2.960   5.479   9.127 -0.5973  0.0634  0.5097
   22CHL1  H21A 1607   2.880   5.458   9.202 -1.1015 -1.7508 -0.4545
   22CHL1  H21B 1608   3.030   5.397   9.100 -2.2111 -0.4851 -2.6090
   22CHL1  H21C 1609   2.909   5.486   9.028 -1.1765 -1.1500  0.6988
   22CHL1   C22 1610   3.124   5.658   9.029  0.7272 -0.0622 -0.5940
   22CHL1  H22A 1611   3.153   5.763   9.051  0.5885  0.9012 -4.3734
   22CHL1  H22B 1612   3.211   5.595   9.057  2.0486  2.5247  1.6125
   22CHL1   C23 1613   3.075   5.645   8.882 -0.1447  0.4100 -0.1728
   22CHL1  H23A 1614   3.092   5.539   8.853  3.6832  1.0306 -0.7369
   22CHL1  H23B 1615   2.968   5.673   8.879 -0.2911 -0.0031  0.8911
   22CHL1   C24 1616   3.162   5.726   8.787 -0.2613 -0.2999 -0.1494
   22CHL1  H24A 1617   3.170   5.832   8.819 -2.0070 -0.4730  1.0212
   22CHL1  H24B 1618   3.265   5.685   8.796 -0.4355 -0.3560  2.1365
   22CHL1   C25 1619   3.118   5.705   8.640 -0.2461 -0.0278 -0.2540
   22CHL1   H25 1620   3.150   5.606   8.602 -0.7431  0.9227 -3.5409
   22CHL1   C26 1621   2.970   5.741   8.621  0.3705 -0.1162  0.4321
   22CHL1  H26A 1622   2.937   5.720   8.517 -0.4582  2.3439  0.1348
   22CHL1  H26B 1623   2.898   5.681   8.681 -2.6540  1.5792 -1.2604
   22CHL1  H26C 1624   2.954   5.850   8.633 -0.7237 -0.1870 -0.2412
   22CHL1   C27 1625   3.204   5.791   8.546 -0.3235 -0.0115 -0.5114
   22CHL1  H27A 1626   3.181   5.899   8.561 -3.6859 -0.6968  0.0655
   22CHL1  H27B 1627   3.311   5.781   8.574  0.5374 -1.5596 -3.8022
   22CHL1  H27C 1628   3.196   5.768   8.438 -0.4118 -1.3985 -0.2247
   23CHL1    C3 1629   4.741   1.059  10.304  0.2933  0.4568 -0.3394
   23CHL1    H3 1630   4.810   0.974  10.285 -1.5782 -1.2317  0.0536
   23CHL1    O3 1631   4.708   1.072  10.439  0.0357  0.0826 -0.3834
   23CHL1   H3' 1632   4.647   1.144  10.454  1.5339  0.9160  2.1138
   23CHL1    C4 1633   4.802   1.195  10.252 -0.0994  0.7002  0.4973
   23CHL1   H4A 1634   4.732   1.274  10.288  0.6084  0.7961  1.7234
   23CHL1   H4B 1635   4.898   1.215  10.304  0.4046 -0.0182 -0.1465
   23CHL1    C5 1636   4.826   1.197  10.106  0.3307 -0.5662 -0.3389
   23CHL1    C6 1637   4.951   1.228  10.057  0.4231  0.3279 -0.0537
   23CHL1    H6 1638   5.035   1.251  10.124  1.3105 -2.1100 -0.2356
   23CHL1    C7 1639   4.982   1.246   9.907  0.9283 -0.2844  0.4291
   23CHL1   H7A 1640   5.019   1.350   9.914 -0.6981  0.3409  0.1470
   23CHL1   H7B 1641   5.065   1.180   9.874 -0.1250 -1.3102 -0.2384
   23CHL1    C8 1642   4.849   1.228   9.816 -0.7127  0.0926  1.0920
   23CHL1    H8 1643   4.809   1.332   9.812 -0.1971  0.2744  0.5883
   23CHL1   C14 1644   4.892   1.188   9.672 -0.5637 -0.2937 -0.1885
   23CHL1   H14 1645   4.922   1.082   9.691 -1.5713 -0.4188  0.8298
   23CHL1   C15 1646   5.007   1.247   9.588  0.1029 -0.4607  0.0406
   23CHL1  H15A 1647   5.026   1.354   9.611 -1.2725  0.1639 -1.4808
   23CHL1  H15B 1648   5.100   1.195   9.620 -0.2397  0.1567  2.2184
   23CHL1   C16 1649   4.970   1.219   9.443 -0.2085 -0.1474 -0.2025
   23CHL1  H16A 1650   4.945   1.316   9.396 -1.0997 -2.2868 -4.7033
   23CHL1  H16B 1651   5.053   1.182   9.379  2.7276  1.2023  2.5254
   23CHL1   C17 1652   4.843   1.138   9.446 -0.0154 -0.2078  0.2237
   23CHL1   H17 1653   4.881   1.035   9.466  1.8239  0.4251  0.1884
   23CHL1   C13 1654   4.773   1.182   9.574  0.6389 -0.4165  0.2920
   23CHL1   C18 1655   4.717   1.327   9.565 -0.5771 -0.3717  0.2041
   23CHL1  H18A 1656   4.697   1.384   9.658  0.3147 -0.8840  0.7204
   23CHL1  H18B 1657   4.794   1.391   9.517 -1.1742  1.6747  1.8756
   23CHL1  H18C 1658   4.623   1.335   9.507  0.0322 -0.0263 -0.7636
   23CHL1   C12 1659   4.665   1.086   9.634  0.7639 -0.1884 -1.0613
   23CHL1  H12A 1660   4.570   1.076   9.577 -0.5077  0.6860  0.7735
   23CHL1  H12B 1661   4.700   0.981   9.645 -0.8166 -0.5424  1.3134
   23CHL1   C11 1662   4.628   1.118   9.779  0.1147 -0.0341 -0.7774
   23CHL1  H11A 1663   4.584   1.219   9.786  2.4062  0.9680  0.2402
   23CHL1  H11B 1664   4.560   1.034   9.805 -1.5806  0.6388 -2.8016
   23CHL1    C9 1665   4.742   1.129   9.879 -0.5393 -0.5760  0.3721
   23CHL1    H9 1666   4.795   1.032   9.876 -1.1621 -1.0843  3.1595
   23CHL1   C10 1667   4.702   1.160  10.016  0.0797  0.4652 -0.6089
   23CHL1   C19 1668   4.595   1.275  10.026 -0.3586 -0.1085 -0.3455
   23CHL1  H19A 1669   4.582   1.307  10.132  3.4201 -1.4985  0.7155
   23CHL1  H19B 1670   4.624   1.352   9.951  3.6443 -1.2214 -0.1873
   23CHL1  H19C 1671   4.495   1.234  10.000 -0.0351 -1.3698  0.3211
   23CHL1    C1 1672   4.635   1.030  10.075  0.3853 -0.2784 -0.0590
   23CHL1   H1A 1673   4.532   1.025  10.035 -0.0996  0.9565  1.0036
   23CHL1   H1B 1674   4.692   0.938  10.046  1.4112 -0.1830  1.5529
   23CHL1    C2 1675   4.611   1.028  10.227  0.6004 -0.0942  0.3701
   23CHL1   H2A 1676   4.572   0.929  10.261  0.0388 -0.3837 -1.0576
   23CHL1   H2B 1677   4.537   1.107  10.252 -0.6052 -0.8062 -0.8643
   23CHL1   C20 1678   4.758   1.128   9.319  0.3849 -0.8771  1.0117
   23CHL1   H20 1679   4.665   1.184   9.344  0.9234 -0.1187  1.3754
   23CHL1   C21 1680   4.730   0.981   9.290  0.4649 -0.4822  1.1394
   23CHL1  H21A 1681   4.658   0.952   9.369  1.4657  0.6067  2.5021
   23CHL1  H21B 1682   4.823   0.922   9.297  1.1469  0.1318 -1.5675
   23CHL1  H21C 1683   4.680   0.965   9.192 -0.0167  0.3320  1.2389
   23CHL1   C22 1684   4.825   1.197   9.195 -0.2638 -0.2929 -0.3302
   23CHL1  H22A 1685   4.862   1.299   9.216  2.2310 -1.1358 -0.3050
   23CHL1  H22B 1686   4.905   1.131   9.155  0.5173 -0.2692  1.1337
   23CHL1   C23 1687   4.719   1.217   9.079  0.0926 -0.1612  0.1128
   23CHL1  H23A 1688   4.666   1.121   9.058  0.7247 -0.1780 -1.5899
   23CHL1  H23B 1689   4.633   1.273   9.122 -2.2177 -1.9191 -1.8901
   23CHL1   C24 1690   4.757   1.290   8.953 -0.3278 -0.5633  0.7958
   23CHL1  H24A 1691   4.799   1.389   8.982 -0.4207 -0.4545  0.5578
   23CHL1  H24B 1692   4.836   1.238   8.895  0.8478  1.0356  0.9189
   23CHL1   C25 1693   4.651   1.314   8.852  0.3591 -0.8670 -0.0996
   23CHL1   H25 1694   4.695   1.371   8.768  0.5006 -1.8133 -0.6894
   23CHL1   C26 1695   4.601   1.187   8.790 -0.3758  0.2728  0.2885
   23CHL1  H26A 1696   4.540   1.215   8.702  1.2810 -2.3413 -1.8622
   23CHL1  H26B 1697   4.690   1.131   8.754 -0.6854  0.1687 -0.3282
   23CHL1  H26C 1698   4.542   1.125   8.860  0.5833 -1.6955 -0.5639
   23CHL1   C27 1699   4.532   1.401   8.902 -0.0074 -0.0620 -0.1172
   23CHL1  H27A 1700   4.568   1.496   8.947 -2.0143  2.0563 -2.6514
   23CHL1  H27B 1701   4.457   1.427   8.823 -1.6197 -2.5033  0.4892
   23CHL1  H27C 1702   4.490   1.348   8.990  1.4995 -3.6318 -1.3692
   24CHL1    C3 1703   6.197   1.591  10.123 -0.1758  0.4056  0.3368
   24CHL1    H3 1704   6.196   1.695  10.082 -1.2166 -0.0168 -0.7766
   24CHL1    O3 1705   6.191   1.604  10.264 -0.2184 -0.1910 -0.6355
   24CHL1   H3' 1706   6.163   1.522  10.305  2.8644 -0.6670  0.7909
   24CHL1    C4 1707   6.076   1.520  10.065  0.2360  0.8169  0.4053
   24CHL1   H4A 1708   6.058   1.421  10.113 -0.5076 -1.0316 -3.3074
   24CHL1   H4B 1709   5.986   1.579  10.092 -0.1033  0.2669  0.5140
   24CHL1    C5 1710   6.086   1.498   9.916 -1.2016  0.4522 -0.2039
   24CHL1    C6 1711   5.998   1.549   9.835 -0.3252 -0.3979 -0.8704
   24CHL1    H6 1712   5.903   1.584   9.878  0.3534 -1.9719  2.2229
   24CHL1    C7 1713   5.996   1.527   9.687 -0.3491 -0.1171 -0.4198
   24CHL1   H7A 1714   5.892   1.496   9.663 -0.4857 -1.0732  1.2376
   24CHL1   H7B 1715   6.012   1.628   9.644  0.0360 -0.4508 -1.0786
   24CHL1    C8 1716   6.088   1.418   9.644 -0.1655  0.6287 -0.6677
   24CHL1    H8 1717   6.050   1.321   9.681  3.5890 -0.4244  0.8671
   24CHL1   C14 1718   6.101   1.423   9.493 -0.4256  0.1312 -0.0107
   24CHL1   H14 1719   6.156   1.516   9.469 -0.4036  0.0877 -0.1270
   24CHL1   C15 1720   5.983   1.435   9.405 -0.0481  0.6826 -0.2315
   24CHL1  H15A 1721   5.892   1.380   9.438 -0.6696  1.4934 -0.5504
   24CHL1  H15B 1722   5.954   1.542   9.395 -0.7844  0.7005  1.6367
   24CHL1   C16 1723   6.034   1.397   9.267 -0.0483  0.3502 -0.2047
   24CHL1  H16A 1724   5.965   1.317   9.234 -0.5096 -0.1839  1.8928
   24CHL1  H16B 1725   6.020   1.475   9.189 -0.0768  1.2068  0.6367
   24CHL1   C17 1726   6.183   1.343   9.289  0.3608 -0.3125  0.6513
   24CHL1   H17 1727   6.250   1.431   9.278  1.4802 -1.3456 -1.2812
   24CHL1   C13 1728   6.197   1.311   9.436 -0.1524 -0.1040  0.2455
   24CHL1   C18 1729   6.139   1.168   9.472 -0.2884 -0.4573 -0.1267
   24CHL1  H18A 1730   6.046   1.151   9.413 -0.3598 -1.0571  0.1498
   24CHL1  H18B 1731   6.225   1.101   9.453  0.6859 -0.2700  2.9677
   24CHL1  H18C 1732   6.129   1.152   9.582  0.2978 -0.4378 -0.0686
   24CHL1   C12 1733   6.336   1.331   9.502 -0.1774 -0.6966 -0.1539
   24CHL1  H12A 1734   6.404   1.250   9.467 -0.9032 -1.2960 -0.1999
   24CHL1  H12B 1735   6.390   1.421   9.466 -2.5832  0.4351 -1.1301
   24CHL1   C11 1736   6.333   1.351   9.653  0.0865 -0.0585 -0.3300
   24CHL1  H11A 1737   6.329   1.247   9.693 -1.2343 -0.1343 -0.6231
   24CHL1  H11B 1738   6.434   1.389   9.679 -0.2291  0.2320  0.5143
   24CHL1    C9 1739   6.225   1.434   9.714  0.2893  0.0966  1.0034
   24CHL1    H9 1740   6.261   1.536   9.688 -0.6842  0.1618 -0.1969
   24CHL1   C10 1741   6.217   1.437   9.873 -0.1583  0.6078  0.4130
   24CHL1   C19 1742   6.226   1.289   9.923 -0.5179  0.1913  0.0170
   24CHL1  H19A 1743   6.333   1.262   9.913  0.3326  3.7621 -2.9674
   24CHL1  H19B 1744   6.199   1.278  10.030  1.4895 -2.0948  0.3792
   24CHL1  H19C 1745   6.181   1.217   9.852  1.8389 -0.1321 -1.2192
   24CHL1    C1 1746   6.341   1.521   9.928 -0.0332 -0.7798  0.6262
   24CHL1   H1A 1747   6.433   1.466   9.902 -0.0886 -0.2013 -0.9432
   24CHL1   H1B 1748   6.353   1.622   9.882 -1.1103 -0.5699  0.7706
   24CHL1    C2 1749   6.328   1.529  10.077  0.6203 -0.2662 -0.7976
   24CHL1   H2A 1750   6.412   1.588  10.119  0.7223 -0.8105 -0.2116
   24CHL1   H2B 1751   6.337   1.430  10.127  1.7705  0.0511 -0.3484
   24CHL1   C20 1752   6.204   1.239   9.175  0.0565  0.1859 -0.0875
   24CHL1   H20 1753   6.129   1.159   9.192  0.9141 -0.5184  0.5128
   24CHL1   C21 1754   6.347   1.177   9.184 -0.6520  0.2757  0.3663
   24CHL1  H21A 1755   6.359   1.096   9.108  0.4334  1.1473 -0.4347
   24CHL1  H21B 1756   6.355   1.139   9.288  0.8070  2.1982  1.0109
   24CHL1  H21C 1757   6.416   1.262   9.169  1.8127 -1.3194  1.9497
   24CHL1   C22 1758   6.175   1.295   9.037  0.2399 -0.4403  0.0934
   24CHL1  H22A 1759   6.205   1.216   8.965 -0.7616 -0.3989 -0.3841
   24CHL1  H22B 1760   6.066   1.305   9.020 -0.1423 -2.9393  0.7588
   24CHL1   C23 1761   6.249   1.428   9.007 -0.1558  0.9156  0.3915
   24CHL1  H23A 1762   6.211   1.499   9.083 -1.6631  0.7920 -0.1923
   24CHL1  H23B 1763   6.356   1.406   9.024 -0.9841 -2.3842  2.3810
   24CHL1   C24 1764   6.222   1.470   8.864  0.8346 -0.1442  0.6888
   24CHL1  H24A 1765   6.231   1.381   8.798 -0.6206  1.5623 -1.9899
   24CHL1  H24B 1766   6.116   1.504   8.868  0.3147 -1.5046 -0.7334
   24CHL1   C25 1767   6.315   1.579   8.816 -0.4482 -0.4356  0.5110
   24CHL1   H25 1768   6.417   1.540   8.834 -0.4569 -0.9254 -0.4636
   24CHL1   C26 1769   6.294   1.609   8.667  0.4683 -0.4951  0.4321
   24CHL1  H26A 1770   6.198   1.663   8.649  0.8226 -0.9616 -3.9708
   24CHL1  H26B 1771   6.371   1.685   8.641  1.9934 -1.5953  1.5345
   24CHL1  H26C 1772   6.311   1.523   8.599 -0.6401 -0.0363 -0.4597
   24CHL1   C27 1773   6.307   1.706   8.892  0.2096 -0.2070 -0.0266
   24CHL1  H27A 1774   6.327   1.694   9.001 -1.7051  0.4724  0.4352
   24CHL1  H27B 1775   6.386   1.772   8.851 -0.0951 -1.0032 -2.0360
   24CHL1  H27C 1776   6.202   1.742   8.888 -0.0137 -0.8286  0.1157
   25CHL1    C3 1777   1.008   3.686  10.550 -0.7632  0.0075 -0.8421
   25CHL1    H3 1778   1.033   3.578  10.562 -2.9339 -0.3988  0.4736
   25CHL1    O3 1779   0.992   3.749  10.681  0.6352  0.4845 -0.1638
   25CHL1   H3' 1780   0.950   3.835  10.667  0.2554  0.4049  0.4624
   25CHL1    C4 1781   1.114   3.761  10.479  0.2269  0.2827 -0.0428
   25CHL1   H4A 1782   1.102   3.871  10.491  1.1265  0.2761  1.2227
   25CHL1   H4B 1783   1.214   3.737  10.522 -0.1978 -1.6258 -0.0499
   25CHL1    C5 1784   1.115   3.713  10.333  0.2434 -0.1017  0.3335
   25CHL1    C6 1785   1.223   3.647  10.281 -0.5044  0.7977  0.3050
   25CHL1    H6 1786   1.319   3.636  10.334  0.5762 -1.2949 -1.9086
   25CHL1    C7 1787   1.233   3.589  10.142  0.7539  0.5647 -0.3163
   25CHL1   H7A 1788   1.333   3.617  10.103  0.9393  2.5343  1.4263
   25CHL1   H7B 1789   1.224   3.478  10.139 -1.1650  0.7019 -2.3711
   25CHL1    C8 1790   1.132   3.647  10.052  0.2400 -0.6034  0.0121
   25CHL1    H8 1791   1.151   3.754  10.030  0.5797 -0.7412 -0.3788
   25CHL1   C14 1792   1.133   3.575   9.911 -0.6555 -0.4757 -0.6546
   25CHL1   H14 1793   1.108   3.471   9.944 -2.9207  0.1327 -0.2456
   25CHL1   C15 1794   1.270   3.577   9.841  0.3455  0.5831 -0.4309
   25CHL1  H15A 1795   1.313   3.680   9.844 -1.3585  1.3290  2.2915
   25CHL1  H15B 1796   1.343   3.507   9.888 -1.3773 -0.5681  0.6507
   25CHL1   C16 1797   1.229   3.531   9.703  0.1077 -0.1042 -0.0525
   25CHL1  H16A 1798   1.262   3.606   9.628  1.0428  1.7469  2.1181
   25CHL1  H16B 1799   1.284   3.437   9.679  0.7471  0.2922 -0.1712
   25CHL1   C17 1800   1.076   3.522   9.699 -1.0197  0.9321  0.1864
   25CHL1   H17 1801   1.038   3.422   9.729  0.4237  0.4934  0.6090
   25CHL1   C13 1802   1.026   3.619   9.808 -0.2170  0.2645  0.5192
   25CHL1   C18 1803   1.038   3.767   9.762 -0.7908  0.3211  0.3157
   25CHL1  H18A 1804   1.141   3.788   9.727 -0.7428  1.6488  1.1923
   25CHL1  H18B 1805   0.971   3.782   9.675 -1.4322 -1.2779  0.5032
   25CHL1  H18C 1806   1.015   3.845   9.837 -2.1764  0.8198 -0.5857
   25CHL1   C12 1807   0.893   3.593   9.878  0.5117  0.7226  0.4398
   25CHL1  H12A 1808   0.802   3.610   9.816  1.4121  0.9391 -0.8627
   25CHL1  H12B 1809   0.879   3.484   9.898 -2.0632  0.8099 -0.5036
   25CHL1   C11 1810   0.876   3.670  10.010 -0.5399 -0.0859 -0.3153
   25CHL1  H11A 1811   0.870   3.781  10.000 -0.0837  0.2249  2.2586
   25CHL1  H11B 1812   0.784   3.635  10.061 -2.5162  2.1870 -2.0622
   25CHL1    C9 1813   0.991   3.642  10.114  0.4875 -0.3026  0.4882
   25CHL1    H9 1814   0.984   3.532  10.133  0.2557 -0.6977 -1.6232
   25CHL1   C10 1815   0.982   3.715  10.253  0.2450  0.8476  0.8140
   25CHL1   C19 1816   0.944   3.865  10.230 -0.0822  0.2720 -0.4213
   25CHL1  H19A 1817   0.840   3.873  10.193  0.9748  1.3051 -3.5586
   25CHL1  H19B 1818   0.974   3.929  10.315  0.6671 -0.9558  0.2684
   25CHL1  H19C 1819   1.003   3.900  10.142 -0.1583 -1.4530 -1.2060
   25CHL1    C1 1820   0.874   3.639  10.345  0.5200 -0.4354  0.6121
   25CHL1   H1A 1821   0.778   3.658  10.293  0.4677  0.7195  1.0929
   25CHL1   H1B 1822   0.896   3.530  10.348  0.3961 -0.4699  3.2842
   25CHL1    C2 1823   0.872   3.696  10.485 -0.0398  0.8724  0.5141
   25CHL1   H2A 1824   0.792   3.647  10.546 -0.6248  1.9300  0.6223
   25CHL1   H2B 1825   0.845   3.804  10.486 -3.6834  0.1641 -1.8107
   25CHL1   C20 1826   1.023   3.532   9.552 -0.0506 -0.1409  0.1944
   25CHL1   H20 1827   1.021   3.640   9.525 -1.7041  0.4025  2.2744
   25CHL1   C21 1828   0.889   3.463   9.550 -0.1213  0.4219  1.1544
   25CHL1  H21A 1829   0.883   3.360   9.590 -2.7705  0.0970  0.1267
   25CHL1  H21B 1830   0.844   3.472   9.449  2.5532  1.4452 -0.0429
   25CHL1  H21C 1831   0.823   3.530   9.609 -0.8284  1.4099 -0.6605
   25CHL1   C22 1832   1.110   3.461   9.442  0.3519  0.4569  0.2663
   25CHL1  H22A 1833   1.217   3.487   9.456  0.0972  2.2604 -0.8291
   25CHL1  H22B 1834   1.104   3.352   9.462 -1.3136 -0.0097 -2.3057
   25CHL1   C23 1835   1.073   3.468   9.296 -0.4910  0.0043  0.0112
   25CHL1  H23A 1836   1.160   3.434   9.236 -1.7010  0.2464 -1.9664
   25CHL1  H23B 1837   0.989   3.397   9.278  0.3261 -1.1058  0.4648
   25CHL1   C24 1838   1.048   3.612   9.242 -0.1552  0.8830  0.6750
   25CHL1  H24A 1839   0.961   3.657   9.294 -0.1543 -0.8750  2.2753
   25CHL1  H24B 1840   1.144   3.666   9.260  0.6735 -0.5161  0.5795
   25CHL1   C25 1841   1.040   3.607   9.086  0.5524 -0.0553 -0.5673
   25CHL1   H25 1842   1.029   3.717   9.070 -2.3695 -0.3585 -1.2424
   25CHL1   C26 1843   1.164   3.546   9.014 -0.4257 -1.0316 -0.0607
   25CHL1  H26A 1844   1.142   3.438   8.999  1.0207 -1.0922 -2.2015
   25CHL1  H26B 1845   1.178   3.603   8.919 -1.1280 -0.3769  0.2175
   25CHL1  H26C 1846   1.255   3.564   9.076  0.1067 -0.8544 -0.8757
   25CHL1   C27 1847   0.909   3.543   9.059  0.4699 -0.4004 -0.2095
   25CHL1  H27A 1848   0.876   3.558   8.954 -0.6491 -2.7119 -0.2527
   25CHL1  H27B 1849   0.894   3.437   9.087  0.9087 -0.3155  0.3632
   25CHL1  H27C 1850   0.839   3.605   9.119  0.6607  1.1436 -1.4968
   26CHL1    C3 1851   4.035   5.817  10.276 -0.1386  0.1913  0.2829
   26CHL1    H3 1852   3.984   5.916  10.280 -0.8870 -0.2182  1.7979
   26CHL1    O3 1853   4.019   5.754  10.401  0.2260  0.0311 -0.7320
   26CHL1   H3' 1854   4.001   5.825  10.463  1.3768  0.1386 -0.4980
   26CHL1    C4 1855   3.954   5.737  10.169 -0.2279 -0.3770  0.2198
   26CHL1   H4A 1856   3.991   5.632  10.168 -0.6549 -0.5257  0.1567
   26CHL1   H4B 1857   3.848   5.723  10.196 -1.1612 -1.4906 -3.4203
   26CHL1    C5 1858   3.969   5.796  10.026 -0.2207  0.1691 -0.4274
   26CHL1    C6 1859   3.863   5.821   9.940  0.2174 -0.6871  0.2632
   26CHL1    H6 1860   3.761   5.803   9.977 -0.4518  1.0428 -0.6495
   26CHL1    C7 1861   3.875   5.864   9.799 -0.0735  0.5503  0.9603
   26CHL1   H7A 1862   3.822   5.801   9.725 -0.5358  2.8214 -0.7347
   26CHL1   H7B 1863   3.841   5.969   9.788  0.5379  0.8070  1.4427
   26CHL1    C8 1864   4.020   5.865   9.745 -0.1189  0.0591  0.1662
   26CHL1    H8 1865   4.042   5.761   9.712 -0.7517  0.4779 -1.7206
   26CHL1   C14 1866   4.039   5.949   9.625 -0.0236  0.6151  0.3265
   26CHL1   H14 1867   4.011   6.054   9.645 -1.7600  0.2017  0.2008
   26CHL1   C15 1868   3.955   5.914   9.501 -0.0489 -0.5475  0.5769
   26CHL1  H15A 1869   3.953   5.804   9.485  0.8251 -0.4636 -0.1898
   26CHL1  H15B 1870   3.850   5.948   9.513  0.3936  1.1322  0.0017
   26CHL1   C16 1871   4.029   5.977   9.380 -0.3326  0.0612  0.0621
   26CHL1  H16A 1872   4.054   5.903   9.302 -0.5299 -0.1240  0.1727
   26CHL1  H16B 1873   3.965   6.060   9.343  0.5560  1.4069  1.3995
   26CHL1   C17 1874   4.168   6.023   9.440 -0.5077 -0.3972 -0.3107
   26CHL1   H17 1875   4.165   6.127   9.480 -0.0528 -1.0789  1.5752
   26CHL1   C13 1876   4.184   5.950   9.570 -0.3975  0.3982  0.3545
   26CHL1   C18 1877   4.236   5.811   9.531 -0.0641  0.1674  0.3074
   26CHL1  H18A 1878   4.343   5.813   9.502 -0.1734  1.4366 -0.0568
   26CHL1  H18B 1879   4.242   5.738   9.615  1.1330  0.7590  0.7555
   26CHL1  H18C 1880   4.182   5.765   9.445  0.7165  0.6034 -0.4283
   26CHL1   C12 1881   4.273   6.022   9.674 -0.2770  0.2366 -0.2346
   26CHL1  H12A 1882   4.380   6.020   9.644 -0.7391  1.9139 -2.2348
   26CHL1  H12B 1883   4.245   6.128   9.695  1.0330  0.3782  0.9615
   26CHL1   C11 1884   4.262   5.944   9.810 -0.4883  0.2937 -0.0599
   26CHL1  H11A 1885   4.331   5.858   9.803  0.1382  0.7634  0.2318
   26CHL1  H11B 1886   4.306   6.012   9.886 -0.4326 -0.0275  0.1971
   26CHL1    C9 1887   4.117   5.911   9.856  0.0054 -0.0327 -0.2605
   26CHL1    H9 1888   4.083   6.015   9.873  0.5973  0.2537 -0.7813
   26CHL1   C10 1889   4.110   5.821   9.984 -0.7385 -0.1658  0.5793
   26CHL1   C19 1890   4.180   5.678   9.957  0.3989  0.2667  0.0235
   26CHL1  H19A 1891   4.126   5.630   9.873  0.1820  0.5888 -0.0231
   26CHL1  H19B 1892   4.284   5.699   9.924 -0.1942  0.5600 -1.7474
   26CHL1  H19C 1893   4.165   5.606  10.040 -2.0562  0.2222 -0.3925
   26CHL1    C1 1894   4.184   5.904  10.096 -0.3708  0.1281 -0.4619
   26CHL1   H1A 1895   4.294   5.905  10.076  0.1569  0.8950  2.0701
   26CHL1   H1B 1896   4.149   6.009  10.092  2.9454  1.3626 -0.5386
   26CHL1    C2 1897   4.180   5.844  10.238  0.9144  0.3093 -0.6903
   26CHL1   H2A 1898   4.238   5.911  10.304  1.3175 -0.3626 -0.3535
   26CHL1   H2B 1899   4.233   5.747  10.232 -0.2581 -0.4246  0.3031
   26CHL1   C20 1900   4.274   6.030   9.327  0.1749  0.8450  0.9719
   26CHL1   H20 1901   4.299   5.926   9.299  1.4895  1.6615 -1.1268
   26CHL1   C21 1902   4.406   6.093   9.389  0.0727 -0.3624  0.0490
   26CHL1  H21A 1903   4.463   6.140   9.306 -1.2696 -0.8047 -1.1701
   26CHL1  H21B 1904   4.466   6.015   9.439  1.5489  0.7226  0.0312
   26CHL1  H21C 1905   4.378   6.175   9.459  0.0298  0.4338 -0.8804
   26CHL1   C22 1906   4.224   6.110   9.206  0.1694 -0.8266 -0.1459
   26CHL1  H22A 1907   4.148   6.044   9.161 -1.2906  0.9917 -0.4877
   26CHL1  H22B 1908   4.183   6.208   9.239  1.6783 -0.6341  1.2890
   26CHL1   C23 1909   4.335   6.136   9.100  0.2910  0.0777 -0.0706
   26CHL1  H23A 1910   4.409   6.216   9.120  3.3403 -2.6816  0.6230
   26CHL1  H23B 1911   4.402   6.048   9.082  0.9212  0.9518 -2.4140
   26CHL1   C24 1912   4.283   6.162   8.962  0.7621  0.3664  0.1522
   26CHL1  H24A 1913   4.210   6.089   8.923  1.6113 -0.7501  0.5954
   26CHL1  H24B 1914   4.228   6.259   8.960  0.8361  0.4522 -2.7940
   26CHL1   C25 1915   4.390   6.176   8.851  0.2004 -0.4667 -0.5825
   26CHL1   H25 1916   4.469   6.246   8.885  0.9822 -0.1391 -2.8730
   26CHL1   C26 1917   4.471   6.053   8.817  0.1629  0.3524  0.2969
   26CHL1  H26A 1918   4.417   5.966   8.773  2.7125 -0.7474 -0.8332
   26CHL1  H26B 1919   4.553   6.078   8.747 -0.5630 -0.2028 -0.7805
   26CHL1  H26C 1920   4.509   6.020   8.916  0.6686  1.9901  0.6680
   26CHL1   C27 1921   4.330   6.252   8.726 -0.1449 -0.2349  0.1514
   26CHL1  H27A 1922   4.252   6.199   8.666  0.2442  0.9223 -1.4376
   26CHL1  H27B 1923   4.292   6.353   8.750 -0.4277 -0.0734 -0.9396
   26CHL1  H27C 1924   4.413   6.263   8.653 -0.3036 -1.0733 -0.1690
   27CHL1    C3 1925   1.262   2.587  10.487  0.3041 -0.2213  0.0964
   27CHL1    H3 1926   1.246   2.481  10.459 -0.5745  0.0534 -0.5107
   27CHL1    O3 1927   1.252   2.600  10.625  0.3265 -0.3340 -0.5406
   27CHL1   H3' 1928   1.287   2.686  10.652  0.8948 -0.7450  0.0732
   27CHL1    C4 1929   1.404   2.625  10.450  0.4761  0.0417  0.3538
   27CHL1   H4A 1930   1.428   2.730  10.476 -1.7443  0.6334  0.2173
   27CHL1   H4B 1931   1.475   2.562  10.509 -0.2988  0.7873  2.1642
   27CHL1    C5 1932   1.418   2.605  10.304 -0.5244  0.9982 -0.7047
   27CHL1    C6 1933   1.502   2.507  10.263 -0.1918 -0.6471  1.1807
   27CHL1    H6 1934   1.563   2.452  10.336  1.6279  0.0797  0.2675
   27CHL1    C7 1935   1.522   2.485  10.116 -0.3609  0.3476 -0.4176
   27CHL1   H7A 1936   1.627   2.454  10.099 -0.5366 -1.0997  0.9089
   27CHL1   H7B 1937   1.467   2.394  10.086 -0.6660  0.4382 -0.1446
   27CHL1    C8 1938   1.482   2.603  10.028  0.6562 -0.1827 -0.3672
   27CHL1    H8 1939   1.550   2.687  10.054 -1.9494  1.8102  0.3903
   27CHL1   C14 1940   1.475   2.567   9.879 -0.3143 -0.2881  0.1370
   27CHL1   H14 1941   1.397   2.489   9.868  0.7713 -1.5534  1.0792
   27CHL1   C15 1942   1.604   2.509   9.815 -0.1178  0.0313 -0.3290
   27CHL1  H15A 1943   1.695   2.557   9.855 -0.3283 -1.3911  2.0642
   27CHL1  H15B 1944   1.600   2.400   9.835 -3.4969 -0.4157 -2.5280
   27CHL1   C16 1945   1.588   2.523   9.664  0.4496 -0.7242 -0.6058
   27CHL1  H16A 1946   1.675   2.573   9.616  1.0408 -0.9323  0.2436
   27CHL1  H16B 1947   1.571   2.426   9.613  0.7333 -1.2021  0.2121
   27CHL1   C17 1948   1.458   2.602   9.641 -0.9758  0.0285  0.4990
   27CHL1   H17 1949   1.378   2.529   9.619 -2.2427  2.1720 -2.7517
   27CHL1   C13 1950   1.434   2.671   9.777 -0.8017  0.7885  0.0949
   27CHL1   C18 1951   1.528   2.797   9.777  0.4794 -0.6646 -0.3306
   27CHL1  H18A 1952   1.546   2.837   9.879  1.0454 -0.1126 -0.6380
   27CHL1  H18B 1953   1.630   2.785   9.734  0.3979 -0.0595 -0.7078
   27CHL1  H18C 1954   1.474   2.881   9.728 -2.0828 -2.9588 -1.6937
   27CHL1   C12 1955   1.285   2.698   9.814 -0.5797  0.0378  0.6008
   27CHL1  H12A 1956   1.239   2.773   9.746 -1.1202  0.2374  1.1814
   27CHL1  H12B 1957   1.228   2.605   9.792  2.0332 -1.6208  0.3618
   27CHL1   C11 1958   1.271   2.740   9.961 -0.2693 -0.1256  0.9884
   27CHL1  H11A 1959   1.328   2.836   9.968 -1.8985  1.4120 -3.4015
   27CHL1  H11B 1960   1.165   2.760   9.989  0.2097  1.2626  1.9342
   27CHL1    C9 1961   1.334   2.649  10.068 -0.2886 -0.5052 -0.4339
   27CHL1    H9 1962   1.279   2.553  10.054 -0.8180 -0.0588 -1.5333
   27CHL1   C10 1963   1.323   2.696  10.214 -0.2662  0.2014  0.2874
   27CHL1   C19 1964   1.376   2.843  10.230 -0.2459 -0.2866 -0.1144
   27CHL1  H19A 1965   1.484   2.848  10.203  0.2845 -0.7120  1.7830
   27CHL1  H19B 1966   1.317   2.909  10.161  3.2845  2.3587 -0.9023
   27CHL1  H19C 1967   1.363   2.887  10.331 -0.2495  0.1708 -0.3077
   27CHL1    C1 1968   1.178   2.675  10.262 -0.2822 -0.2386 -0.8745
   27CHL1   H1A 1969   1.116   2.751  10.208 -0.1711  0.3617 -0.1739
   27CHL1   H1B 1970   1.148   2.574  10.228 -0.3690  0.1045 -1.8497
   27CHL1    C2 1971   1.161   2.681  10.417  1.0614 -0.5988  0.4693
   27CHL1   H2A 1972   1.058   2.648  10.440  1.0721 -1.6739 -0.8976
   27CHL1   H2B 1973   1.174   2.785  10.453  1.3886 -0.0097 -1.3082
   27CHL1   C20 1974   1.456   2.695   9.514 -0.8143  0.2950  0.2372
   27CHL1   H20 1975   1.529   2.778   9.519  0.4767 -0.5654 -2.3582
   27CHL1   C21 1976   1.323   2.761   9.478  0.8808  0.1489 -0.5902
   27CHL1  H21A 1977   1.327   2.821   9.385 -2.0840 -0.3239 -1.1030
   27CHL1  H21B 1978   1.291   2.825   9.563 -3.9146 -0.0719 -1.9728
   27CHL1  H21C 1979   1.241   2.686   9.478 -0.2137  1.2606  1.1082
   27CHL1   C22 1980   1.505   2.626   9.386  0.9916 -0.3934 -0.0421
   27CHL1  H22A 1981   1.515   2.702   9.306 -2.0075  0.6189  0.4101
   27CHL1  H22B 1982   1.605   2.580   9.399  0.7252 -0.6833  1.1221
   27CHL1   C23 1983   1.411   2.510   9.337  0.0158  0.1885 -0.2372
   27CHL1  H23A 1984   1.429   2.420   9.400  0.6624 -1.0582 -2.1054
   27CHL1  H23B 1985   1.305   2.535   9.360 -0.4229 -1.5032 -0.2860
   27CHL1   C24 1986   1.422   2.480   9.185 -0.2314 -0.2041 -0.1331
   27CHL1  H24A 1987   1.429   2.580   9.137  0.9508 -0.6788 -0.9870
   27CHL1  H24B 1988   1.520   2.433   9.162 -0.0473 -0.1881  0.5924
   27CHL1   C25 1989   1.308   2.390   9.121 -0.1381  0.0160  0.2303
   27CHL1   H25 1990   1.217   2.410   9.181 -0.6437  0.4289 -0.6512
   27CHL1   C26 1991   1.288   2.431   8.964 -0.5426 -0.1498 -0.3902
   27CHL1  H26A 1992   1.191   2.389   8.930  0.5100 -1.4797 -1.9401
   27CHL1  H26B 1993   1.280   2.541   8.974 -0.3545 -0.0674 -1.0497
   27CHL1  H26C 1994   1.375   2.395   8.904 -0.1528 -0.5842  0.4150
   27CHL1   C27 1995   1.349   2.246   9.141 -0.3110 -0.0729 -0.0334
   27CHL1  H27A 1996   1.268   2.182   9.100 -1.5875  1.5472 -0.1725
   27CHL1  H27B 1997   1.427   2.228   9.065  0.6085  1.1236  0.5970
   27CHL1  H27C 1998   1.369   2.214   9.246  1.7964 -0.7669 -0.5967
   28CHL1    C3 1999   0.772   1.317  10.106 -0.7675 -0.7061  0.2139
   28CHL1    H3 2000   0.663   1.337  10.101 -0.9504 -0.8330  2.4745
   28CHL1    O3 2001   0.810   1.351  10.236  0.1327 -0.1433  0.0079
   28CHL1   H3' 2002   0.887   1.407  10.221  0.2831 -0.3363  0.0521
   28CHL1    C4 2003   0.801   1.173  10.071 -1.2154 -0.1004  0.4162
   28CHL1   H4A 2004   0.912   1.164  10.079 -1.3509 -1.0785  1.5645
   28CHL1   H4B 2005   0.757   1.098  10.141 -3.3304 -0.7621 -1.4984
   28CHL1    C5 2006   0.768   1.147   9.927  0.1246 -0.6684 -0.1500
   28CHL1    C6 2007   0.679   1.055   9.885  0.5303 -0.2564 -0.1053
   28CHL1    H6 2008   0.629   0.988   9.957  0.4466 -0.0679  0.0129
   28CHL1    C7 2009   0.666   1.007   9.744  0.1652  0.1129  0.7846
   28CHL1   H7A 2010   0.684   0.898   9.742 -0.3024 -0.0800 -3.4173
   28CHL1   H7B 2011   0.563   1.024   9.704  0.0935 -0.9940  0.4752
   28CHL1    C8 2012   0.771   1.067   9.648  0.0632  0.3535  0.3324
   28CHL1    H8 2013   0.872   1.022   9.658  2.1718  4.1901 -1.4917
   28CHL1   C14 2014   0.728   1.050   9.499 -0.1138  0.7522  0.1858
   28CHL1   H14 2015   0.631   1.104   9.491 -2.0421 -2.2854  1.4354
   28CHL1   C15 2016   0.692   0.916   9.443  0.1898 -0.7953 -0.0507
   28CHL1  H15A 2017   0.774   0.844   9.463 -0.0310 -1.6366 -1.9839
   28CHL1  H15B 2018   0.593   0.886   9.485  0.6756 -0.8627  1.0740
   28CHL1   C16 2019   0.691   0.939   9.287 -0.2041 -0.6639 -0.9499
   28CHL1  H16A 2020   0.732   0.856   9.226 -2.5526 -1.2860 -1.7900
   28CHL1  H16B 2021   0.587   0.956   9.253 -0.4934 -0.0789  0.1732
   28CHL1   C17 2022   0.761   1.072   9.266 -0.1625 -0.4062  0.2532
   28CHL1   H17 2023   0.678   1.147   9.267 -0.0937 -0.2521  3.2093
   28CHL1   C13 2024   0.824   1.110   9.399  0.9100  1.1316  0.3040
   28CHL1   C18 2025   0.962   1.047   9.402  0.2189 -0.6586 -0.2959
   28CHL1  H18A 2026   0.996   1.046   9.508 -0.1152  1.1610 -0.1530
   28CHL1  H18B 2027   0.958   0.939   9.374  2.9455 -0.2441 -2.5904
   28CHL1  H18C 2028   1.028   1.106   9.336 -2.4530  1.3235 -1.3608
   28CHL1   C12 2029   0.840   1.260   9.423  0.1899  0.6968 -0.0238
   28CHL1  H12A 2030   0.923   1.293   9.357 -1.4827  2.3694 -1.3928
   28CHL1  H12B 2031   0.751   1.318   9.392  2.4189  4.2364 -0.2927
   28CHL1   C11 2032   0.869   1.299   9.566  0.4054  0.4375  0.3208
   28CHL1  H11A 2033   0.979   1.286   9.573  0.4249  0.3825 -0.0411
   28CHL1  H11B 2034   0.847   1.406   9.586 -0.2273  0.0616  1.7795
   28CHL1    C9 2035   0.789   1.218   9.673  0.9626 -0.0354  0.3234
   28CHL1    H9 2036   0.683   1.250   9.663  0.6052 -1.4109 -0.6342
   28CHL1   C10 2037   0.847   1.240   9.820  0.0508  1.2531 -0.8201
   28CHL1   C19 2038   1.000   1.210   9.817  0.1944 -0.4856  0.3527
   28CHL1  H19A 2039   1.019   1.116   9.761  4.3065 -0.7278  1.8251
   28CHL1  H19B 2040   1.059   1.292   9.770  0.2659 -0.2788  0.7964
   28CHL1  H19C 2041   1.039   1.206   9.921 -0.4839 -1.3661  0.5800
   28CHL1    C1 2042   0.814   1.385   9.865 -0.0340 -0.4319  0.1694
   28CHL1   H1A 2043   0.885   1.447   9.807 -0.4993  0.1708  0.2334
   28CHL1   H1B 2044   0.710   1.412   9.837  1.2202  2.0303 -2.5820
   28CHL1    C2 2045   0.848   1.419  10.012  0.0331  0.0576 -0.3549
   28CHL1   H2A 2046   0.823   1.520  10.050  2.0621  0.5534 -0.2247
   28CHL1   H2B 2047   0.957   1.409  10.028 -0.0063 -0.8325 -0.5858
   28CHL1   C20 2048   0.839   1.084   9.137 -0.4196 -0.0552  0.4390
   28CHL1   H20 2049   0.919   1.158   9.157  0.1644 -0.6989  0.5165
   28CHL1   C21 2050   0.746   1.136   9.027 -0.4432 -0.4805  0.2399
   28CHL1  H21A 2051   0.673   1.063   8.987 -0.6776 -0.6121  0.8969
   28CHL1  H21B 2052   0.810   1.165   8.941 -0.3803  0.8755  0.7234
   28CHL1  H21C 2053   0.702   1.232   9.063  2.4710  0.4027  1.7939
   28CHL1   C22 2054   0.918   0.956   9.090  0.1610  1.4666  0.2906
   28CHL1  H22A 2055   0.983   0.907   9.166  1.5217 -1.4096 -2.4723
   28CHL1  H22B 2056   0.837   0.890   9.052  0.6289  0.7880  0.4413
   28CHL1   C23 2057   1.015   0.987   8.976 -0.1314 -0.0936 -0.9895
   28CHL1  H23A 2058   0.961   1.043   8.897 -0.4024  1.1564  0.0500
   28CHL1  H23B 2059   1.066   1.078   9.013 -3.5378  1.2003  0.9451
   28CHL1   C24 2060   1.112   0.872   8.937  1.4617  0.4569 -0.2581
   28CHL1  H24A 2061   1.205   0.924   8.903  0.4461  1.6336 -1.3604
   28CHL1  H24B 2062   1.141   0.814   9.027  0.3017  1.0621  0.5286
   28CHL1   C25 2063   1.062   0.766   8.830 -0.1298 -0.7091 -0.2400
   28CHL1   H25 2064   1.157   0.722   8.794  0.1464  0.2793 -0.7554
   28CHL1   C26 2065   0.974   0.649   8.886 -0.4420 -0.0367 -0.6179
   28CHL1  H26A 2066   0.971   0.570   8.808  3.1509 -2.8953  1.8078
   28CHL1  H26B 2067   1.010   0.618   8.987  0.3719  0.4010 -0.7678
   28CHL1  H26C 2068   0.875   0.699   8.895 -0.7212 -0.5975 -0.5573
   28CHL1   C27 2069   0.993   0.825   8.708 -0.5178  0.0778 -0.5615
   28CHL1  H27A 2070   0.893   0.862   8.738 -0.4889 -0.4260  0.1739
   28CHL1  H27B 2071   1.056   0.902   8.657  0.5653 -1.2146 -1.2592
   28CHL1  H27C 2072   0.972   0.746   8.632  1.1046 -1.7378  0.7616
   29CHL1    C3 2073   3.430   5.208   6.785 -0.2779 -0.1121 -0.5812
   29CHL1    H3 2074   3.527   5.176   6.830 -1.4129 -0.3396  1.8938
   29CHL1    O3 2075   3.438   5.230   6.652 -0.5631 -0.1527  0.4538
   29CHL1   H3' 2076   3.347   5.225   6.620 -0.4574 -1.3545  0.3113
   29CHL1    C4 2077   3.336   5.091   6.825  0.5778 -0.1085 -0.5753
   29CHL1   H4A 2078   3.237   5.122   6.784  0.3857 -0.0983 -0.1074
   29CHL1   H4B 2079   3.379   5.003   6.773  2.4255  0.8421 -0.7311
   29CHL1    C5 2080   3.318   5.072   6.972 -0.0061  0.1768 -0.2933
   29CHL1    C6 2081   3.333   4.944   7.027  0.3016  0.4283 -0.3635
   29CHL1    H6 2082   3.367   4.858   6.966 -0.1950 -1.0888  1.4053
   29CHL1    C7 2083   3.320   4.913   7.176  0.3031 -0.6698 -0.1184
   29CHL1   H7A 2084   3.248   4.831   7.198  0.6602 -0.4853  1.9047
   29CHL1   H7B 2085   3.421   4.905   7.222  0.6320  2.2557 -0.1350
   29CHL1    C8 2086   3.255   5.036   7.249 -0.5316 -0.2987  0.3911
   29CHL1    H8 2087   3.145   5.030   7.235 -0.5826  1.3164 -0.1216
   29CHL1   C14 2088   3.277   5.018   7.403 -0.0871  0.1625  0.2253
   29CHL1   H14 2089   3.387   5.012   7.412  0.0206  0.5120 -0.7277
   29CHL1   C15 2090   3.229   4.879   7.464 -0.3680  0.3411  0.4864
   29CHL1  H15A 2091   3.124   4.873   7.429 -1.2566  0.5202  2.9454
   29CHL1  H15B 2092   3.277   4.784   7.433  1.1184  0.4317  2.3099
   29CHL1   C16 2093   3.238   4.915   7.615  0.0859  0.1550  0.0417
   29CHL1  H16A 2094   3.155   4.868   7.672  0.8510 -1.1018  0.1604
   29CHL1  H16B 2095   3.329   4.865   7.655 -0.4381 -0.3036  0.7092
   29CHL1   C17 2096   3.249   5.070   7.631 -0.1534  0.5307  0.3556
   29CHL1   H17 2097   3.358   5.091   7.645 -0.4045  2.6485 -0.5677
   29CHL1   C13 2098   3.223   5.123   7.490  0.3039  0.1340 -0.3251
   29CHL1   C18 2099   3.068   5.140   7.476  0.6228  0.4626  0.2477
   29CHL1  H18A 2100   3.037   5.123   7.370 -2.1889 -1.8521  1.2935
   29CHL1  H18B 2101   3.023   5.054   7.529  0.4376  0.8793  0.7716
   29CHL1  H18C 2102   3.027   5.240   7.503 -1.1067  0.0257 -0.6022
   29CHL1   C12 2103   3.291   5.254   7.452 -0.0987  0.2977 -0.1474
   29CHL1  H12A 2104   3.249   5.338   7.512  0.7866 -0.0954  1.0583
   29CHL1  H12B 2105   3.393   5.262   7.495 -0.2879  3.7485 -0.0938
   29CHL1   C11 2106   3.284   5.291   7.303 -0.1024  0.6717  0.5321
   29CHL1  H11A 2107   3.178   5.317   7.280 -1.1098 -2.4721  1.1589
   29CHL1  H11B 2108   3.350   5.372   7.266  0.8634 -1.5802 -3.2608
   29CHL1    C9 2109   3.314   5.175   7.204 -0.7184  0.6460  0.0247
   29CHL1    H9 2110   3.424   5.171   7.218 -0.8880  0.5031  1.4129
   29CHL1   C10 2111   3.286   5.201   7.054  1.0379  0.1996 -0.7657
   29CHL1   C19 2112   3.129   5.243   7.040  0.2390 -0.0001 -0.4506
   29CHL1  H19A 2113   3.068   5.158   7.077 -0.1899  0.4340 -0.1452
   29CHL1  H19B 2114   3.106   5.332   7.103 -0.7392 -1.4991  1.4302
   29CHL1  H19C 2115   3.103   5.246   6.933  1.5567  0.5875 -0.7775
   29CHL1    C1 2116   3.370   5.318   7.003 -0.4006  0.2086  0.0220
   29CHL1   H1A 2117   3.332   5.415   7.041 -0.5769  0.5218 -0.9453
   29CHL1   H1B 2118   3.478   5.312   7.028 -0.0535 -2.1893 -1.6971
   29CHL1    C2 2119   3.378   5.336   6.854 -0.1866  0.3339  0.8996
   29CHL1   H2A 2120   3.443   5.422   6.827  0.3324 -0.9619 -2.4797
   29CHL1   H2B 2121   3.279   5.362   6.809 -0.3508 -1.6882 -0.0148
   29CHL1   C20 2122   3.175   5.122   7.757 -0.1782  0.6966  0.1783
   29CHL1   H20 2123   3.065   5.113   7.739 -0.3272  2.9433 -0.4442
   29CHL1   C21 2124   3.197   5.272   7.765  0.0072  0.8982 -0.3041
   29CHL1  H21A 2125   3.303   5.305   7.769 -0.0748  1.1015  0.2753
   29CHL1  H21B 2126   3.154   5.313   7.858  1.7756 -1.8084  1.8649
   29CHL1  H21C 2127   3.139   5.316   7.681 -0.6757  0.8414  0.1277
   29CHL1   C22 2128   3.210   5.056   7.886 -0.8939 -0.9375  0.5810
   29CHL1  H22A 2129   3.146   5.097   7.967 -1.1656  0.1130 -0.1415
   29CHL1  H22B 2130   3.172   4.952   7.881 -1.1853 -1.0394  3.3667
   29CHL1   C23 2131   3.359   5.058   7.927 -1.0372 -0.5478  0.0120
   29CHL1  H23A 2132   3.425   5.023   7.845  2.2799  0.1036  2.1900
   29CHL1  H23B 2133   3.400   5.158   7.953  0.8047 -1.9499  2.9918
   29CHL1   C24 2134   3.394   4.978   8.063 -0.0372 -0.9818  0.6497
   29CHL1  H24A 2135   3.495   4.994   8.108 -0.2543 -1.9658  1.4964
   29CHL1  H24B 2136   3.328   5.022   8.140  0.4148  0.6256  0.1837
   29CHL1   C25 2137   3.371   4.828   8.046 -0.9976 -0.3141  0.3442
   29CHL1   H25 2138   3.265   4.822   8.013 -0.7085 -1.1262 -0.4740
   29CHL1   C26 2139   3.461   4.749   7.955  0.1144 -0.2543  0.3477
   29CHL1  H26A 2140   3.566   4.764   7.989  0.5859 -1.4348 -0.5348
   29CHL1  H26B 2141   3.429   4.644   7.938 -3.9822  0.4657  2.3155
   29CHL1  H26C 2142   3.464   4.802   7.857  0.7842  0.9662  1.0002
   29CHL1   C27 2143   3.382   4.759   8.183 -0.4465  0.2221 -0.2037
   29CHL1  H27A 2144   3.307   4.796   8.256 -0.1230 -1.2224  0.9016
   29CHL1  H27B 2145   3.368   4.649   8.178 -1.5708  0.0755  3.3515
   29CHL1  H27C 2146   3.486   4.776   8.219 -0.3876 -1.4283  0.4887
   30CHL1    C3 2147   1.953   4.098   7.191 -0.2936  0.0299 -0.8157
   30CHL1    H3 2148   1.925   4.206   7.193 -0.6870 -0.0734  0.8507
   30CHL1    O3 2149   2.016   4.061   7.071  0.6099 -0.1512  0.2021
   30CHL1   H3' 2150   1.982   3.977   7.040  0.2886  0.9090 -2.6755
   30CHL1    C4 2151   2.053   4.060   7.306  0.6118 -0.3449 -0.2182
   30CHL1   H4A 2152   2.070   3.950   7.301  0.7438 -0.3027 -0.8434
   30CHL1   H4B 2153   2.158   4.088   7.282  1.0124 -2.0668 -0.6454
   30CHL1    C5 2154   1.988   4.087   7.437 -0.2313  0.1122 -0.2401
   30CHL1    C6 2155   2.044   4.184   7.514  1.2849  0.2298 -0.7996
   30CHL1    H6 2156   2.133   4.237   7.478 -0.6800  2.1796 -3.2181
   30CHL1    C7 2157   1.983   4.218   7.652  0.4758  0.3407  0.2911
   30CHL1   H7A 2158   2.071   4.215   7.721  0.4469  0.8274  0.3497
   30CHL1   H7B 2159   1.925   4.312   7.652  0.4579  0.3299  0.5008
   30CHL1    C8 2160   1.897   4.103   7.715  0.0075 -0.3836  0.0056
   30CHL1    H8 2161   1.965   4.019   7.743  1.3609  0.8943  0.6538
   30CHL1   C14 2162   1.830   4.154   7.834 -0.3842 -0.4045  0.3729
   30CHL1   H14 2163   1.774   4.244   7.798  1.0908 -0.7294 -3.1146
   30CHL1   C15 2164   1.910   4.203   7.949  0.7167  0.0624  0.0130
   30CHL1  H15A 2165   2.000   4.140   7.966  1.9890  1.8336  0.1046
   30CHL1  H15B 2166   1.951   4.305   7.935  2.9261 -0.8490 -0.5800
   30CHL1   C16 2167   1.826   4.190   8.078  0.1452  0.0070  0.2830
   30CHL1  H16A 2168   1.871   4.115   8.147  0.0692  0.1674  0.5054
   30CHL1  H16B 2169   1.808   4.290   8.121  1.1820  0.8309 -1.0876
   30CHL1   C17 2170   1.688   4.135   8.027  0.2762  0.6056  0.1195
   30CHL1   H17 2171   1.622   4.217   7.992 -0.7513 -0.0325  0.5383
   30CHL1   C13 2172   1.729   4.057   7.902  0.2285  0.1390  0.8742
   30CHL1   C18 2173   1.806   3.922   7.945  0.3314  0.0445  0.0188
   30CHL1  H18A 2174   1.889   3.945   8.014 -0.7461  0.7087  1.1337
   30CHL1  H18B 2175   1.736   3.846   7.987 -0.5234  0.6738 -0.2284
   30CHL1  H18C 2176   1.844   3.886   7.847 -1.7371 -0.4488 -0.6526
   30CHL1   C12 2177   1.612   4.035   7.803  0.6944 -1.0149  0.5533
   30CHL1  H12A 2178   1.534   3.963   7.838  0.1561 -0.4548  0.5226
   30CHL1  H12B 2179   1.556   4.131   7.794  2.0452 -0.2648 -0.2228
   30CHL1   C11 2180   1.670   3.992   7.668 -0.2950 -0.3401  0.0192
   30CHL1  H11A 2181   1.704   3.887   7.679 -0.3298 -0.6635 -2.4563
   30CHL1  H11B 2182   1.592   3.988   7.589  1.7659 -0.3870 -2.1398
   30CHL1    C9 2183   1.792   4.074   7.609 -0.7331  0.2618  0.0058
   30CHL1    H9 2184   1.735   4.168   7.587 -0.7311  0.4869  0.9381
   30CHL1   C10 2185   1.853   4.016   7.471  0.5491  0.0303  0.3242
   30CHL1   C19 2186   1.879   3.870   7.497 -0.4385 -0.6803 -0.5038
   30CHL1  H19A 2187   1.934   3.826   7.411  1.0460  1.2019 -0.5881
   30CHL1  H19B 2188   1.937   3.859   7.591 -2.3942  0.8769  0.9790
   30CHL1  H19C 2189   1.779   3.822   7.499 -0.7414 -0.2192 -2.3538
   30CHL1    C1 2190   1.757   4.035   7.355  0.0028  0.1755 -0.2660
   30CHL1   H1A 2191   1.673   3.964   7.371  0.6976 -0.5380  0.2935
   30CHL1   H1B 2192   1.724   4.140   7.346 -1.7829 -0.1604  1.6465
   30CHL1    C2 2193   1.821   4.014   7.214 -0.4752  0.0906 -0.0270
   30CHL1   H2A 2194   1.748   4.045   7.136 -0.1053  0.3003 -0.2939
   30CHL1   H2B 2195   1.842   3.905   7.205  0.5667 -0.0098  2.5471
   30CHL1   C20 2196   1.605   4.060   8.131 -0.0457 -0.1981 -0.7402
   30CHL1   H20 2197   1.537   3.995   8.071 -2.4403  1.2749  0.2719
   30CHL1   C21 2198   1.507   4.155   8.198  0.0183  0.5852  0.1218
   30CHL1  H21A 2199   1.459   4.227   8.129 -1.5370  0.0126  0.5778
   30CHL1  H21B 2200   1.551   4.211   8.283  1.2941 -1.7363  1.0882
   30CHL1  H21C 2201   1.418   4.107   8.244  0.4401  0.0584  0.3996
   30CHL1   C22 2202   1.673   3.974   8.235 -0.6724  0.5314  0.4015
   30CHL1  H22A 2203   1.748   3.902   8.195 -1.6000  0.3135 -1.0063
   30CHL1  H22B 2204   1.729   4.044   8.301 -0.6168  0.7052  0.1713
   30CHL1   C23 2205   1.571   3.914   8.328  0.7189  0.5881 -0.4749
   30CHL1  H23A 2206   1.553   3.988   8.408 -1.1504  0.0296 -0.3496
   30CHL1  H23B 2207   1.477   3.894   8.273  0.6078 -0.9307  0.2213
   30CHL1   C24 2208   1.617   3.781   8.386 -0.1943 -0.1813  0.9773
   30CHL1  H24A 2209   1.623   3.702   8.307  0.5226 -0.9081  1.7383
   30CHL1  H24B 2210   1.720   3.803   8.424 -0.5648  1.3218  1.1797
   30CHL1   C25 2211   1.522   3.736   8.506  0.4157  0.7165  0.1736
   30CHL1   H25 2212   1.538   3.823   8.574  4.2765 -0.3622  0.9105
   30CHL1   C26 2213   1.380   3.710   8.464  0.0800  0.2282  0.9820
   30CHL1  H26A 2214   1.384   3.656   8.367  1.1794  0.4471  0.8939
   30CHL1  H26B 2215   1.320   3.648   8.535 -1.3471 -0.2003 -0.5323
   30CHL1  H26C 2216   1.326   3.806   8.449  0.0162  0.3388  1.8669
   30CHL1   C27 2217   1.569   3.610   8.581  0.3026 -0.2724 -0.3430
   30CHL1  H27A 2218   1.503   3.579   8.665  1.6514 -1.8002  0.2067
   30CHL1  H27B 2219   1.580   3.518   8.519 -0.0307 -0.6876  0.2041
   30CHL1  H27C 2220   1.660   3.633   8.639  0.0843 -0.6285  0.1459
   31CHL1    C3 2221   6.381   6.103   6.898  0.4121  0.6732 -0.0888
   31CHL1    H3 2222   6.286   6.052   6.927  1.1658 -1.2900 -0.8264
   31CHL1    O3 2223   6.375   6.146   6.760  0.0842  0.4527 -0.3929
   31CHL1   H3' 2224   6.373   6.060   6.716  0.5015  0.8530 -1.2161
   31CHL1    C4 2225   6.389   6.222   6.993 -0.0430  0.0092 -0.0007
   31CHL1   H4A 2226   6.471   6.281   6.946 -1.0997  1.6738  0.1289
   31CHL1   H4B 2227   6.301   6.288   6.971  0.1297  0.3495  0.3242
   31CHL1    C5 2228   6.401   6.191   7.136 -0.3085 -0.2920 -0.3611
   31CHL1    C6 2229   6.314   6.247   7.225  0.3170  0.9415  0.0621
   31CHL1    H6 2230   6.228   6.301   7.182  0.3075 -0.7679 -2.2661
   31CHL1    C7 2231   6.328   6.223   7.371 -0.2044  0.4553  0.6614
   31CHL1   H7A 2232   6.281   6.307   7.427 -0.9073 -0.1481  0.9827
   31CHL1   H7B 2233   6.271   6.129   7.386 -1.0087  0.3542 -2.3798
   31CHL1    C8 2234   6.477   6.185   7.401 -0.0595  0.1870  0.2793
   31CHL1    H8 2235   6.541   6.276   7.393 -0.6296  0.9590  3.1703
   31CHL1   C14 2236   6.474   6.125   7.545  0.4474 -0.0024  0.1102
   31CHL1   H14 2237   6.426   6.025   7.536 -1.1451  0.7322  0.1569
   31CHL1   C15 2238   6.401   6.213   7.646 -0.5389 -0.7818  0.0862
   31CHL1  H15A 2239   6.427   6.319   7.625 -1.5762  0.0730  2.6307
   31CHL1  H15B 2240   6.291   6.196   7.650 -0.4924 -1.1835 -0.2627
   31CHL1   C16 2241   6.459   6.167   7.783  0.3702 -0.1789 -0.5862
   31CHL1  H16A 2242   6.486   6.263   7.832 -1.4186  0.0964 -0.0505
   31CHL1  H16B 2243   6.387   6.117   7.852  1.1766 -2.8854 -1.5875
   31CHL1   C17 2244   6.580   6.076   7.758  0.2192  0.2035  0.6785
   31CHL1   H17 2245   6.550   5.969   7.754  0.3062  0.2136 -1.0030
   31CHL1   C13 2246   6.613   6.099   7.600 -0.1577 -0.5529  0.2759
   31CHL1   C18 2247   6.704   6.231   7.594 -0.2362 -0.0337  0.4599
   31CHL1  H18A 2248   6.655   6.314   7.649  0.4486  0.2963  0.5825
   31CHL1  H18B 2249   6.800   6.212   7.647 -0.7141 -2.3389  0.6062
   31CHL1  H18C 2250   6.734   6.256   7.490 -3.1110  1.3300 -0.1142
   31CHL1   C12 2251   6.675   5.989   7.512  0.2629 -0.0913 -0.2433
   31CHL1  H12A 2252   6.780   5.965   7.541  0.6423  0.4227 -1.1462
   31CHL1  H12B 2253   6.621   5.893   7.512 -0.8456  0.5125 -0.1758
   31CHL1   C11 2254   6.674   6.022   7.370  0.3179  0.0102  0.7017
   31CHL1  H11A 2255   6.760   6.089   7.347 -0.9651  1.2248 -0.7791
   31CHL1  H11B 2256   6.703   5.935   7.307  0.8568  1.5408 -1.2977
   31CHL1    C9 2257   6.535   6.071   7.316  0.3671 -0.3797  0.3539
   31CHL1    H9 2258   6.459   5.992   7.331 -0.8888  0.5672 -0.7825
   31CHL1   C10 2259   6.527   6.113   7.171 -0.1596 -0.2689 -1.1049
   31CHL1   C19 2260   6.661   6.189   7.141 -0.3262  0.6089 -0.4670
   31CHL1  H19A 2261   6.745   6.118   7.144  1.8113  2.8631 -2.3839
   31CHL1  H19B 2262   6.660   6.227   7.037 -0.3693  0.8783 -0.3698
   31CHL1  H19C 2263   6.671   6.271   7.215 -0.7061  0.9380 -0.7746
   31CHL1    C1 2264   6.521   5.989   7.077 -0.0763  0.0478  0.6058
   31CHL1   H1A 2265   6.618   5.935   7.084  0.7367  1.6143  2.4476
   31CHL1   H1B 2266   6.441   5.923   7.115  0.0931  1.2017  3.2426
   31CHL1    C2 2267   6.499   6.017   6.925  0.3015  0.6045 -0.3505
   31CHL1   H2A 2268   6.489   5.921   6.869 -0.3835 -0.2150  1.1371
   31CHL1   H2B 2269   6.584   6.073   6.880 -0.8328  1.2038 -1.8330
   31CHL1   C20 2270   6.694   6.090   7.861  0.1229 -0.1543 -0.1414
   31CHL1   H20 2271   6.731   6.194   7.849  0.5614 -0.5830 -3.4289
   31CHL1   C21 2272   6.810   6.001   7.827 -0.0314 -0.5251  0.2768
   31CHL1  H21A 2273   6.870   6.035   7.740 -1.7310 -1.2147 -1.2331
   31CHL1  H21B 2274   6.775   5.897   7.814  0.5580 -0.5112 -1.7356
   31CHL1  H21C 2275   6.877   5.991   7.915 -0.4078  0.3216  0.6718
   31CHL1   C22 2276   6.646   6.065   8.008  0.1818  0.4424 -0.4104
   31CHL1  H22A 2277   6.539   6.093   8.018 -0.3949 -1.3431 -1.0818
   31CHL1  H22B 2278   6.631   5.957   8.030  0.1439  0.8457  1.7335
   31CHL1   C23 2279   6.727   6.129   8.122 -0.3419  0.7785  0.7255
   31CHL1  H23A 2280   6.836   6.118   8.100 -0.7718  1.2109 -2.0722
   31CHL1  H23B 2281   6.700   6.236   8.114 -0.6834  0.7463  1.3876
   31CHL1   C24 2282   6.682   6.068   8.255 -1.1019 -0.3152 -0.3471
   31CHL1  H24A 2283   6.575   6.090   8.277 -0.6401 -0.9592  3.1103
   31CHL1  H24B 2284   6.683   5.957   8.259 -1.1716 -0.4158 -2.1356
   31CHL1   C25 2285   6.752   6.122   8.380 -0.2227  0.3486 -1.0281
   31CHL1   H25 2286   6.760   6.233   8.370  0.1630  0.4200 -0.0430
   31CHL1   C26 2287   6.668   6.081   8.504 -0.1747 -0.3039  0.5362
   31CHL1  H26A 2288   6.660   5.970   8.501  0.0639 -0.3109 -2.0295
   31CHL1  H26B 2289   6.718   6.117   8.597 -0.6772 -0.1204  0.7403
   31CHL1  H26C 2290   6.566   6.126   8.514 -0.3568 -0.7995  0.9850
   31CHL1   C27 2291   6.898   6.068   8.388  0.4085 -0.8771 -0.2259
   31CHL1  H27A 2292   6.960   6.105   8.473 -0.3498  0.9881 -0.4346
   31CHL1  H27B 2293   6.947   6.087   8.290 -1.1555 -1.1444 -1.0947
   31CHL1  H27C 2294   6.894   5.959   8.407  2.3578 -0.9242  0.0551
   32CHL1    C3 2295   2.145   4.489   7.078 -0.5187  0.3310  0.4496
   32CHL1    H3 2296   2.076   4.408   7.112  1.3415 -2.4268 -1.8799
   32CHL1    O3 2297   2.156   4.462   6.943  0.1374  0.1140 -0.1515
   32CHL1   H3' 2298   2.165   4.366   6.935 -0.4780  0.1820 -2.4748
   32CHL1    C4 2299   2.083   4.627   7.105 -0.0517  0.1343  0.5244
   32CHL1   H4A 2300   2.160   4.701   7.072 -0.9693  0.4889 -0.9138
   32CHL1   H4B 2301   1.989   4.631   7.045 -0.8683 -2.6871  1.4713
   32CHL1    C5 2302   2.054   4.658   7.254  0.3338 -0.0225 -0.0320
   32CHL1    C6 2303   1.946   4.721   7.295 -0.2924  0.1900 -0.6306
   32CHL1    H6 2304   1.864   4.756   7.229 -0.1462  0.9899 -0.4064
   32CHL1    C7 2305   1.913   4.745   7.442 -0.0180 -0.1198  0.4239
   32CHL1   H7A 2306   1.911   4.856   7.450  1.1451 -0.2058  3.2461
   32CHL1   H7B 2307   1.815   4.706   7.475 -0.5808  1.0075  0.1543
   32CHL1    C8 2308   2.034   4.713   7.546  0.1966  0.9021  0.7581
   32CHL1    H8 2309   2.098   4.804   7.542  0.2477  0.8257 -1.6700
   32CHL1   C14 2310   1.988   4.698   7.694  0.3867 -0.2870 -0.3586
   32CHL1   H14 2311   1.929   4.604   7.703 -1.5975  0.8397 -0.9202
   32CHL1   C15 2312   1.920   4.814   7.760  0.5321 -0.6539 -0.0241
   32CHL1  H15A 2313   1.966   4.907   7.721 -0.1524  0.4150  1.6217
   32CHL1  H15B 2314   1.814   4.802   7.727  0.5361 -2.4207  0.5456
   32CHL1   C16 2315   1.931   4.793   7.910  0.0241  0.4455 -0.1667
   32CHL1  H16A 2316   1.965   4.877   7.974 -0.7904 -0.9074  2.1800
   32CHL1  H16B 2317   1.829   4.766   7.946 -0.7150 -1.3027 -3.1894
   32CHL1   C17 2318   2.029   4.670   7.933 -0.0470 -0.0378 -0.2117
   32CHL1   H17 2319   1.969   4.578   7.947 -0.4225  0.4006  1.2994
   32CHL1   C13 2320   2.102   4.663   7.793 -0.0908  0.2621 -0.6601
   32CHL1   C18 2321   2.206   4.779   7.800  0.1364 -0.0345  0.9179
   32CHL1  H18A 2322   2.153   4.871   7.834 -2.8882 -1.0554 -0.6424
   32CHL1  H18B 2323   2.294   4.761   7.865  0.6737  2.2104  0.8841
   32CHL1  H18C 2324   2.245   4.803   7.698  0.3582 -1.1999  0.7176
   32CHL1   C12 2325   2.172   4.532   7.750 -0.2016  0.1049  0.1793
   32CHL1  H12A 2326   2.254   4.507   7.822  0.5934  0.4633 -0.5872
   32CHL1  H12B 2327   2.104   4.446   7.766  0.4884 -0.3523  0.7603
   32CHL1   C11 2328   2.222   4.551   7.607 -0.1356  0.1438 -0.1582
   32CHL1  H11A 2329   2.299   4.631   7.616  0.7185 -0.8380  1.5621
   32CHL1  H11B 2330   2.272   4.453   7.592 -1.6458 -0.4219 -1.9580
   32CHL1    C9 2331   2.112   4.593   7.498  0.1699  0.4982 -0.2155
   32CHL1    H9 2332   2.045   4.505   7.493 -0.1050  0.7770 -2.2973
   32CHL1   C10 2333   2.162   4.606   7.349  0.7870 -0.1057  0.0722
   32CHL1   C19 2334   2.273   4.713   7.346  0.1232  0.0970 -0.1136
   32CHL1  H19A 2335   2.366   4.663   7.379 -0.4110 -0.5700  0.4252
   32CHL1  H19B 2336   2.278   4.756   7.244 -1.0445  0.5363 -0.0018
   32CHL1  H19C 2337   2.248   4.793   7.419  0.5513 -0.5336  0.7329
   32CHL1    C1 2338   2.228   4.472   7.303 -0.3032  0.4247  0.0211
   32CHL1   H1A 2339   2.308   4.441   7.374  0.0581 -0.8198 -0.8936
   32CHL1   H1B 2340   2.147   4.398   7.317 -0.9456  1.0766 -0.1507
   32CHL1    C2 2341   2.275   4.468   7.157 -1.1111 -0.1720 -0.2540
   32CHL1   H2A 2342   2.328   4.373   7.136  0.8891  0.5403  1.3283
   32CHL1   H2B 2343   2.356   4.538   7.126 -0.3923 -1.1374 -0.6118
   32CHL1   C20 2344   2.107   4.675   8.063 -0.2018  0.1547  0.2072
   32CHL1   H20 2345   2.172   4.765   8.059  0.1952 -0.1718 -0.7854
   32CHL1   C21 2346   2.202   4.556   8.083 -0.5132 -0.6278  0.8250
   32CHL1  H21A 2347   2.225   4.540   8.190 -0.0883 -2.1160  0.5430
   32CHL1  H21B 2348   2.296   4.571   8.025 -2.3208  3.0834 -1.4961
   32CHL1  H21C 2349   2.160   4.460   8.046  0.0671 -0.6669  0.2444
   32CHL1   C22 2350   2.018   4.692   8.190 -0.0719 -0.3429  0.3745
   32CHL1  H22A 2351   2.088   4.698   8.276 -1.6414 -2.0504  1.8671
   32CHL1  H22B 2352   1.965   4.789   8.183 -0.4955 -0.6533 -1.3780
   32CHL1   C23 2353   1.927   4.568   8.221 -0.0475 -0.0939  0.5372
   32CHL1  H23A 2354   1.872   4.538   8.129  0.6013  0.9237 -0.2090
   32CHL1  H23B 2355   1.995   4.485   8.251 -0.3945 -0.1982  1.0406
   32CHL1   C24 2356   1.831   4.587   8.338 -0.1496 -0.6076 -0.3364
   32CHL1  H24A 2357   1.894   4.599   8.428 -0.4804  0.9378 -0.2870
   32CHL1  H24B 2358   1.772   4.679   8.319  1.0381  0.5674  1.4201
   32CHL1   C25 2359   1.731   4.466   8.354  0.2842  0.0578 -0.5095
   32CHL1   H25 2360   1.692   4.465   8.250 -0.8198  2.9422 -0.2181
   32CHL1   C26 2361   1.806   4.338   8.408  0.3310 -0.9442 -0.0964
   32CHL1  H26A 2362   1.872   4.310   8.324  0.6944  1.1329 -0.5520
   32CHL1  H26B 2363   1.847   4.348   8.511 -2.1914 -2.9132  1.2026
   32CHL1  H26C 2364   1.732   4.257   8.425  0.9637 -1.4841  0.1404
   32CHL1   C27 2365   1.612   4.494   8.449  0.4675 -0.6952  0.1742
   32CHL1  H27A 2366   1.653   4.517   8.549  1.5930 -4.0652  0.5839
   32CHL1  H27B 2367   1.544   4.573   8.410  0.6023 -1.1503 -1.0372
   32CHL1  H27C 2368   1.544   4.406   8.444  1.7001 -1.6282 -0.4234
   33CHL1    C3 2369   2.531   5.673   6.861 -0.1324  0.5204  0.0357
   33CHL1    H3 2370   2.546   5.565   6.881  0.3209  1.1064  3.4678
   33CHL1    O3 2371   2.553   5.700   6.731 -0.0997  0.6455  0.0581
   33CHL1   H3' 2372   2.527   5.790   6.711  2.5357  1.4950  0.0571
   33CHL1    C4 2373   2.384   5.711   6.897  0.1748 -0.1559 -0.1421
   33CHL1   H4A 2374   2.391   5.821   6.879  2.8489 -0.1981  0.2471
   33CHL1   H4B 2375   2.331   5.640   6.831  2.7379 -1.0159 -1.3760
   33CHL1    C5 2376   2.352   5.689   7.048 -0.6612  0.4572 -0.5141
   33CHL1    C6 2377   2.250   5.613   7.094  0.0609 -0.1822 -0.0047
   33CHL1    H6 2378   2.173   5.570   7.029  0.0747 -0.0225 -0.1277
   33CHL1    C7 2379   2.245   5.589   7.247  0.7977  0.1754 -0.2858
   33CHL1   H7A 2380   2.140   5.588   7.283  0.9554 -0.5046  0.1836
   33CHL1   H7B 2381   2.283   5.487   7.266  1.2605  0.2747 -0.6571
   33CHL1    C8 2382   2.328   5.683   7.345  0.4627 -0.3262  0.7173
   33CHL1    H8 2383   2.286   5.786   7.334  1.3317 -0.1293 -1.3386
   33CHL1   C14 2384   2.333   5.626   7.482 -0.0079 -1.0357 -0.2298
   33CHL1   H14 2385   2.385   5.529   7.469  1.4859 -0.4145  0.8313
   33CHL1   C15 2386   2.200   5.599   7.550 -0.4515  0.0058 -0.4017
   33CHL1  H15A 2387   2.126   5.680   7.534  2.4399  2.5631 -1.8133
   33CHL1  H15B 2388   2.149   5.509   7.509 -1.4424 -0.5307  1.8711
   33CHL1   C16 2389   2.244   5.585   7.698  0.4149 -0.2736 -0.0831
   33CHL1  H16A 2390   2.184   5.644   7.771 -0.7791 -0.0307 -1.2160
   33CHL1  H16B 2391   2.218   5.483   7.735  1.9847 -0.6967 -0.1037
   33CHL1   C17 2392   2.396   5.628   7.712 -0.0539  0.3403  0.1991
   33CHL1   H17 2393   2.465   5.542   7.699  0.4630  0.6930  0.5171
   33CHL1   C13 2394   2.409   5.705   7.579 -0.0518  0.0968  0.7608
   33CHL1   C18 2395   2.348   5.848   7.590  0.3367 -0.2005 -0.2005
   33CHL1  H18A 2396   2.425   5.907   7.646  1.1876 -2.2492  0.8928
   33CHL1  H18B 2397   2.333   5.900   7.493  0.3371  0.2728  0.0478
   33CHL1  H18C 2398   2.255   5.842   7.651  1.0050 -0.6990  0.7922
   33CHL1   C12 2399   2.556   5.714   7.520  0.7185  0.6324  0.0698
   33CHL1  H12A 2400   2.615   5.776   7.591 -0.9915  1.7789  0.5480
   33CHL1  H12B 2401   2.610   5.617   7.518  0.1878  0.3356 -1.4785
   33CHL1   C11 2402   2.558   5.782   7.382 -0.1887  0.1371  1.1403
   33CHL1  H11A 2403   2.520   5.886   7.390  0.0825  0.3059  0.3463
   33CHL1  H11B 2404   2.665   5.779   7.352 -0.3640 -0.5409  0.5713
   33CHL1    C9 2405   2.466   5.696   7.282 -0.1019  0.8297  0.3268
   33CHL1    H9 2406   2.510   5.594   7.274  0.3607  0.7887  2.5685
   33CHL1   C10 2407   2.469   5.752   7.137  0.6393 -0.1824 -0.4562
   33CHL1   C19 2408   2.443   5.907   7.141  0.1356  0.5534  0.1985
   33CHL1  H19A 2409   2.443   5.949   7.038  1.0057 -0.0713 -0.0684
   33CHL1  H19B 2410   2.338   5.929   7.172  0.0535 -0.1177  0.4129
   33CHL1  H19C 2411   2.513   5.957   7.210 -2.6502  2.9356  1.5235
   33CHL1    C1 2412   2.618   5.724   7.082 -0.3422 -0.7156 -0.7591
   33CHL1   H1A 2413   2.696   5.780   7.138 -0.7129  0.2455 -1.1781
   33CHL1   H1B 2414   2.635   5.615   7.100 -2.2598 -0.7545  1.1464
   33CHL1    C2 2415   2.630   5.754   6.936 -0.2300 -0.2762 -1.1077
   33CHL1   H2A 2416   2.728   5.726   6.891  1.4396  0.5229  1.7564
   33CHL1   H2B 2417   2.616   5.864   6.928 -0.8336  0.1945  3.4818
   33CHL1   C20 2418   2.428   5.698   7.839  0.0859  0.5264  0.3953
   33CHL1   H20 2419   2.355   5.780   7.862 -0.3191  0.5505 -0.9218
   33CHL1   C21 2420   2.568   5.760   7.861  0.1496  0.8728  0.1734
   33CHL1  H21A 2421   2.581   5.781   7.970 -1.2442  1.3580  0.2656
   33CHL1  H21B 2422   2.580   5.861   7.817  0.9894  0.7771  0.1699
   33CHL1  H21C 2423   2.654   5.695   7.835 -0.9588 -0.7221  0.3202
   33CHL1   C22 2424   2.409   5.601   7.961  0.7832  0.1010  0.1262
   33CHL1  H22A 2425   2.335   5.520   7.946  1.2715 -0.2443 -0.4192
   33CHL1  H22B 2426   2.502   5.547   7.989  0.8401  0.3286  0.3850
   33CHL1   C23 2427   2.366   5.681   8.085  0.2001 -0.1519  0.5500
   33CHL1  H23A 2428   2.437   5.765   8.100  1.1749 -0.8547  0.0164
   33CHL1  H23B 2429   2.273   5.741   8.072  0.3471 -0.3614 -2.0577
   33CHL1   C24 2430   2.353   5.596   8.214  0.8096 -0.1693 -0.5890
   33CHL1  H24A 2431   2.443   5.532   8.224  0.6701 -0.6587 -2.2572
   33CHL1  H24B 2432   2.334   5.660   8.303 -1.3285 -2.1789  0.5307
   33CHL1   C25 2433   2.234   5.497   8.204 -0.8390  0.3122  0.0939
   33CHL1   H25 2434   2.268   5.413   8.140 -3.9308 -2.2945  1.5656
   33CHL1   C26 2435   2.224   5.434   8.347  0.1662 -0.4973 -0.1189
   33CHL1  H26A 2436   2.321   5.389   8.378  1.0253  0.3257 -1.5073
   33CHL1  H26B 2437   2.200   5.516   8.418 -2.4344  0.3132 -1.7949
   33CHL1  H26C 2438   2.146   5.354   8.344 -0.4492 -0.0203  1.6752
   33CHL1   C27 2439   2.104   5.557   8.145  0.2096 -0.2806 -0.3854
   33CHL1  H27A 2440   2.018   5.487   8.153  0.0240 -0.1802 -1.2935
   33CHL1  H27B 2441   2.076   5.648   8.201 -2.6537 -0.9812 -0.5283
   33CHL1  H27C 2442   2.124   5.574   8.037 -0.4507 -1.6484 -0.7463
   34CHL1    C3 2443   4.258   2.974   7.144  0.5534 -0.0299 -0.5415
   34CHL1    H3 2444   4.253   2.870   7.184  1.8533  0.6787  1.6899
   34CHL1    O3 2445   4.251   2.965   7.001  0.2676 -0.5554  0.0570
   34CHL1   H3' 2446   4.301   3.043   6.976 -0.0345 -0.4039 -0.0781
   34CHL1    C4 2447   4.130   3.047   7.187 -0.2038  0.6652 -0.4243
   34CHL1   H4A 2448   4.136   3.139   7.125  2.3555  0.2083 -0.9581
   34CHL1   H4B 2449   4.043   2.990   7.146  1.4975 -0.3600 -2.8968
   34CHL1    C5 2450   4.129   3.072   7.333 -0.2041 -0.1120  0.2372
   34CHL1    C6 2451   4.025   3.027   7.408  0.0441 -0.5363  0.1006
   34CHL1    H6 2452   3.950   2.963   7.359 -0.1898  0.4119 -0.8107
   34CHL1    C7 2453   4.016   3.060   7.557 -0.0325 -0.0185 -0.1878
   34CHL1   H7A 2454   3.910   3.092   7.563 -1.1343 -3.2071 -0.6054
   34CHL1   H7B 2455   4.048   2.975   7.622  1.9886  0.8517  0.0061
   34CHL1    C8 2456   4.112   3.177   7.598  0.3132  0.1137  0.4750
   34CHL1    H8 2457   4.075   3.275   7.560  0.8585  0.6834  1.3934
   34CHL1   C14 2458   4.124   3.191   7.752 -0.3333 -0.3498  0.1329
   34CHL1   H14 2459   4.166   3.094   7.786 -2.1384 -0.7395  1.3644
   34CHL1   C15 2460   3.993   3.210   7.828  1.0009  1.0059  0.6645
   34CHL1  H15A 2461   3.923   3.287   7.787 -0.3496 -2.3987 -4.4034
   34CHL1  H15B 2462   3.923   3.125   7.843  1.8699 -0.2679 -1.8237
   34CHL1   C16 2463   4.035   3.240   7.973 -0.1220  0.0720 -0.1113
   34CHL1  H16A 2464   3.994   3.341   7.996  2.4164  1.6521 -1.8541
   34CHL1  H16B 2465   4.000   3.168   8.049 -3.3207 -0.5310 -1.9726
   34CHL1   C17 2466   4.187   3.280   7.957 -0.0637  0.2205 -0.0971
   34CHL1   H17 2467   4.247   3.192   7.991 -0.1915  0.8790  1.9729
   34CHL1   C13 2468   4.221   3.299   7.810  0.0968 -0.4425  0.5636
   34CHL1   C18 2469   4.181   3.442   7.765  0.7917 -1.0219  0.0539
   34CHL1  H18A 2470   4.085   3.477   7.808  0.9941  0.6255 -0.7465
   34CHL1  H18B 2471   4.249   3.524   7.795 -0.4654  0.2020 -0.3321
   34CHL1  H18C 2472   4.181   3.459   7.655  0.7979  2.1448  0.4444
   34CHL1   C12 2473   4.366   3.259   7.759  0.2648  0.2929 -0.1363
   34CHL1  H12A 2474   4.429   3.347   7.786  0.7792 -0.1058 -0.0342
   34CHL1  H12B 2475   4.388   3.165   7.813  0.6942  1.4023  1.6972
   34CHL1   C11 2476   4.372   3.242   7.610  0.4535 -0.3349  0.2353
   34CHL1  H11A 2477   4.349   3.343   7.570 -4.1239 -1.2298  0.0327
   34CHL1  H11B 2478   4.472   3.221   7.567 -0.0503  0.3291 -1.3094
   34CHL1    C9 2479   4.258   3.152   7.542 -1.5128  0.3157  0.4147
   34CHL1    H9 2480   4.284   3.049   7.573  0.1466 -0.0636 -2.0137
   34CHL1   C10 2481   4.262   3.149   7.395 -0.5200  0.1850  0.7682
   34CHL1   C19 2482   4.265   3.294   7.341  0.2748 -1.0228  0.4169
   34CHL1  H19A 2483   4.171   3.340   7.380 -0.2698 -2.7012  1.1704
   34CHL1  H19B 2484   4.356   3.348   7.373 -0.8161  1.4494 -0.4364
   34CHL1  H19C 2485   4.255   3.301   7.230  1.7086  0.8816  0.3664
   34CHL1    C1 2486   4.383   3.065   7.346  0.1191  0.2252  0.2258
   34CHL1   H1A 2487   4.473   3.121   7.379  0.7944 -1.0934  0.7199
   34CHL1   H1B 2488   4.388   2.965   7.396  0.5503  1.2936  2.4686
   34CHL1    C2 2489   4.385   3.046   7.191 -0.6211 -0.7126  0.1774
   34CHL1   H2A 2490   4.468   2.984   7.151  0.2835  1.1178 -0.9500
   34CHL1   H2B 2491   4.389   3.150   7.153 -1.0094 -0.8227 -0.1655
   34CHL1   C20 2492   4.225   3.396   8.046  0.2059 -0.2172 -0.4307
   34CHL1   H20 2493   4.173   3.491   8.018 -0.1646  0.3885  2.0690
   34CHL1   C21 2494   4.374   3.414   8.043  0.1706  0.5971 -0.1367
   34CHL1  H21A 2495   4.414   3.440   8.143 -1.4053 -2.0658  1.2800
   34CHL1  H21B 2496   4.405   3.481   7.960  1.6503 -0.5469 -0.5493
   34CHL1  H21C 2497   4.427   3.318   8.026  3.6239  2.3846 -0.3649
   34CHL1   C22 2498   4.180   3.370   8.192  0.9180  0.0395  0.2679
   34CHL1  H22A 2499   4.144   3.265   8.203 -0.3290  0.3078 -0.9463
   34CHL1  H22B 2500   4.262   3.378   8.267  2.9325  1.7441 -1.9526
   34CHL1   C23 2501   4.070   3.475   8.233 -0.3033  0.1964  0.3594
   34CHL1  H23A 2502   4.114   3.567   8.276 -0.5289  0.9709 -1.0040
   34CHL1  H23B 2503   4.018   3.501   8.138  0.6254 -1.2810 -0.6133
   34CHL1   C24 2504   3.956   3.415   8.323 -0.8022  0.3256  0.5569
   34CHL1  H24A 2505   3.876   3.492   8.325 -0.9562  0.1650  0.5843
   34CHL1  H24B 2506   3.916   3.328   8.266 -1.4286  0.8320  0.2092
   34CHL1   C25 2507   3.994   3.372   8.467 -0.0796 -0.0312  0.0699
   34CHL1   H25 2508   4.103   3.355   8.479  0.4661  1.6782 -1.9258
   34CHL1   C26 2509   3.960   3.474   8.577  0.3269 -0.1952 -0.0731
   34CHL1  H26A 2510   3.963   3.439   8.682  2.3064  0.8858  0.2745
   34CHL1  H26B 2511   4.030   3.560   8.589  1.5151 -1.4623  3.2259
   34CHL1  H26C 2512   3.857   3.512   8.560  0.5888 -0.5141 -2.7835
   34CHL1   C27 2513   3.926   3.235   8.496 -0.0175  0.5016  0.0277
   34CHL1  H27A 2514   3.965   3.150   8.436 -0.3835 -0.4519  1.0924
   34CHL1  H27B 2515   3.959   3.212   8.600  3.5661 -2.8047 -1.6187
   34CHL1  H27C 2516   3.817   3.248   8.475 -0.1656 -0.9372 -0.1923
   35CHL1    C3 2517   6.012   3.670   7.320  1.0848 -0.8918  0.0368
   35CHL1    H3 2518   5.907   3.651   7.351  1.1814 -1.6113 -0.0705
   35CHL1    O3 2519   6.024   3.699   7.180 -0.0262 -0.1715  0.2941
   35CHL1   H3' 2520   6.005   3.617   7.134 -2.6665 -0.3674  1.5494
   35CHL1    C4 2521   6.062   3.787   7.407 -0.1087  0.5828 -0.6730
   35CHL1   H4A 2522   6.163   3.819   7.375  0.4377  1.0930  1.4138
   35CHL1   H4B 2523   6.000   3.878   7.391 -1.8398 -0.7208 -1.8471
   35CHL1    C5 2524   6.066   3.738   7.551  0.6555 -0.8235 -0.3566
   35CHL1    C6 2525   6.010   3.823   7.644 -0.8401  0.3557 -0.3249
   35CHL1    H6 2526   5.966   3.921   7.620  0.0623  1.2182  1.3432
   35CHL1    C7 2527   6.017   3.798   7.791 -0.2570 -0.1602  0.5087
   35CHL1   H7A 2528   6.032   3.888   7.854 -0.8110 -0.1060  0.5636
   35CHL1   H7B 2529   5.922   3.761   7.834 -0.4884  2.0864  2.0710
   35CHL1    C8 2530   6.140   3.700   7.821 -0.4295 -0.2120 -0.6553
   35CHL1    H8 2531   6.230   3.764   7.807  0.6385 -1.8417 -1.6227
   35CHL1   C14 2532   6.134   3.641   7.964  0.2082 -0.3632 -0.9686
   35CHL1   H14 2533   6.049   3.570   7.963  1.7603 -2.2873 -0.4596
   35CHL1   C15 2534   6.110   3.734   8.083 -0.7054 -0.6449  0.5135
   35CHL1  H15A 2535   6.174   3.822   8.063 -0.1395 -0.6059  2.3204
   35CHL1  H15B 2536   6.004   3.768   8.085 -0.9587 -1.3877  0.0613
   35CHL1   C16 2537   6.157   3.664   8.217  0.2658  0.0236  0.4072
   35CHL1  H16A 2538   6.233   3.728   8.267  3.4837 -2.2428 -1.2099
   35CHL1  H16B 2539   6.077   3.637   8.290  3.0207 -1.1566  3.1938
   35CHL1   C17 2540   6.220   3.525   8.162 -0.2288 -0.9552 -0.0687
   35CHL1   H17 2541   6.128   3.466   8.145 -0.9711  0.2681 -0.4004
   35CHL1   C13 2542   6.258   3.550   8.011  0.2191 -0.2686 -0.1913
   35CHL1   C18 2543   6.391   3.632   8.004 -0.5327  0.6847 -0.0370
   35CHL1  H18A 2544   6.394   3.734   8.048  0.0323 -0.6907  3.4739
   35CHL1  H18B 2545   6.475   3.587   8.062 -0.1426  1.6991  0.2122
   35CHL1  H18C 2546   6.420   3.654   7.899 -0.8038  1.2556  0.0067
   35CHL1   C12 2547   6.249   3.428   7.921 -0.2347 -0.2552  0.7606
   35CHL1  H12A 2548   6.330   3.355   7.942  0.3635  0.3933  0.7622
   35CHL1  H12B 2549   6.153   3.372   7.930 -1.9986  2.4756  0.0910
   35CHL1   C11 2550   6.260   3.471   7.771 -0.0428  0.2279  0.2142
   35CHL1  H11A 2551   6.359   3.512   7.744  0.3239 -0.5632  0.3219
   35CHL1  H11B 2552   6.260   3.380   7.708 -1.9419  1.0766 -1.1227
   35CHL1    C9 2553   6.154   3.580   7.723  0.1093  0.0588 -0.2519
   35CHL1    H9 2554   6.061   3.522   7.740 -0.1383  1.0261  2.2780
   35CHL1   C10 2555   6.151   3.619   7.576  0.4035  0.1714  0.2760
   35CHL1   C19 2556   6.292   3.657   7.544  0.0521 -0.1513 -0.1064
   35CHL1  H19A 2557   6.330   3.731   7.618 -0.8478  1.0912 -0.8509
   35CHL1  H19B 2558   6.356   3.566   7.550 -0.9893 -0.8748  0.2889
   35CHL1  H19C 2559   6.312   3.702   7.444  0.1913  1.3973  0.5891
   35CHL1    C1 2560   6.108   3.502   7.487  0.5222 -0.2713  0.6345
   35CHL1   H1A 2561   6.193   3.430   7.493  0.1416 -1.1210 -2.4724
   35CHL1   H1B 2562   6.011   3.456   7.518 -1.0719  2.9309  0.7464
   35CHL1    C2 2563   6.094   3.541   7.337  0.0046  0.1122  0.1473
   35CHL1   H2A 2564   6.046   3.451   7.294 -0.3465  0.1670  0.4207
   35CHL1   H2B 2565   6.191   3.555   7.284  1.3396 -0.8154  2.2293
   35CHL1   C20 2566   6.307   3.447   8.253 -0.2517  0.9106 -0.1783
   35CHL1   H20 2567   6.366   3.375   8.193 -2.3042 -1.0624  0.0553
   35CHL1   C21 2568   6.214   3.358   8.340 -0.1001  0.7633 -0.5918
   35CHL1  H21A 2569   6.146   3.424   8.398  1.0737  1.6847 -0.2030
   35CHL1  H21B 2570   6.265   3.301   8.421 -0.4295  1.6380  0.2577
   35CHL1  H21C 2571   6.151   3.283   8.289 -1.1061  0.7345  0.6389
   35CHL1   C22 2572   6.407   3.528   8.334 -0.4011  0.4382 -0.0492
   35CHL1  H22A 2573   6.444   3.615   8.277 -0.1211  0.5265  0.2638
   35CHL1  H22B 2574   6.352   3.571   8.421 -2.9320 -2.4234 -0.0228
   35CHL1   C23 2575   6.526   3.447   8.391  0.4775 -0.3024  0.4588
   35CHL1  H23A 2576   6.489   3.365   8.455  0.7967 -0.5257  0.3608
   35CHL1  H23B 2577   6.585   3.405   8.306  1.3356  0.0251  0.8770
   35CHL1   C24 2578   6.615   3.530   8.478 -0.2551 -1.0018 -0.2805
   35CHL1  H24A 2579   6.653   3.621   8.426 -4.7752 -0.0261 -2.3037
   35CHL1  H24B 2580   6.534   3.571   8.543 -0.6680  0.2429 -1.5280
   35CHL1   C25 2581   6.737   3.450   8.547 -0.6719 -0.4814  0.5202
   35CHL1   H25 2582   6.699   3.346   8.537  0.3933 -0.9405  1.0591
   35CHL1   C26 2583   6.867   3.454   8.464 -0.4419  0.4911  0.6536
   35CHL1  H26A 2584   6.850   3.398   8.370 -0.8160  0.1500  0.9223
   35CHL1  H26B 2585   6.897   3.559   8.447 -3.8954  1.3020 -1.3126
   35CHL1  H26C 2586   6.946   3.404   8.525  0.3829  0.7859 -0.1527
   35CHL1   C27 2587   6.761   3.488   8.698  0.0396  0.1658 -0.3598
   35CHL1  H27A 2588   6.768   3.599   8.701  0.3944  0.1172  0.9492
   35CHL1  H27B 2589   6.845   3.430   8.741 -1.1783 -1.1781  0.2985
   35CHL1  H27C 2590   6.665   3.473   8.752 -0.3041  1.0331 -0.7085
   36CHL1    C3 2591   1.618   4.462   7.143  0.4157 -0.1704 -0.3960
   36CHL1    H3 2592   1.693   4.542   7.120  0.8561 -0.1137  1.1401
   36CHL1    O3 2593   1.632   4.375   7.030 -0.0195  0.8827  0.3401
   36CHL1   H3' 2594   1.555   4.317   7.031 -1.1456  2.3233  1.4844
   36CHL1    C4 2595   1.665   4.379   7.270  0.0510  0.7479  0.9177
   36CHL1   H4A 2596   1.619   4.279   7.252 -2.7769  1.9268  1.0271
   36CHL1   H4B 2597   1.775   4.363   7.273 -0.2334 -2.2761 -0.6682
   36CHL1    C5 2598   1.633   4.431   7.406  0.7069 -0.1094 -0.0147
   36CHL1    C6 2599   1.717   4.454   7.502  0.5187 -0.2361 -0.2097
   36CHL1    H6 2600   1.823   4.435   7.483  1.3808  0.5185  3.1038
   36CHL1    C7 2601   1.679   4.510   7.634  0.3925 -0.9808 -0.1368
   36CHL1   H7A 2602   1.747   4.488   7.719  1.9245  1.2142 -0.6971
   36CHL1   H7B 2603   1.694   4.620   7.635 -0.1360 -0.8867  2.0028
   36CHL1    C8 2604   1.529   4.493   7.669 -0.3796  0.5222  0.1515
   36CHL1    H8 2605   1.505   4.386   7.689 -0.8000  0.5035 -0.4345
   36CHL1   C14 2606   1.487   4.561   7.794  0.0401  0.0598 -0.6235
   36CHL1   H14 2607   1.488   4.672   7.785  0.5008  0.0792 -0.3601
   36CHL1   C15 2608   1.582   4.530   7.922  0.2538 -0.1296 -0.3393
   36CHL1  H15A 2609   1.595   4.420   7.912 -0.9983 -0.1564 -2.4140
   36CHL1  H15B 2610   1.682   4.578   7.916  1.0482 -1.6331  0.3082
   36CHL1   C16 2611   1.492   4.568   8.043  0.5351  0.1744  0.4162
   36CHL1  H16A 2612   1.497   4.484   8.116 -3.0361  0.4423  1.1524
   36CHL1  H16B 2613   1.527   4.657   8.101  0.4539 -0.4140  1.4016
   36CHL1   C17 2614   1.351   4.599   7.985 -0.0505 -0.0122 -0.6184
   36CHL1   H17 2615   1.351   4.709   7.971  0.8565  0.4205  2.1049
   36CHL1   C13 2616   1.337   4.535   7.842 -0.2970 -0.1864  0.1039
   36CHL1   C18 2617   1.290   4.383   7.855  0.0352 -0.3178 -0.1494
   36CHL1  H18A 2618   1.188   4.386   7.901  1.4750 -0.2152  3.3348
   36CHL1  H18B 2619   1.295   4.328   7.758  2.1407 -0.2052 -0.1349
   36CHL1  H18C 2620   1.352   4.324   7.926  0.2000  2.0501  1.7813
   36CHL1   C12 2621   1.243   4.600   7.727 -0.4439  0.0294  0.1632
   36CHL1  H12A 2622   1.133   4.592   7.741 -0.6610  0.6712 -1.0190
   36CHL1  H12B 2623   1.262   4.709   7.721  0.3113 -0.1292 -0.5700
   36CHL1   C11 2624   1.282   4.541   7.587 -0.3197  0.1545 -0.1470
   36CHL1  H11A 2625   1.242   4.438   7.601 -1.2129  0.6094  0.8095
   36CHL1  H11B 2626   1.221   4.585   7.506  2.6366  1.8716 -1.6133
   36CHL1    C9 2627   1.437   4.542   7.551  0.3032 -0.4219  1.0333
   36CHL1    H9 2628   1.446   4.653   7.544 -0.2758 -0.4770 -1.5602
   36CHL1   C10 2629   1.482   4.472   7.421 -0.9833  0.2853  0.3315
   36CHL1   C19 2630   1.399   4.345   7.403 -0.0059 -0.4658  0.1291
   36CHL1  H19A 2631   1.296   4.384   7.389  0.2862  0.4223  0.4273
   36CHL1  H19B 2632   1.418   4.276   7.318 -1.1520 -1.0219  0.3073
   36CHL1  H19C 2633   1.422   4.278   7.489  0.1591 -1.0593 -0.3650
   36CHL1    C1 2634   1.454   4.567   7.298 -0.4485  0.8710 -0.8006
   36CHL1   H1A 2635   1.350   4.606   7.307 -1.6709 -2.2905  0.1141
   36CHL1   H1B 2636   1.525   4.651   7.312 -1.5426  1.6706  0.2201
   36CHL1    C2 2637   1.475   4.508   7.153 -0.1151 -0.1789 -0.2873
   36CHL1   H2A 2638   1.445   4.575   7.070  1.5448  0.0624 -0.7278
   36CHL1   H2B 2639   1.413   4.416   7.144 -0.3864 -0.0295  0.0372
   36CHL1   C20 2640   1.234   4.568   8.086 -0.2236  0.4620  0.9494
   36CHL1   H20 2641   1.149   4.544   8.019 -0.0555  2.8660 -0.2200
   36CHL1   C21 2642   1.203   4.698   8.156  0.3664  0.1372  0.1746
   36CHL1  H21A 2643   1.178   4.780   8.084 -0.0315 -0.6865 -0.6507
   36CHL1  H21B 2644   1.286   4.722   8.225 -0.4569  1.3894  0.7771
   36CHL1  H21C 2645   1.118   4.682   8.225  1.5465  0.9691  1.8818
   36CHL1   C22 2646   1.249   4.444   8.180 -0.4928  0.3155 -0.3839
   36CHL1  H22A 2647   1.306   4.360   8.134 -0.4334  0.0701  0.1358
   36CHL1  H22B 2648   1.319   4.475   8.260 -1.0860 -0.9657  0.6753
   36CHL1   C23 2649   1.116   4.392   8.241  0.1841 -0.3632  0.1924
   36CHL1  H23A 2650   1.069   4.476   8.297  1.0997 -0.3201  0.9191
   36CHL1  H23B 2651   1.046   4.369   8.158  0.7318 -0.0528 -0.3600
   36CHL1   C24 2652   1.129   4.272   8.326 -0.3315  1.1438 -0.1499
   36CHL1  H24A 2653   1.188   4.195   8.272  0.0392 -0.4357  2.3448
   36CHL1  H24B 2654   1.195   4.299   8.411 -0.1866  0.9064 -0.1866
   36CHL1   C25 2655   0.987   4.215   8.364  0.1767  0.1152  0.3135
   36CHL1   H25 2656   0.959   4.171   8.266  2.9059 -0.2904 -0.3822
   36CHL1   C26 2657   0.997   4.113   8.483 -0.1007 -0.2135 -0.4704
   36CHL1  H26A 2658   0.949   4.014   8.466  2.7542 -1.2973 -3.2313
   36CHL1  H26B 2659   1.103   4.080   8.491 -0.3946 -0.6213  3.1840
   36CHL1  H26C 2660   0.992   4.156   8.585 -1.2375 -1.1536 -0.1030
   36CHL1   C27 2661   0.891   4.324   8.405  0.2631  0.0233  0.1207
   36CHL1  H27A 2662   0.938   4.381   8.487 -0.0226 -2.1525  1.8958
   36CHL1  H27B 2663   0.862   4.396   8.325  1.1275 -1.5334 -1.6537
   36CHL1  H27C 2664   0.793   4.288   8.444  0.6704  0.6326  1.7987
   37CHL1    C3 2665   3.430   6.125   6.898 -0.4490 -0.5062 -0.0861
   37CHL1    H3 2666   3.475   6.224   6.923 -0.9427 -0.6564  1.5105
   37CHL1    O3 2667   3.446   6.104   6.760  0.0514  0.4253  0.8259
   37CHL1   H3' 2668   3.390   6.162   6.708 -3.2302 -3.3345 -0.3060
   37CHL1    C4 2669   3.493   6.023   6.987  0.3988  0.6719 -0.6680
   37CHL1   H4A 2670   3.431   5.934   6.965 -0.6281  1.6875 -2.0375
   37CHL1   H4B 2671   3.599   6.016   6.956  0.3848  2.1992 -1.1108
   37CHL1    C5 2672   3.471   6.075   7.128  0.1636  0.0151 -0.4106
   37CHL1    C6 2673   3.581   6.099   7.202 -0.5077  0.3272 -0.0447
   37CHL1    H6 2674   3.681   6.079   7.161 -0.4342 -0.2684  0.4064
   37CHL1    C7 2675   3.582   6.148   7.348  0.4004 -1.0513 -0.4063
   37CHL1   H7A 2676   3.656   6.101   7.416  0.6346  2.2319  1.8346
   37CHL1   H7B 2677   3.623   6.251   7.347  0.3316 -0.9901 -2.6756
   37CHL1    C8 2678   3.439   6.147   7.412 -0.1989 -0.7013  0.3685
   37CHL1    H8 2679   3.422   6.041   7.440 -1.2418 -0.3092  1.3104
   37CHL1   C14 2680   3.443   6.232   7.535  0.0041 -0.0304  0.4191
   37CHL1   H14 2681   3.461   6.336   7.498 -1.1412 -0.1364 -0.4766
   37CHL1   C15 2682   3.562   6.225   7.634  0.6046 -0.0099 -0.0005
   37CHL1  H15A 2683   3.574   6.118   7.662 -1.5469  0.1340  1.7636
   37CHL1  H15B 2684   3.654   6.268   7.589  1.4900 -0.5237  1.2652
   37CHL1   C16 2685   3.505   6.303   7.755 -0.4860 -0.1486 -0.1747
   37CHL1  H16A 2686   3.521   6.249   7.851 -1.6439  1.3998  0.9438
   37CHL1  H16B 2687   3.551   6.403   7.770 -2.8412  0.9068  0.4127
   37CHL1   C17 2688   3.360   6.337   7.731  0.1933  0.0725  0.0231
   37CHL1   H17 2689   3.363   6.436   7.680  1.3428  0.1914  0.2821
   37CHL1   C13 2690   3.313   6.237   7.619  0.1700  0.1180 -0.1516
   37CHL1   C18 2691   3.282   6.103   7.689 -0.2489  0.5568 -0.4965
   37CHL1  H18A 2692   3.360   6.059   7.755 -2.7549 -2.1250  0.8978
   37CHL1  H18B 2693   3.188   6.105   7.747 -1.0908 -0.2399 -1.7992
   37CHL1  H18C 2694   3.267   6.025   7.612  1.7149 -0.2405 -0.1493
   37CHL1   C12 2695   3.198   6.272   7.525 -0.3085 -0.7793 -0.4108
   37CHL1  H12A 2696   3.103   6.276   7.581 -1.0482  2.7862 -1.6899
   37CHL1  H12B 2697   3.219   6.377   7.495 -0.7887 -0.4851  0.2758
   37CHL1   C11 2698   3.188   6.190   7.399 -0.0483 -0.1132 -0.0265
   37CHL1  H11A 2699   3.169   6.085   7.431  1.0644  0.0686  1.2956
   37CHL1  H11B 2700   3.107   6.235   7.337  1.3529  0.5761 -1.4463
   37CHL1    C9 2701   3.330   6.178   7.319  0.1213  0.2653 -0.8590
   37CHL1    H9 2702   3.348   6.285   7.293  0.5104  0.5600  0.5293
   37CHL1   C10 2703   3.325   6.097   7.178  0.1515 -0.0298 -0.4971
   37CHL1   C19 2704   3.253   5.963   7.197 -0.1406  0.4334 -0.0462
   37CHL1  H19A 2705   3.242   5.910   7.100 -2.0784  1.7220 -0.5804
   37CHL1  H19B 2706   3.298   5.896   7.273 -0.1124 -1.3284 -1.5435
   37CHL1  H19C 2707   3.145   5.973   7.220 -0.3628 -3.6102  1.4347
   37CHL1    C1 2708   3.248   6.181   7.072 -0.0743  0.2743 -0.7369
   37CHL1   H1A 2709   3.138   6.184   7.089 -0.0341  1.0254 -0.5721
   37CHL1   H1B 2710   3.283   6.286   7.085  0.2094  0.3622 -2.0978
   37CHL1    C2 2711   3.277   6.138   6.930  0.3716 -0.5512  0.6322
   37CHL1   H2A 2712   3.228   6.203   6.854 -1.0520 -1.9264  0.3096
   37CHL1   H2B 2713   3.228   6.039   6.918 -1.6202  0.5930 -1.7540
   37CHL1   C20 2714   3.285   6.365   7.865 -0.2801  0.2730  0.0724
   37CHL1   H20 2715   3.275   6.272   7.925  0.9766  0.4745  0.6209
   37CHL1   C21 2716   3.145   6.402   7.841  0.3647  0.7601  0.0216
   37CHL1  H21A 2717   3.084   6.317   7.803  0.5296  0.4461  0.4468
   37CHL1  H21B 2718   3.136   6.489   7.774 -0.4237 -0.0300 -0.9242
   37CHL1  H21C 2719   3.092   6.418   7.938 -2.0432  1.6619 -1.3735
   37CHL1   C22 2720   3.356   6.478   7.955 -0.0734 -0.1812  0.0485
   37CHL1  H22A 2721   3.459   6.439   7.967  0.9915  2.2226 -0.7019
   37CHL1  H22B 2722   3.372   6.579   7.910  0.3441 -0.1315  0.3096
   37CHL1   C23 2723   3.278   6.488   8.089 -0.3287 -0.2533 -0.1269
   37CHL1  H23A 2724   3.182   6.542   8.077  2.0033  4.2278 -0.7144
   37CHL1  H23B 2725   3.273   6.385   8.131 -0.1974 -0.6502 -1.0552
   37CHL1   C24 2726   3.350   6.562   8.203  0.2710  0.2588 -0.2447
   37CHL1  H24A 2727   3.277   6.576   8.285  1.4384  3.3941  0.3768
   37CHL1  H24B 2728   3.438   6.503   8.237  0.6446  0.2052 -1.2608
   37CHL1   C25 2729   3.400   6.699   8.166 -0.2792 -0.4653  0.1098
   37CHL1   H25 2730   3.468   6.689   8.078  0.0718  2.5680 -0.0621
   37CHL1   C26 2731   3.293   6.788   8.128  0.3303 -0.2738  0.4324
   37CHL1  H26A 2732   3.222   6.731   8.064  0.7982 -0.5087  0.1171
   37CHL1  H26B 2733   3.238   6.824   8.217 -0.9603  0.1075 -0.4857
   37CHL1  H26C 2734   3.320   6.883   8.077 -2.1011  0.0332 -0.4748
   37CHL1   C27 2735   3.480   6.759   8.277 -0.1983  0.6927 -0.0906
   37CHL1  H27A 2736   3.565   6.693   8.302 -1.4782 -0.5311  1.1966
   37CHL1  H27B 2737   3.524   6.857   8.247  2.5444  0.3992  2.4737
   37CHL1  H27C 2738   3.422   6.784   8.368  1.4934 -0.2306  1.3017
   38CHL1    C3 2739   0.350   1.175   6.749  0.3704  0.1513  0.0999
   38CHL1    H3 2740   0.447   1.140   6.706  1.5354  1.6652  1.3763
   38CHL1    O3 2741   0.283   1.241   6.644 -0.2628 -0.2133 -0.0435
   38CHL1   H3' 2742   0.349   1.304   6.613  0.0884  1.0609  2.9076
   38CHL1    C4 2743   0.263   1.050   6.800 -0.5844 -0.1360  0.5588
   38CHL1   H4A 2744   0.159   1.087   6.815 -0.8881 -1.3303  1.6058
   38CHL1   H4B 2745   0.249   0.978   6.717 -2.5094  0.8528 -0.0393
   38CHL1    C5 2746   0.316   0.990   6.931 -0.5126 -0.1639 -0.2947
   38CHL1    C6 2747   0.333   0.857   6.946  0.0648  0.5942 -0.7446
   38CHL1    H6 2748   0.310   0.799   6.855 -0.5610 -0.2974 -0.0352
   38CHL1    C7 2749   0.371   0.779   7.071 -0.6530  0.4828  0.0250
   38CHL1   H7A 2750   0.311   0.686   7.082 -0.5415  0.2216 -1.4171
   38CHL1   H7B 2751   0.475   0.744   7.053 -1.6160 -1.1933 -2.7525
   38CHL1    C8 2752   0.366   0.867   7.201 -0.3620  0.2624  0.0417
   38CHL1    H8 2753   0.257   0.874   7.219 -0.9103  0.2879 -2.8406
   38CHL1   C14 2754   0.434   0.801   7.321  0.3600  0.1753  0.0482
   38CHL1   H14 2755   0.545   0.793   7.315  0.2195 -0.9950 -1.3551
   38CHL1   C15 2756   0.395   0.657   7.350  0.3749 -0.0914 -0.3797
   38CHL1  H15A 2757   0.285   0.646   7.344  0.4705 -1.0463 -0.5148
   38CHL1  H15B 2758   0.441   0.580   7.285  2.4878  0.0754  0.8403
   38CHL1   C16 2759   0.441   0.648   7.498  0.2657  0.3371  0.5015
   38CHL1  H16A 2760   0.354   0.600   7.549  0.3990 -1.2137 -0.6479
   38CHL1  H16B 2761   0.526   0.576   7.494 -1.2052 -1.4357 -0.6436
   38CHL1   C17 2762   0.468   0.793   7.550  0.3126  0.0913  0.1678
   38CHL1   H17 2763   0.579   0.792   7.541  0.4145 -2.8598  0.6431
   38CHL1   C13 2764   0.406   0.885   7.448  0.6780 -0.2465 -0.1172
   38CHL1   C18 2765   0.257   0.898   7.477  0.4618 -0.1594  0.3468
   38CHL1  H18A 2766   0.222   0.798   7.512  2.3061 -1.7532 -2.0459
   38CHL1  H18B 2767   0.237   0.974   7.555 -0.4844  0.1656 -0.1948
   38CHL1  H18C 2768   0.192   0.927   7.392  2.3837 -0.0559 -1.1372
   38CHL1   C12 2769   0.464   1.028   7.427  0.5419  0.1979 -0.2105
   38CHL1  H12A 2770   0.458   1.093   7.517  0.0887  1.3639 -1.0521
   38CHL1  H12B 2771   0.574   1.018   7.414  0.4785 -1.7129  0.4481
   38CHL1   C11 2772   0.407   1.094   7.305 -0.0568 -0.2094  0.3980
   38CHL1  H11A 2773   0.300   1.118   7.325 -0.6166 -1.2250 -1.2012
   38CHL1  H11B 2774   0.466   1.187   7.291 -1.2054  0.2246 -2.2069
   38CHL1    C9 2775   0.413   1.013   7.173  0.2473 -0.5397  0.1506
   38CHL1    H9 2776   0.519   1.007   7.144  0.2195  2.8956 -1.1872
   38CHL1   C10 2777   0.339   1.086   7.049 -0.0653  0.8574  0.2531
   38CHL1   C19 2778   0.210   1.147   7.091 -0.1937  0.4331  0.3092
   38CHL1  H19A 2779   0.150   1.078   7.154  2.6937 -1.3700  1.2663
   38CHL1  H19B 2780   0.239   1.234   7.155  2.4958  0.9199 -1.4197
   38CHL1  H19C 2781   0.149   1.191   7.009  0.9501 -0.3853 -1.0107
   38CHL1    C1 2782   0.443   1.196   6.989  0.1942  0.0941 -0.9026
   38CHL1   H1A 2783   0.451   1.279   7.061 -1.7978  1.1639 -1.8231
   38CHL1   H1B 2784   0.541   1.152   6.962 -1.1320 -2.7541 -1.5112
   38CHL1    C2 2785   0.390   1.270   6.863  1.2176  0.0212 -0.2790
   38CHL1   H2A 2786   0.479   1.328   6.829  2.1081 -2.2173 -2.0002
   38CHL1   H2B 2787   0.299   1.330   6.887  1.6573  0.0561  1.3691
   38CHL1   C20 2788   0.428   0.812   7.694 -0.0634  0.7624 -0.4402
   38CHL1   H20 2789   0.320   0.812   7.719  0.2278  0.6546  0.8966
   38CHL1   C21 2790   0.486   0.950   7.748  0.4480  0.0886  0.6788
   38CHL1  H21A 2791   0.573   0.975   7.683  1.5225 -1.2026  1.5680
   38CHL1  H21B 2792   0.518   0.938   7.853  0.7735 -3.0283  0.3451
   38CHL1  H21C 2793   0.412   1.031   7.737  0.6392  0.0665 -1.1358
   38CHL1   C22 2794   0.485   0.708   7.796 -0.1337  0.8907 -0.8689
   38CHL1  H22A 2795   0.476   0.610   7.745 -1.6255  0.9393 -0.7312
   38CHL1  H22B 2796   0.595   0.721   7.809  0.1582 -2.8133  1.6189
   38CHL1   C23 2797   0.410   0.710   7.932 -0.9203  0.1446 -0.4213
   38CHL1  H23A 2798   0.418   0.803   7.992  0.6555  0.3596 -0.9187
   38CHL1  H23B 2799   0.302   0.706   7.909 -0.7438  2.2725 -1.8452
   38CHL1   C24 2800   0.440   0.604   8.035 -0.8249  0.8390 -0.4138
   38CHL1  H24A 2801   0.427   0.503   7.991  5.0511 -1.5554  2.2461
   38CHL1  H24B 2802   0.550   0.602   8.053 -1.1107 -0.6547  1.5153
   38CHL1   C25 2803   0.353   0.615   8.164  0.6565 -1.0161  0.5063
   38CHL1   H25 2804   0.248   0.599   8.131  0.3956  1.1434  0.1642
   38CHL1   C26 2805   0.383   0.497   8.270  0.6238 -0.2179 -0.0468
   38CHL1  H26A 2806   0.491   0.493   8.296  1.1358  0.4399 -1.8671
   38CHL1  H26B 2807   0.325   0.515   8.363 -2.4262 -1.1073 -1.6351
   38CHL1  H26C 2808   0.362   0.399   8.223  0.7834  0.2628 -1.1652
   38CHL1   C27 2809   0.379   0.749   8.236  0.0245  0.8392  0.3815
   38CHL1  H27A 2810   0.333   0.835   8.182 -0.6906 -0.6553 -1.4857
   38CHL1  H27B 2811   0.332   0.732   8.335  0.0615 -2.6123 -0.0922
   38CHL1  H27C 2812   0.488   0.761   8.252  0.1471  1.0754 -0.5400
   39CHL1    C3 2813   6.709   6.507   6.862 -0.2125 -0.6851 -0.1598
   39CHL1    H3 2814   6.682   6.407   6.903 -1.0563  0.1518  1.4340
   39CHL1    O3 2815   6.709   6.514   6.717 -0.1280  0.2789 -0.6592
   39CHL1   H3' 2816   6.687   6.422   6.700  2.9232 -0.7414  0.2437
   39CHL1    C4 2817   6.599   6.601   6.912 -0.5271 -0.1529  0.4403
   39CHL1   H4A 2818   6.625   6.705   6.884 -0.2547  0.0565  1.4409
   39CHL1   H4B 2819   6.504   6.564   6.869 -0.3932 -0.3729  0.3270
   39CHL1    C5 2820   6.590   6.617   7.061  0.3504 -0.2012 -0.0112
   39CHL1    C6 2821   6.471   6.594   7.121  0.4236 -0.3029 -0.3506
   39CHL1    H6 2822   6.385   6.563   7.061  0.2243 -0.1515 -0.1458
   39CHL1    C7 2823   6.450   6.608   7.266 -0.3712 -0.0035 -0.4410
   39CHL1   H7A 2824   6.366   6.679   7.279 -0.7710 -0.3508 -1.0870
   39CHL1   H7B 2825   6.437   6.513   7.322  0.6411 -0.9392 -1.7446
   39CHL1    C8 2826   6.567   6.665   7.347 -0.6781  0.2615 -0.9117
   39CHL1    H8 2827   6.564   6.776   7.334  0.6342  0.3031 -1.0126
   39CHL1   C14 2828   6.559   6.632   7.500 -0.7904 -0.0296 -0.2138
   39CHL1   H14 2829   6.578   6.523   7.500  0.7651  0.2068  1.5642
   39CHL1   C15 2830   6.423   6.643   7.574  0.1303  0.5262 -0.1343
   39CHL1  H15A 2831   6.370   6.740   7.565  0.3607  0.8143  1.2747
   39CHL1  H15B 2832   6.362   6.559   7.536 -2.3784 -0.4681  5.1866
   39CHL1   C16 2833   6.466   6.636   7.720 -0.1515  0.3911  0.4129
   39CHL1  H16A 2834   6.417   6.720   7.774  1.0899  1.7915 -0.5364
   39CHL1  H16B 2835   6.434   6.536   7.757 -0.6953  0.2592 -0.3854
   39CHL1   C17 2836   6.618   6.639   7.727  0.2880 -0.8811  0.4018
   39CHL1   H17 2837   6.654   6.533   7.732 -1.7545 -1.5915  1.0474
   39CHL1   C13 2838   6.670   6.694   7.591  0.4843 -0.2648  0.6642
   39CHL1   C18 2839   6.664   6.845   7.581 -0.0397 -0.6509  0.5104
   39CHL1  H18A 2840   6.560   6.883   7.586 -0.2120 -0.9852 -0.3619
   39CHL1  H18B 2841   6.715   6.894   7.667  0.1093 -1.7421  1.0629
   39CHL1  H18C 2842   6.706   6.870   7.481  0.8399 -0.8500  0.8215
   39CHL1   C12 2843   6.803   6.647   7.537  0.2071 -0.0454  0.1222
   39CHL1  H12A 2844   6.896   6.689   7.582 -0.5399  2.1590 -0.2727
   39CHL1  H12B 2845   6.814   6.537   7.549  0.4833  0.1883  2.3746
   39CHL1   C11 2846   6.817   6.660   7.380  0.7021 -0.3474  0.1268
   39CHL1  H11A 2847   6.853   6.764   7.365 -0.3256  0.3703  2.2744
   39CHL1  H11B 2848   6.899   6.590   7.353  0.8427  0.0912 -0.6109
   39CHL1    C9 2849   6.701   6.618   7.289  0.5038  0.2771 -0.2108
   39CHL1    H9 2850   6.696   6.508   7.307  3.4350  0.5779  3.8952
   39CHL1   C10 2851   6.714   6.645   7.141  0.1205  0.0012  0.3230
   39CHL1   C19 2852   6.756   6.800   7.112 -0.3887  0.3088 -0.4606
   39CHL1  H19A 2853   6.749   6.821   7.003  1.8169 -2.2881 -1.2534
   39CHL1  H19B 2854   6.692   6.871   7.167  0.2443  0.6010 -0.0846
   39CHL1  H19C 2855   6.865   6.816   7.127 -0.2560  1.0829 -2.0116
   39CHL1    C1 2856   6.825   6.546   7.085  0.0036  0.0800  0.0563
   39CHL1   H1A 2857   6.913   6.590   7.136 -0.9165 -1.1190  2.9039
   39CHL1   H1B 2858   6.794   6.447   7.126 -0.0176  0.2705  0.5060
   39CHL1    C2 2859   6.847   6.543   6.925  0.2655  0.2794  0.6273
   39CHL1   H2A 2860   6.927   6.472   6.893  0.4536 -1.2939  4.1018
   39CHL1   H2B 2861   6.866   6.649   6.898 -1.8348  1.0993  2.1422
   39CHL1   C20 2862   6.668   6.706   7.857  0.7818 -0.8859  0.1508
   39CHL1   H20 2863   6.636   6.812   7.863  0.0394 -1.1330  0.7159
   39CHL1   C21 2864   6.819   6.697   7.866  0.2849 -0.4060  0.2365
   39CHL1  H21A 2865   6.854   6.769   7.789 -3.8193  1.6768  0.0611
   39CHL1  H21B 2866   6.863   6.597   7.849 -0.1786 -0.3429 -1.4973
   39CHL1  H21C 2867   6.848   6.739   7.965 -1.1483  0.2540  0.4037
   39CHL1   C22 2868   6.592   6.642   7.976 -1.3138 -0.2772 -0.2033
   39CHL1  H22A 2869   6.638   6.683   8.068 -1.2310  1.5564 -1.0144
   39CHL1  H22B 2870   6.488   6.679   7.987 -2.3969 -3.0535 -0.3878
   39CHL1   C23 2871   6.586   6.487   7.991  0.4715 -0.3911 -0.4864
   39CHL1  H23A 2872   6.604   6.432   7.896  0.3513  1.0659 -1.3772
   39CHL1  H23B 2873   6.677   6.465   8.051  2.2626  3.3213 -1.5386
   39CHL1   C24 2874   6.456   6.437   8.067  0.3804  0.1969  0.2441
   39CHL1  H24A 2875   6.370   6.487   8.017  0.1316  0.8924  1.3123
   39CHL1  H24B 2876   6.440   6.327   8.064 -1.1534  0.4064 -1.8671
   39CHL1   C25 2877   6.448   6.495   8.211  1.0938  0.4149  0.3291
   39CHL1   H25 2878   6.462   6.605   8.215  0.0058  0.5390  1.7186
   39CHL1   C26 2879   6.312   6.454   8.274 -0.3909 -0.4724  0.0965
   39CHL1  H26A 2880   6.306   6.345   8.291  2.3816 -0.7715 -0.3633
   39CHL1  H26B 2881   6.314   6.507   8.372  3.6172 -2.6694  1.4214
   39CHL1  H26C 2882   6.239   6.498   8.202  1.4889 -0.0261 -1.6250
   39CHL1   C27 2883   6.547   6.427   8.301  0.1411 -0.0294 -0.4873
   39CHL1  H27A 2884   6.646   6.449   8.256  0.0440  1.0085 -0.2233
   39CHL1  H27B 2885   6.540   6.467   8.405 -0.5477  1.2854 -1.0152
   39CHL1  H27C 2886   6.539   6.318   8.284 -0.3362 -0.0698 -0.0518
   40CHL1    C3 2887   2.926   4.736   6.976  0.1607  0.4525  0.8383
   40CHL1    H3 2888   3.031   4.732   7.015  1.1859 -0.1579 -1.7868
   40CHL1    O3 2889   2.939   4.729   6.829  0.3377 -0.5855  0.0483
   40CHL1   H3' 2890   3.034   4.721   6.821  0.5127  0.4820  0.8232
   40CHL1    C4 2891   2.828   4.624   7.019  0.1364  0.0869 -0.8315
   40CHL1   H4A 2892   2.740   4.645   6.954  0.0589  0.1116 -0.7192
   40CHL1   H4B 2893   2.876   4.526   7.001 -0.3566 -0.5403  1.0249
   40CHL1    C5 2894   2.788   4.643   7.166  0.1771  0.3963  0.3705
   40CHL1    C6 2895   2.794   4.538   7.247  0.7786 -1.5115  0.5212
   40CHL1    H6 2896   2.819   4.443   7.198 -1.6146 -1.3342 -1.2116
   40CHL1    C7 2897   2.772   4.537   7.396  0.4166 -0.0735  0.1330
   40CHL1   H7A 2898   2.706   4.449   7.409  0.8935 -0.3946  0.4383
   40CHL1   H7B 2899   2.861   4.508   7.456 -0.9035  0.6281  2.5727
   40CHL1    C8 2900   2.717   4.670   7.445 -0.1706  0.3263  0.3174
   40CHL1    H8 2901   2.607   4.672   7.432 -0.4509 -0.9465  2.0770
   40CHL1   C14 2902   2.755   4.675   7.590 -0.8996  0.0351  0.1658
   40CHL1   H14 2903   2.866   4.671   7.596 -0.9340  0.4331  1.2691
   40CHL1   C15 2904   2.703   4.568   7.675  0.1389 -0.0723 -1.7360
   40CHL1  H15A 2905   2.598   4.540   7.649 -0.7112  2.1199 -0.8725
   40CHL1  H15B 2906   2.774   4.483   7.681  2.0834  1.3922 -2.8156
   40CHL1   C16 2907   2.697   4.635   7.822 -0.5664  0.3820  0.1530
   40CHL1  H16A 2908   2.590   4.634   7.853 -0.0029  2.4647  2.5469
   40CHL1  H16B 2909   2.765   4.581   7.891  2.4062  0.7480 -2.2849
   40CHL1   C17 2910   2.765   4.770   7.804 -0.3949  0.3968  0.1847
   40CHL1   H17 2911   2.876   4.764   7.796 -0.3435  0.5151  0.7278
   40CHL1   C13 2912   2.720   4.807   7.665 -0.1962 -0.1077 -0.1590
   40CHL1   C18 2913   2.566   4.843   7.657  0.1404  0.1725 -0.2120
   40CHL1  H18A 2914   2.534   4.837   7.551 -0.6124 -2.5850  0.0884
   40CHL1  H18B 2915   2.515   4.766   7.719  1.7380 -0.9200 -0.1849
   40CHL1  H18C 2916   2.556   4.947   7.695  0.4231  0.0608  0.1732
   40CHL1   C12 2917   2.801   4.916   7.593  0.7542 -0.0213  0.5395
   40CHL1  H12A 2918   2.790   5.018   7.635  2.1975  0.6484 -0.6312
   40CHL1  H12B 2919   2.911   4.901   7.593  1.0591  1.9519  1.5588
   40CHL1   C11 2920   2.770   4.917   7.438  0.8527  0.2356 -0.2978
   40CHL1  H11A 2921   2.661   4.934   7.430  0.4671 -1.4044  0.8403
   40CHL1  H11B 2922   2.834   4.994   7.391 -0.6195  1.4695 -0.3573
   40CHL1    C9 2923   2.795   4.783   7.370 -0.2522  0.8555 -0.2458
   40CHL1    H9 2924   2.904   4.761   7.374 -0.5527 -1.9368 -2.9640
   40CHL1   C10 2925   2.762   4.781   7.215 -0.2414 -0.0840  0.3774
   40CHL1   C19 2926   2.607   4.811   7.186 -0.4811 -0.0586 -0.6161
   40CHL1  H19A 2927   2.545   4.765   7.266 -2.9931  0.9468 -1.8486
   40CHL1  H19B 2928   2.579   4.918   7.198  0.7519  0.1151  1.1403
   40CHL1  H19C 2929   2.568   4.769   7.091 -2.8030 -1.5145  0.8643
   40CHL1    C1 2930   2.841   4.898   7.150 -0.1193 -0.6958 -0.2333
   40CHL1   H1A 2931   2.781   4.992   7.160 -0.0506 -0.5727 -0.9037
   40CHL1   H1B 2932   2.939   4.896   7.202 -0.2756 -2.1268  0.0322
   40CHL1    C2 2933   2.868   4.871   7.002 -0.4385 -0.6352 -0.6707
   40CHL1   H2A 2934   2.931   4.953   6.961 -1.4770 -0.0232 -1.0899
   40CHL1   H2B 2935   2.779   4.876   6.935 -2.0016  0.5759  1.4024
   40CHL1   C20 2936   2.739   4.871   7.915 -0.2933 -0.6229 -0.7478
   40CHL1   H20 2937   2.726   4.971   7.868  1.3750  1.6886  3.2281
   40CHL1   C21 2938   2.864   4.877   8.005 -0.2103  0.3163 -0.2738
   40CHL1  H21A 2939   2.948   4.927   7.954  1.4168 -0.9558  1.0406
   40CHL1  H21B 2940   2.898   4.776   8.036  1.7724  0.6570 -1.1878
   40CHL1  H21C 2941   2.843   4.942   8.093 -1.9657  0.1952 -0.5745
   40CHL1   C22 2942   2.613   4.836   8.004  0.0788 -0.4939  0.2106
   40CHL1  H22A 2943   2.526   4.839   7.935 -0.1165  0.1660  0.4807
   40CHL1  H22B 2944   2.609   4.735   8.050 -1.2762 -0.2699  0.6290
   40CHL1   C23 2945   2.588   4.926   8.124  0.8262 -0.1493 -0.1094
   40CHL1  H23A 2946   2.660   4.904   8.206  1.6922 -1.1837 -1.1110
   40CHL1  H23B 2947   2.587   5.030   8.085 -1.1115  0.2477  0.8474
   40CHL1   C24 2948   2.442   4.899   8.185 -0.2542 -0.9262  0.4493
   40CHL1  H24A 2949   2.374   4.907   8.097  0.5487 -0.5697 -0.1539
   40CHL1  H24B 2950   2.453   4.795   8.223  0.1482 -0.1516  2.5742
   40CHL1   C25 2951   2.401   5.003   8.286  0.0653  0.3803  0.2738
   40CHL1   H25 2952   2.392   5.102   8.236 -0.3128  0.1544 -0.1066
   40CHL1   C26 2953   2.261   4.982   8.348 -0.0442  0.8699  0.4152
   40CHL1  H26A 2954   2.216   5.076   8.389 -2.3088  0.2582 -0.4918
   40CHL1  H26B 2955   2.192   4.954   8.265 -0.0970  1.7984  0.1385
   40CHL1  H26C 2956   2.265   4.904   8.428 -0.6309  2.9696  2.6245
   40CHL1   C27 2957   2.509   5.014   8.400  0.3932 -0.4259  0.4738
   40CHL1  H27A 2958   2.506   4.919   8.457 -0.9661 -0.4686  0.3612
   40CHL1  H27B 2959   2.614   5.037   8.371  0.1565  0.9176  0.6364
   40CHL1  H27C 2960   2.489   5.101   8.465 -2.6238 -0.4250 -0.3044
   41CHL1    C3 2961   4.522   4.309   7.080 -0.1505  0.5869  0.2276
   41CHL1    H3 2962   4.628   4.329   7.052  0.0862  0.0738  0.7497
   41CHL1    O3 2963   4.469   4.258   6.960 -0.5071 -0.0574  0.0519
   41CHL1   H3' 2964   4.528   4.298   6.896  2.6132 -1.8138  1.5821
   41CHL1    C4 2965   4.520   4.194   7.184 -0.0096  0.0964  0.5280
   41CHL1   H4A 2966   4.419   4.148   7.178  0.0067 -0.0770  1.4229
   41CHL1   H4B 2967   4.592   4.116   7.151 -0.3822  0.1168 -0.3799
   41CHL1    C5 2968   4.560   4.242   7.324 -0.5794  0.1356  0.0371
   41CHL1    C6 2969   4.659   4.184   7.394 -0.6191  0.6397 -0.5174
   41CHL1    H6 2970   4.714   4.104   7.342 -0.2903  2.0633 -2.4888
   41CHL1    C7 2971   4.684   4.212   7.538  0.6385 -0.3281 -0.1255
   41CHL1   H7A 2972   4.701   4.119   7.596  0.0332 -0.4144 -0.0826
   41CHL1   H7B 2973   4.778   4.271   7.545  1.6370 -2.0056  1.3027
   41CHL1    C8 2974   4.558   4.278   7.599 -1.2541 -0.2248 -0.4497
   41CHL1    H8 2975   4.477   4.203   7.609 -1.7783  0.2468 -1.1084
   41CHL1   C14 2976   4.590   4.334   7.745 -0.0129  0.5739  1.1054
   41CHL1   H14 2977   4.671   4.408   7.727 -2.1525  2.1919 -3.0678
   41CHL1   C15 2978   4.647   4.231   7.845  0.2328  1.1740  0.8930
   41CHL1  H15A 2979   4.591   4.136   7.831  1.0232  0.8928 -0.6751
   41CHL1  H15B 2980   4.753   4.208   7.818 -1.0472 -2.0217 -2.2558
   41CHL1   C16 2981   4.620   4.287   7.980 -0.5709  0.0958  0.2813
   41CHL1  H16A 2982   4.562   4.208   8.033  0.1475  0.0705  1.0479
   41CHL1  H16B 2983   4.720   4.303   8.027 -0.1027 -0.5406 -0.4575
   41CHL1   C17 2984   4.535   4.415   7.962 -0.5783 -0.4972 -0.2186
   41CHL1   H17 2985   4.609   4.497   7.966 -1.8652  0.7127  3.8284
   41CHL1   C13 2986   4.474   4.400   7.820  0.0602 -0.0893  0.2308
   41CHL1   C18 2987   4.353   4.302   7.825  0.1757  0.4171  0.1033
   41CHL1  H18A 2988   4.385   4.196   7.833  0.3545  0.4215 -0.5215
   41CHL1  H18B 2989   4.269   4.324   7.895 -1.1630 -0.9812 -0.9870
   41CHL1  H18C 2990   4.307   4.307   7.724  2.0980 -0.7136 -0.8863
   41CHL1   C12 2991   4.437   4.525   7.742 -0.6927 -0.5845 -0.1812
   41CHL1  H12A 2992   4.358   4.587   7.790  2.0859  1.9912  1.4482
   41CHL1  H12B 2993   4.526   4.592   7.747 -0.3001 -0.8737 -2.3982
   41CHL1   C11 2994   4.428   4.515   7.587  0.5276 -0.3827 -0.9353
   41CHL1  H11A 2995   4.321   4.490   7.571  0.3080  1.2543 -2.2084
   41CHL1  H11B 2996   4.448   4.612   7.537 -0.2302 -0.1257 -0.7403
   41CHL1    C9 2997   4.516   4.402   7.516  0.9217 -0.2744  1.0541
   41CHL1    H9 2998   4.611   4.458   7.502  0.6578 -0.0159  0.2434
   41CHL1   C10 2999   4.479   4.363   7.371  0.3534  0.1224 -0.3317
   41CHL1   C19 3000   4.334   4.321   7.383 -0.7500 -0.1642 -0.2564
   41CHL1  H19A 3001   4.294   4.247   7.311  0.8658 -0.5932 -0.7657
   41CHL1  H19B 3002   4.318   4.274   7.482  1.5988  2.7430  1.6870
   41CHL1  H19C 3003   4.264   4.407   7.388 -2.4698 -1.5352  0.0851
   41CHL1    C1 3004   4.484   4.479   7.271  0.8386 -0.0848  0.2118
   41CHL1   H1A 3005   4.432   4.569   7.311  0.2104  0.3706 -1.5536
   41CHL1   H1B 3006   4.591   4.507   7.272  0.8808 -0.2498  0.4486
   41CHL1    C2 3007   4.445   4.434   7.125  0.3609 -0.5379 -0.0976
   41CHL1   H2A 3008   4.468   4.522   7.061 -1.5919  1.3791  1.6351
   41CHL1   H2B 3009   4.337   4.408   7.132  0.9477 -2.5557  3.9919
   41CHL1   C20 3010   4.444   4.430   8.085 -0.3203  0.5526  0.2530
   41CHL1   H20 3011   4.381   4.339   8.085 -0.1428  0.4297 -0.3257
   41CHL1   C21 3012   4.359   4.554   8.068  0.5887  0.0750 -0.5083
   41CHL1  H21A 3013   4.429   4.639   8.061  0.1537  0.3139 -2.4500
   41CHL1  H21B 3014   4.296   4.557   8.159 -0.1756  2.0303 -1.0504
   41CHL1  H21C 3015   4.296   4.545   7.977 -1.4651  0.9484  0.7549
   41CHL1   C22 3016   4.521   4.435   8.222  0.7084  0.2574 -0.2606
   41CHL1  H22A 3017   4.446   4.439   8.303  0.9373 -2.4695  0.1665
   41CHL1  H22B 3018   4.580   4.345   8.247  0.7566 -0.5415 -2.9093
   41CHL1   C23 3019   4.615   4.554   8.254  0.9162 -0.2564  0.3553
   41CHL1  H23A 3020   4.695   4.576   8.180  2.0247 -0.7107  1.3754
   41CHL1  H23B 3021   4.562   4.650   8.266  0.0425 -0.8090  1.0978
   41CHL1   C24 3022   4.681   4.534   8.390  0.4168  0.6073  0.4233
   41CHL1  H24A 3023   4.610   4.478   8.454 -1.8651  2.0637 -0.7209
   41CHL1  H24B 3024   4.763   4.460   8.377  0.7328  1.0056  0.1413
   41CHL1   C25 3025   4.749   4.663   8.444  0.4662  0.5174 -0.5165
   41CHL1   H25 3026   4.681   4.750   8.434 -3.7183 -2.4806 -0.7120
   41CHL1   C26 3027   4.789   4.647   8.597  0.3748 -0.2356  0.1931
   41CHL1  H26A 3028   4.700   4.620   8.657  0.0482  0.7662  0.1746
   41CHL1  H26B 3029   4.866   4.567   8.599  1.1612  0.4794 -0.6267
   41CHL1  H26C 3030   4.836   4.740   8.636 -0.3563 -0.7691  2.5068
   41CHL1   C27 3031   4.880   4.688   8.366 -0.0366  0.4110 -0.1209
   41CHL1  H27A 3032   4.929   4.785   8.389  0.9220 -0.1147  0.1007
   41CHL1  H27B 3033   4.954   4.609   8.389 -0.7915  0.2038  1.7203
   41CHL1  H27C 3034   4.854   4.688   8.258 -2.0093 -0.3135  0.3222
   42CHL1    C3 3035   4.416   2.077   7.015  0.2869 -0.2442  0.3876
   42CHL1    H3 3036   4.526   2.064   7.010  0.2844  0.0453 -2.0969
   42CHL1    O3 3037   4.372   2.060   6.881  0.3829  0.2495 -0.1338
   42CHL1   H3' 3038   4.279   2.081   6.877  0.4651  0.5377 -0.6332
   42CHL1    C4 3039   4.344   1.975   7.100  0.2760  0.5981 -0.6327
   42CHL1   H4A 3040   4.234   1.984   7.086 -0.0228 -0.3187  0.8114
   42CHL1   H4B 3041   4.375   1.872   7.072 -1.6293 -0.1028 -0.3493
   42CHL1    C5 3042   4.363   1.989   7.252  0.0548  0.4112  0.1234
   42CHL1    C6 3043   4.424   1.894   7.332 -0.6146 -0.2530  0.3558
   42CHL1    H6 3044   4.438   1.795   7.287 -2.4054  0.8008 -2.8197
   42CHL1    C7 3045   4.450   1.908   7.478 -0.0401  0.3450 -0.6122
   42CHL1   H7A 3046   4.418   1.822   7.540  0.4426  1.1195  0.7425
   42CHL1   H7B 3047   4.556   1.924   7.509 -0.0660  2.2799 -1.3505
   42CHL1    C8 3048   4.369   2.034   7.529  0.3966  0.1452  0.5654
   42CHL1    H8 3049   4.260   2.014   7.523  0.5190 -0.0231 -3.1868
   42CHL1   C14 3050   4.407   2.062   7.674  0.4649 -0.3692 -0.6344
   42CHL1   H14 3051   4.508   2.106   7.659  0.9594 -0.7845  1.1716
   42CHL1   C15 3052   4.431   1.943   7.777  0.0846 -0.6558 -0.3559
   42CHL1  H15A 3053   4.346   1.873   7.772 -0.3761 -0.1945  0.6943
   42CHL1  H15B 3054   4.533   1.902   7.762  0.9148  1.7983 -2.1061
   42CHL1   C16 3055   4.428   2.026   7.908  0.4049  0.1907 -0.2551
   42CHL1  H16A 3056   4.347   1.976   7.964 -0.3152  0.8155 -0.7208
   42CHL1  H16B 3057   4.527   2.010   7.957 -0.2581 -0.5934  0.8576
   42CHL1   C17 3058   4.397   2.174   7.882 -0.2729 -0.0215 -0.6032
   42CHL1   H17 3059   4.494   2.228   7.880 -0.6658  0.7705  0.4929
   42CHL1   C13 3060   4.332   2.174   7.742 -0.3930 -0.7441  0.4454
   42CHL1   C18 3061   4.189   2.128   7.747  0.1132  0.1250 -0.0344
   42CHL1  H18A 3062   4.118   2.186   7.684  0.3049  0.2555 -0.1307
   42CHL1  H18B 3063   4.187   2.024   7.707 -0.3474  0.1976 -0.2011
   42CHL1  H18C 3064   4.154   2.132   7.852  1.2766 -1.2918  0.4555
   42CHL1   C12 3065   4.351   2.304   7.660  0.2197  0.0185  0.2177
   42CHL1  H12A 3066   4.283   2.380   7.704  1.4467  0.5073  1.3199
   42CHL1  H12B 3067   4.453   2.344   7.677 -0.0557  0.5028  0.7999
   42CHL1   C11 3068   4.312   2.280   7.509  0.2403 -0.3828 -0.3972
   42CHL1  H11A 3069   4.202   2.286   7.507  0.1504 -0.5974  1.7449
   42CHL1  H11B 3070   4.346   2.373   7.459  2.0135 -0.6637  0.1846
   42CHL1    C9 3071   4.383   2.160   7.442  0.1442 -0.0589  0.0470
   42CHL1    H9 3072   4.492   2.178   7.439 -0.2035  2.4378 -0.7121
   42CHL1   C10 3073   4.334   2.132   7.299 -0.3447 -1.3412  0.1587
   42CHL1   C19 3074   4.180   2.147   7.296  0.2331  0.3789  0.0983
   42CHL1  H19A 3075   4.141   2.082   7.377  0.4411  1.7678  1.3638
   42CHL1  H19B 3076   4.152   2.254   7.308 -1.4990 -0.1948  1.6321
   42CHL1  H19C 3077   4.141   2.118   7.196  0.5915 -2.5481  0.7154
   42CHL1    C1 3078   4.390   2.250   7.208  0.9583  0.3921  0.2093
   42CHL1   H1A 3079   4.331   2.336   7.246 -1.5406 -1.1435 -0.0125
   42CHL1   H1B 3080   4.498   2.256   7.232  0.9284  3.2898 -0.0172
   42CHL1    C2 3081   4.379   2.231   7.056  0.7736  0.1688 -0.4064
   42CHL1   H2A 3082   4.434   2.315   7.009  2.0535  0.4927  1.5331
   42CHL1   H2B 3083   4.271   2.247   7.036  0.5058  0.0539  0.8496
   42CHL1   C20 3084   4.326   2.249   7.995  0.1420 -0.0598 -1.6360
   42CHL1   H20 3085   4.221   2.273   7.967 -0.4753  1.3440  1.4471
   42CHL1   C21 3086   4.394   2.389   8.013  0.3279 -0.0570  0.1340
   42CHL1  H21A 3087   4.486   2.375   8.075  0.9780 -0.9584 -1.0014
   42CHL1  H21B 3088   4.320   2.453   8.065 -1.8258  0.4939 -3.3064
   42CHL1  H21C 3089   4.424   2.430   7.914  2.7397 -1.1304  0.3357
   42CHL1   C22 3090   4.327   2.175   8.128 -0.0578  0.1066  0.0554
   42CHL1  H22A 3091   4.255   2.091   8.116 -1.4453  1.2538  0.1264
   42CHL1  H22B 3092   4.430   2.144   8.154 -0.1566  0.4459  0.8775
   42CHL1   C23 3093   4.281   2.249   8.252  0.3843 -0.2260  0.1267
   42CHL1  H23A 3094   4.344   2.339   8.269  3.3313 -2.0315 -0.4687
   42CHL1  H23B 3095   4.179   2.291   8.251 -0.1701 -1.4887  0.7095
   42CHL1   C24 3096   4.296   2.168   8.380  0.1887  0.3503 -1.0060
   42CHL1  H24A 3097   4.276   2.060   8.366  0.9193 -0.0451  0.7280
   42CHL1  H24B 3098   4.403   2.158   8.409 -0.0402  1.0158  0.1540
   42CHL1   C25 3099   4.213   2.232   8.495  0.0176  0.0509 -0.0653
   42CHL1   H25 3100   4.111   2.256   8.457 -1.0379  0.6129  2.8761
   42CHL1   C26 3101   4.194   2.114   8.597 -0.0791 -0.1609  0.8036
   42CHL1  H26A 3102   4.169   2.158   8.696 -1.1356  1.5141 -0.1699
   42CHL1  H26B 3103   4.121   2.036   8.567  0.6784 -0.6039  0.0345
   42CHL1  H26C 3104   4.294   2.067   8.612 -0.4294 -1.5857 -0.9610
   42CHL1   C27 3105   4.268   2.363   8.566  0.3275  0.2621  0.3863
   42CHL1  H27A 3106   4.355   2.343   8.632  1.5393  0.5054 -1.0599
   42CHL1  H27B 3107   4.190   2.413   8.627  1.9517  4.4322 -0.5890
   42CHL1  H27C 3108   4.295   2.433   8.484 -2.1884  0.0799 -0.6647
   43CHL1    C3 3109   3.807   5.547   6.890  0.2207 -0.1909  0.4316
   43CHL1    H3 3110   3.913   5.521   6.912  1.3815  1.7978 -2.3499
   43CHL1    O3 3111   3.799   5.539   6.750 -0.4616  0.6270  0.0777
   43CHL1   H3' 3112   3.713   5.576   6.732  0.2157  2.5059  0.5195
   43CHL1    C4 3113   3.713   5.444   6.956 -0.3277 -0.3547  0.5239
   43CHL1   H4A 3114   3.611   5.459   6.915  0.3371 -1.5389 -1.7029
   43CHL1   H4B 3115   3.737   5.342   6.920 -0.0377  0.1740 -0.8541
   43CHL1    C5 3116   3.728   5.459   7.104 -0.5296  0.0983  0.1293
   43CHL1    C6 3117   3.769   5.361   7.184 -0.0273 -0.2421  0.0933
   43CHL1    H6 3118   3.795   5.261   7.146  0.5310 -0.6433  1.4727
   43CHL1    C7 3119   3.760   5.375   7.331 -0.8735  0.8760 -0.2571
   43CHL1   H7A 3120   3.701   5.285   7.357  0.2881  0.0620 -0.3774
   43CHL1   H7B 3121   3.860   5.372   7.378 -1.0551 -0.2985  0.0828
   43CHL1    C8 3122   3.664   5.490   7.382  0.0377  0.6576 -0.5953
   43CHL1    H8 3123   3.557   5.461   7.375  0.7960 -2.8710  0.3185
   43CHL1   C14 3124   3.699   5.526   7.523 -0.7113 -0.1887 -0.4935
   43CHL1   H14 3125   3.808   5.549   7.531 -0.5010 -0.4454 -2.2344
   43CHL1   C15 3126   3.692   5.410   7.622  0.1471  0.3598 -0.2230
   43CHL1  H15A 3127   3.602   5.346   7.604  1.0589 -0.6921 -1.2169
   43CHL1  H15B 3128   3.774   5.335   7.628 -0.7033 -0.5253  0.7555
   43CHL1   C16 3129   3.693   5.489   7.760  1.2542  0.1660 -0.1747
   43CHL1  H16A 3130   3.624   5.434   7.828  0.4189 -1.4804 -2.2515
   43CHL1  H16B 3131   3.797   5.482   7.798  0.3602  0.4615  2.5838
   43CHL1   C17 3132   3.655   5.640   7.730 -0.2667  0.2973 -0.2113
   43CHL1   H17 3133   3.755   5.689   7.724  0.7912 -1.8731 -1.6493
   43CHL1   C13 3134   3.611   5.634   7.585  0.1944  0.2912 -0.3527
   43CHL1   C18 3135   3.462   5.595   7.587  0.3194 -0.1476 -0.2642
   43CHL1  H18A 3136   3.449   5.497   7.637  1.2775  0.2221  0.7515
   43CHL1  H18B 3137   3.392   5.666   7.636 -1.1156 -0.5327 -1.6812
   43CHL1  H18C 3138   3.425   5.577   7.484 -0.8581 -0.6395  0.2292
   43CHL1   C12 3139   3.625   5.764   7.498 -0.1773 -0.1807  0.0097
   43CHL1  H12A 3140   3.541   5.829   7.532  0.3820 -0.3691  1.8785
   43CHL1  H12B 3141   3.725   5.809   7.513 -0.2285  0.0486 -0.3147
   43CHL1   C11 3142   3.593   5.737   7.351 -0.4476 -0.5522 -0.7876
   43CHL1  H11A 3143   3.483   5.720   7.348 -0.2786 -2.6144  1.3795
   43CHL1  H11B 3144   3.617   5.830   7.294 -0.6973 -0.7178 -1.1671
   43CHL1    C9 3145   3.685   5.615   7.303  0.0494  0.2036  0.1255
   43CHL1    H9 3146   3.793   5.633   7.322  0.3571 -3.0176  2.2190
   43CHL1   C10 3147   3.674   5.598   7.147  0.7957  0.2667  0.5280
   43CHL1   C19 3148   3.517   5.608   7.119  0.3159 -0.3499  0.3098
   43CHL1  H19A 3149   3.493   5.598   7.011  1.4282  2.4186 -0.2847
   43CHL1  H19B 3150   3.469   5.530   7.183  0.9588  1.1832  2.7900
   43CHL1  H19C 3151   3.467   5.705   7.139 -1.7007 -1.0143 -1.1521
   43CHL1    C1 3152   3.762   5.712   7.081 -0.3028 -0.2320 -0.1325
   43CHL1   H1A 3153   3.724   5.811   7.114 -0.3053 -0.8370  1.8365
   43CHL1   H1B 3154   3.865   5.702   7.122 -0.3532  0.2734  0.1181
   43CHL1    C2 3155   3.771   5.692   6.931  0.2774 -0.5281 -0.0945
   43CHL1   H2A 3156   3.845   5.766   6.894 -0.7552 -0.3644 -1.9531
   43CHL1   H2B 3157   3.672   5.723   6.891  1.6213  0.1567 -3.1899
   43CHL1   C20 3158   3.567   5.696   7.844 -0.0807 -0.0162  0.6439
   43CHL1   H20 3159   3.467   5.648   7.852  0.1656 -1.3148 -2.4742
   43CHL1   C21 3160   3.541   5.843   7.804  0.4352  0.2250 -0.2777
   43CHL1  H21A 3161   3.467   5.855   7.722 -0.3427 -0.2795  0.3319
   43CHL1  H21B 3162   3.636   5.896   7.781 -0.3705  1.6689 -0.4441
   43CHL1  H21C 3163   3.496   5.902   7.887  0.0183  1.3155 -1.2410
   43CHL1   C22 3164   3.638   5.693   7.977 -0.2387  0.8882 -0.2801
   43CHL1  H22A 3165   3.696   5.599   7.991 -2.2584 -0.2184  1.0891
   43CHL1  H22B 3166   3.713   5.774   7.964  2.4758 -1.2960  0.6460
   43CHL1   C23 3167   3.553   5.708   8.110 -0.3716 -0.4078  0.2206
   43CHL1  H23A 3168   3.630   5.725   8.189 -0.4107 -0.8967  0.3740
   43CHL1  H23B 3169   3.469   5.777   8.090  0.9627  1.1878 -0.1026
   43CHL1   C24 3170   3.481   5.574   8.146 -0.0359  1.0039 -0.0741
   43CHL1  H24A 3171   3.423   5.552   8.055  0.5663 -0.8806 -0.0435
   43CHL1  H24B 3172   3.553   5.495   8.178 -1.9473 -0.8444 -0.1730
   43CHL1   C25 3173   3.381   5.593   8.264  0.1210  0.0542 -0.2314
   43CHL1   H25 3174   3.309   5.675   8.242  0.1341 -0.5811 -2.8712
   43CHL1   C26 3175   3.292   5.469   8.276 -0.2364  0.9266 -0.1814
   43CHL1  H26A 3176   3.363   5.384   8.291  0.6979  2.0378  2.1917
   43CHL1  H26B 3177   3.219   5.469   8.360 -0.2925  2.0046 -0.2144
   43CHL1  H26C 3178   3.239   5.454   8.180  1.9657 -1.1482 -1.1734
   43CHL1   C27 3179   3.448   5.627   8.400  0.3668 -0.5224  0.4106
   43CHL1  H27A 3180   3.479   5.734   8.406 -1.1748 -0.0819  0.9887
   43CHL1  H27B 3181   3.360   5.607   8.464 -1.0375 -0.5709 -1.4456
   43CHL1  H27C 3182   3.516   5.545   8.432  0.4760 -0.6022 -0.0186
   44CHL1    C3 3183   5.066   4.190   6.728  0.2059 -0.6848 -0.5430
   44CHL1    H3 3184   4.983   4.124   6.764  1.6167 -2.7333 -0.8690
   44CHL1    O3 3185   5.089   4.162   6.592  0.1174 -0.4106 -0.2740
   44CHL1   H3' 3186   5.158   4.219   6.557 -2.9924  2.3491 -2.4459
   44CHL1    C4 3187   5.032   4.336   6.764  0.9445 -0.1094 -0.3753
   44CHL1   H4A 3188   5.105   4.405   6.715  0.6333  0.2542 -0.3305
   44CHL1   H4B 3189   4.934   4.362   6.718  0.4354 -0.6025  0.4072
   44CHL1    C5 3190   5.024   4.361   6.915  0.1022  0.3978  0.5371
   44CHL1    C6 3191   4.915   4.411   6.979 -0.0353 -0.1651 -0.7465
   44CHL1    H6 3192   4.831   4.447   6.917  0.1816 -0.6213 -1.3171
   44CHL1    C7 3193   4.909   4.435   7.131  0.1464 -0.8526 -0.2733
   44CHL1   H7A 3194   4.861   4.532   7.157  0.0920 -0.3599 -2.0579
   44CHL1   H7B 3195   4.845   4.353   7.171 -1.2923  0.3774  0.0541
   44CHL1    C8 3196   5.042   4.413   7.204 -0.8954 -0.2880 -0.7291
   44CHL1    H8 3197   5.108   4.501   7.187 -2.9641  1.4395 -0.2299
   44CHL1   C14 3198   5.024   4.391   7.354 -0.4394  0.0907 -0.6693
   44CHL1   H14 3199   4.966   4.297   7.366 -0.1411 -0.0965 -0.6960
   44CHL1   C15 3200   4.937   4.489   7.439 -0.2804  0.2490 -0.3635
   44CHL1  H15A 3201   4.965   4.591   7.405  0.7378  0.2522  0.4654
   44CHL1  H15B 3202   4.827   4.501   7.424 -0.6966  0.7785  2.5299
   44CHL1   C16 3203   4.977   4.461   7.584 -0.4204  0.0031 -0.0952
   44CHL1  H16A 3204   5.010   4.557   7.630 -2.1301 -0.1680  1.6079
   44CHL1  H16B 3205   4.900   4.427   7.656 -0.2737  0.9459  0.5414
   44CHL1   C17 3206   5.092   4.356   7.589  0.1799  0.0769  0.7851
   44CHL1   H17 3207   5.040   4.258   7.593 -0.4583  0.3941  0.4579
   44CHL1   C13 3208   5.150   4.358   7.437 -0.1604 -0.1575  0.0643
   44CHL1   C18 3209   5.255   4.471   7.427  0.1872 -0.5835  0.4810
   44CHL1  H18A 3210   5.294   4.477   7.323 -1.1066 -1.2140 -0.0693
   44CHL1  H18B 3211   5.214   4.570   7.454 -0.2423 -0.0042 -2.0797
   44CHL1  H18C 3212   5.346   4.450   7.487 -1.0294 -0.0845  2.5936
   44CHL1   C12 3213   5.199   4.223   7.383 -0.7609 -0.5572  0.3124
   44CHL1  H12A 3214   5.295   4.197   7.431 -0.9776  0.0702  1.1049
   44CHL1  H12B 3215   5.130   4.138   7.403 -1.2841  0.1474  1.6217
   44CHL1   C11 3216   5.229   4.238   7.233  0.2061 -0.3741 -0.2379
   44CHL1  H11A 3217   5.315   4.303   7.205 -0.9905  0.6793 -1.5881
   44CHL1  H11B 3218   5.257   4.138   7.194 -0.7963 -1.0511  0.7169
   44CHL1    C9 3219   5.113   4.288   7.148  0.1277  0.5634 -0.7039
   44CHL1    H9 3220   5.035   4.208   7.142  0.7599 -0.1216  0.0018
   44CHL1   C10 3221   5.145   4.309   6.995  0.3642 -0.4828  0.7479
   44CHL1   C19 3222   5.257   4.411   6.960  0.3004 -0.1376 -0.0510
   44CHL1  H19A 3223   5.257   4.492   7.036 -0.3949  0.3626 -0.5691
   44CHL1  H19B 3224   5.356   4.365   6.975  0.2084  0.1654  1.6651
   44CHL1  H19C 3225   5.254   4.451   6.856  0.7935 -0.7139 -0.2895
   44CHL1    C1 3226   5.186   4.175   6.941  0.1089  0.2159 -1.0395
   44CHL1   H1A 3227   5.287   4.153   6.980 -0.4063  0.5166  0.5269
   44CHL1   H1B 3228   5.124   4.093   6.982 -1.7954  3.0148  2.2978
   44CHL1    C2 3229   5.201   4.161   6.788 -0.6464  0.5393 -0.4906
   44CHL1   H2A 3230   5.227   4.056   6.763  0.5200  0.7067 -0.0292
   44CHL1   H2B 3231   5.280   4.234   6.762  1.2151 -0.7421  1.3349
   44CHL1   C20 3232   5.181   4.376   7.706  0.1954 -0.0473 -0.7389
   44CHL1   H20 3233   5.235   4.473   7.708  2.0568 -1.0326 -1.0155
   44CHL1   C21 3234   5.304   4.275   7.710  0.1562  0.5691  0.2685
   44CHL1  H21A 3235   5.262   4.172   7.716  1.5120  0.0370  1.2411
   44CHL1  H21B 3236   5.369   4.304   7.795 -3.7859  1.0348  3.4659
   44CHL1  H21C 3237   5.367   4.284   7.619 -0.2966 -0.0586 -0.1158
   44CHL1   C22 3238   5.096   4.374   7.840 -0.1659  0.4974 -0.2679
   44CHL1  H22A 3239   5.027   4.460   7.855  1.0535  1.5847 -0.7195
   44CHL1  H22B 3240   5.029   4.285   7.841 -0.5100  0.7150 -1.8996
   44CHL1   C23 3241   5.181   4.364   7.965  0.6377  1.0442 -0.4930
   44CHL1  H23A 3242   5.228   4.264   7.978 -0.3297  0.4066 -1.6394
   44CHL1  H23B 3243   5.269   4.432   7.955  1.5671 -0.0230  0.1890
   44CHL1   C24 3244   5.110   4.379   8.100  0.6027  0.0736 -0.2138
   44CHL1  H24A 3245   5.074   4.482   8.119  2.3108  0.8735 -1.0634
   44CHL1  H24B 3246   5.021   4.312   8.099  1.2037 -0.7342  0.1900
   44CHL1   C25 3247   5.195   4.340   8.226 -0.4988  0.0527  0.0674
   44CHL1   H25 3248   5.297   4.379   8.206 -1.4197  1.5539 -2.2150
   44CHL1   C26 3249   5.148   4.410   8.351 -0.1137 -0.2633  0.6358
   44CHL1  H26A 3250   5.176   4.517   8.342  2.3704 -0.7643  1.5803
   44CHL1  H26B 3251   5.040   4.389   8.368 -0.5679 -0.1183 -1.6922
   44CHL1  H26C 3252   5.198   4.373   8.443  3.3853 -0.6953 -1.2756
   44CHL1   C27 3253   5.202   4.186   8.233  0.3489 -0.3376  1.3980
   44CHL1  H27A 3254   5.101   4.145   8.257 -0.2072  0.1206 -0.0368
   44CHL1  H27B 3255   5.237   4.147   8.135  1.0450  0.7699  1.1887
   44CHL1  H27C 3256   5.281   4.165   8.308  0.3521 -0.0714  1.4687
   45CHL1    C3 3257   4.926   2.400   6.725 -0.0680  0.6817 -0.4990
   45CHL1    H3 3258   4.864   2.491   6.739  1.9900  2.3846 -1.7345
   45CHL1    O3 3259   4.945   2.381   6.587 -0.6613 -0.1436 -0.1781
   45CHL1   H3' 3260   4.960   2.469   6.553 -1.5547  0.7288  1.5460
   45CHL1    C4 3261   5.064   2.423   6.794 -0.6997  0.0077  0.0439
   45CHL1   H4A 3262   5.136   2.343   6.768 -0.1829  0.6744 -0.6131
   45CHL1   H4B 3263   5.114   2.505   6.738 -2.5177 -0.5145 -2.5686
   45CHL1    C5 3264   5.057   2.432   6.945 -0.4418  0.0116  0.5206
   45CHL1    C6 3265   5.092   2.546   7.014 -0.1248 -0.6754  0.4702
   45CHL1    H6 3266   5.136   2.628   6.956 -1.2110  0.8306  1.7029
   45CHL1    C7 3267   5.081   2.561   7.162  0.2428  0.5577 -0.0320
   45CHL1   H7A 3268   5.178   2.595   7.204  0.9453 -0.7337 -0.5486
   45CHL1   H7B 3269   5.001   2.634   7.186  0.2280  0.8962 -1.0395
   45CHL1    C8 3270   5.056   2.421   7.233  0.0477  0.0911 -0.3247
   45CHL1    H8 3271   5.153   2.367   7.239 -1.0320 -2.0470 -1.0267
   45CHL1   C14 3272   4.996   2.437   7.376 -0.1623  0.1465 -0.1223
   45CHL1   H14 3273   4.903   2.492   7.351  1.0749  1.2141 -2.8498
   45CHL1   C15 3274   5.069   2.535   7.472 -0.1996 -0.2712  1.2599
   45CHL1  H15A 3275   5.180   2.534   7.480 -0.1734 -0.0462  0.9244
   45CHL1  H15B 3276   5.031   2.633   7.437 -0.4755 -1.2113 -1.2230
   45CHL1   C16 3277   5.022   2.503   7.608  0.0629  0.2587 -0.2796
   45CHL1  H16A 3278   5.107   2.470   7.672  0.2808 -0.0413 -0.7198
   45CHL1  H16B 3279   4.962   2.584   7.655 -0.5551  0.6676 -1.7172
   45CHL1   C17 3280   4.914   2.381   7.592 -0.3125 -0.2206  0.2831
   45CHL1   H17 3281   4.814   2.420   7.563 -0.2312 -0.4467 -0.3201
   45CHL1   C13 3282   4.957   2.313   7.460  0.0440 -0.8760 -0.2900
   45CHL1   C18 3283   5.075   2.221   7.494 -0.5746 -0.4257  0.0998
   45CHL1  H18A 3284   5.131   2.197   7.401  0.0448  0.3752  0.2510
   45CHL1  H18B 3285   5.148   2.273   7.561 -0.5716  0.4757 -0.5900
   45CHL1  H18C 3286   5.018   2.135   7.536 -1.4562  0.5680  1.0027
   45CHL1   C12 3287   4.852   2.244   7.375 -0.2358 -0.6431  0.2144
   45CHL1  H12A 3288   4.791   2.160   7.414 -4.2400  1.5503 -0.6817
   45CHL1  H12B 3289   4.772   2.315   7.344  1.5327  0.3779 -2.3541
   45CHL1   C11 3290   4.908   2.207   7.236 -0.5782  0.4470  0.5681
   45CHL1  H11A 3291   4.990   2.136   7.261 -0.9577  0.3658  1.6073
   45CHL1  H11B 3292   4.832   2.155   7.175  1.2199 -1.9599  0.2100
   45CHL1    C9 3293   4.952   2.337   7.158  0.0788 -0.3104  0.6172
   45CHL1    H9 3294   4.860   2.398   7.161 -1.3231 -2.2691 -0.5487
   45CHL1   C10 3295   4.993   2.310   7.008  0.4811  1.0161 -0.9808
   45CHL1   C19 3296   5.080   2.182   7.009 -0.4464  0.4168  0.4561
   45CHL1  H19A 3297   5.022   2.089   7.026 -0.0261  0.2003  0.7298
   45CHL1  H19B 3298   5.141   2.172   6.917  0.0085  0.5887  0.7329
   45CHL1  H19C 3299   5.162   2.188   7.084  0.6381  1.0838 -0.7463
   45CHL1    C1 3300   4.860   2.275   6.935 -0.1434 -0.3331 -1.4450
   45CHL1   H1A 3301   4.805   2.184   6.968 -0.1510  0.1622 -0.0393
   45CHL1   H1B 3302   4.791   2.354   6.972  1.8958  0.1479  1.6800
   45CHL1    C2 3303   4.862   2.274   6.779 -0.0941 -0.1198 -0.7286
   45CHL1   H2A 3304   4.759   2.257   6.740  0.2537 -0.1408 -1.6591
   45CHL1   H2B 3305   4.923   2.188   6.742 -0.8857 -0.7284 -0.6493
   45CHL1   C20 3306   4.900   2.293   7.712  0.4375 -0.0164 -0.8165
   45CHL1   H20 3307   4.986   2.226   7.732  0.9013  1.2703  1.8526
   45CHL1   C21 3308   4.767   2.212   7.707  0.0081  0.1587  0.1350
   45CHL1  H21A 3309   4.680   2.278   7.690 -0.6862  0.2863  3.4565
   45CHL1  H21B 3310   4.753   2.169   7.809 -2.3111 -0.1410 -0.2475
   45CHL1  H21C 3311   4.762   2.137   7.625 -1.3508  0.3739  0.0046
   45CHL1   C22 3312   4.892   2.364   7.852 -1.4281 -0.5055 -0.1377
   45CHL1  H22A 3313   4.887   2.290   7.935 -1.4370 -1.7026 -1.1675
   45CHL1  H22B 3314   4.985   2.421   7.870  0.1355 -2.8312 -0.4877
   45CHL1   C23 3315   4.782   2.462   7.864  0.5434 -0.0268 -0.2496
   45CHL1  H23A 3316   4.762   2.524   7.774  2.7093  1.6845  0.3663
   45CHL1  H23B 3317   4.689   2.404   7.886  0.0401  0.5082 -0.9282
   45CHL1   C24 3318   4.793   2.574   7.975 -0.3617  0.7654 -0.3161
   45CHL1  H24A 3319   4.882   2.637   7.954 -0.6547  0.7805 -1.6572
   45CHL1  H24B 3320   4.702   2.636   7.965 -0.4091  0.6458 -0.6592
   45CHL1   C25 3321   4.780   2.518   8.116  0.1473  0.3183 -0.7350
   45CHL1   H25 3322   4.722   2.424   8.113  3.2518 -1.7370 -0.5136
   45CHL1   C26 3323   4.921   2.475   8.170  0.4032 -0.1677  0.0641
   45CHL1  H26A 3324   4.992   2.557   8.148  0.0285 -0.0738 -0.8511
   45CHL1  H26B 3325   4.923   2.449   8.278 -0.8146 -0.1443  0.1094
   45CHL1  H26C 3326   4.947   2.389   8.104 -0.4561 -0.3783 -0.0181
   45CHL1   C27 3327   4.712   2.622   8.208  0.0367  0.2478  0.3096
   45CHL1  H27A 3328   4.782   2.685   8.268  1.5241 -1.7532  0.7880
   45CHL1  H27B 3329   4.660   2.691   8.139  0.3110 -0.3217 -0.4752
   45CHL1  H27C 3330   4.643   2.571   8.279  0.0240  1.0573  0.8939
   46CHL1    C3 3331   5.946   2.203   7.171  0.1807 -0.2266  0.0904
   46CHL1    H3 3332   5.888   2.274   7.234  2.4114  0.5738  1.3949
   46CHL1    O3 3333   5.947   2.239   7.030 -0.5688  0.2249 -0.4252
   46CHL1   H3' 3334   5.976   2.159   6.985  0.5088  1.6112 -2.3591
   46CHL1    C4 3335   6.084   2.192   7.235  0.0277  0.3648 -0.7594
   46CHL1   H4A 3336   6.131   2.128   7.157  0.7997 -1.0524  0.7897
   46CHL1   H4B 3337   6.142   2.287   7.228  1.8064 -0.6577 -0.7136
   46CHL1    C5 3338   6.107   2.131   7.372  0.1875  0.2047  0.6847
   46CHL1    C6 3339   6.178   2.198   7.466  0.6893 -0.7183  0.2323
   46CHL1    H6 3340   6.222   2.297   7.448  1.4879 -0.9338  0.9982
   46CHL1    C7 3341   6.200   2.148   7.602 -0.3718 -0.5543 -0.0512
   46CHL1   H7A 3342   6.308   2.159   7.625 -0.0094  1.4799 -2.3717
   46CHL1   H7B 3343   6.147   2.216   7.672 -0.2318 -2.6598  2.2164
   46CHL1    C8 3344   6.139   2.001   7.627  0.2894 -0.3382  0.1179
   46CHL1    H8 3345   6.219   1.931   7.597  0.6049  0.7374 -1.6792
   46CHL1   C14 3346   6.116   1.986   7.780  0.2965 -1.2725 -0.5734
   46CHL1   H14 3347   6.033   2.057   7.799  1.0516 -0.6842  0.6345
   46CHL1   C15 3348   6.234   2.023   7.875 -0.1773  0.1998 -0.9818
   46CHL1  H15A 3349   6.329   1.984   7.833  0.1152  0.3342 -0.4644
   46CHL1  H15B 3350   6.240   2.133   7.891  1.3100 -0.1640  1.5500
   46CHL1   C16 3351   6.196   1.959   8.012  0.5224 -0.1839  1.2034
   46CHL1  H16A 3352   6.268   1.881   8.042  0.8028 -0.3960  0.0400
   46CHL1  H16B 3353   6.186   2.030   8.097  0.7254 -1.4292  2.2819
   46CHL1   C17 3354   6.059   1.889   7.975 -0.5893 -0.2069 -0.8261
   46CHL1   H17 3355   5.979   1.966   7.985 -1.6434 -1.2271 -1.2370
   46CHL1   C13 3356   6.063   1.855   7.824  0.3970 -0.3500  0.2433
   46CHL1   C18 3357   6.165   1.738   7.797 -0.3631  0.4098  0.4041
   46CHL1  H18A 3358   6.261   1.760   7.848  0.2926 -0.0945 -0.5727
   46CHL1  H18B 3359   6.124   1.642   7.833 -0.2543 -0.4653 -1.6419
   46CHL1  H18C 3360   6.183   1.733   7.687  2.2425  2.4785  0.6249
   46CHL1   C12 3361   5.932   1.837   7.751  0.5259  0.6700 -0.0749
   46CHL1  H12A 3362   5.895   1.735   7.776 -1.0566  1.3063  0.2932
   46CHL1  H12B 3363   5.866   1.920   7.784 -1.0076 -0.8112  0.7245
   46CHL1   C11 3364   5.948   1.840   7.601 -0.0650  0.8628  0.1924
   46CHL1  H11A 3365   6.000   1.748   7.567 -0.2214  1.3291 -1.4047
   46CHL1  H11B 3366   5.845   1.835   7.558 -0.2018  3.5434  0.0694
   46CHL1    C9 3367   6.015   1.971   7.552 -0.5014  0.4430 -0.1600
   46CHL1    H9 3368   5.947   2.045   7.598  2.0906  1.8446  1.7005
   46CHL1   C10 3369   6.026   1.998   7.397  0.2936  0.3598  0.8724
   46CHL1   C19 3370   6.100   1.874   7.332  0.1836 -0.2377 -0.0165
   46CHL1  H19A 3371   6.125   1.891   7.225  1.8244  1.3060  0.5663
   46CHL1  H19B 3372   6.196   1.851   7.384  0.7764  1.1719 -0.4329
   46CHL1  H19C 3373   6.035   1.784   7.331 -2.0648  1.2854 -0.1696
   46CHL1    C1 3374   5.884   2.020   7.340 -0.4695  0.2214 -0.5972
   46CHL1   H1A 3375   5.842   1.917   7.350  3.0469 -1.3514 -0.4787
   46CHL1   H1B 3376   5.826   2.089   7.404  1.1375  0.5734  0.5249
   46CHL1    C2 3377   5.874   2.059   7.193  0.3506  0.1575  0.0599
   46CHL1   H2A 3378   5.767   2.076   7.166  0.7795  3.0310 -0.1351
   46CHL1   H2B 3379   5.920   1.974   7.139 -0.8843 -0.4442 -0.0839
   46CHL1   C20 3380   6.013   1.788   8.083  0.0515  0.6389 -0.4081
   46CHL1   H20 3381   6.065   1.691   8.066 -0.0501  0.4134  0.5481
   46CHL1   C21 3382   5.857   1.753   8.069  0.1593 -0.6439 -0.2783
   46CHL1  H21A 3383   5.843   1.715   7.965 -0.7257  2.0593 -1.2144
   46CHL1  H21B 3384   5.795   1.844   8.083 -0.4391 -1.3587  2.1323
   46CHL1  H21C 3385   5.834   1.674   8.143  1.2040 -0.9580 -0.2650
   46CHL1   C22 3386   6.044   1.841   8.225 -0.5136 -0.3084  0.8567
   46CHL1  H22A 3387   6.024   1.765   8.304 -1.9827 -0.3368  0.4742
   46CHL1  H22B 3388   6.152   1.865   8.236 -1.0266  2.7897  0.2316
   46CHL1   C23 3389   5.967   1.963   8.273  0.1503  0.2865  0.5161
   46CHL1  H23A 3390   6.001   2.053   8.217  0.2952  0.2122  0.4818
   46CHL1  H23B 3391   5.858   1.945   8.262  0.5282 -1.7745 -0.3019
   46CHL1   C24 3392   5.963   1.981   8.424 -0.2465 -0.0657  0.4455
   46CHL1  H24A 3393   5.905   2.069   8.459 -1.6781  0.8705 -3.6846
   46CHL1  H24B 3394   5.922   1.889   8.471  0.1015  1.2092  3.4876
   46CHL1   C25 3395   6.102   1.996   8.489 -0.4712 -0.6712 -0.2310
   46CHL1   H25 3396   6.163   1.913   8.447 -0.8810 -1.2209  0.2584
   46CHL1   C26 3397   6.171   2.126   8.449 -0.3091 -0.3501  1.1892
   46CHL1  H26A 3398   6.108   2.215   8.472  0.4746  0.5457 -0.0172
   46CHL1  H26B 3399   6.277   2.126   8.483  0.8646  3.2660 -1.7785
   46CHL1  H26C 3400   6.173   2.129   8.338 -2.6766 -0.8452  1.0904
   46CHL1   C27 3401   6.101   1.984   8.641  0.1715  0.6161 -0.8025
   46CHL1  H27A 3402   6.033   1.904   8.678  2.1176 -0.2457  1.1025
   46CHL1  H27B 3403   6.203   1.961   8.678 -0.2832 -0.7083 -0.3441
   46CHL1  H27C 3404   6.065   2.070   8.701 -1.9042  0.1309 -1.2582
   47CHL1    C3 3405   5.474   3.893   6.781 -0.2249  0.8086  0.1645
   47CHL1    H3 3406   5.429   3.993   6.799 -2.2374 -0.1213  0.5502
   47CHL1    O3 3407   5.488   3.850   6.648 -0.4252  0.2134  0.5444
   47CHL1   H3' 3408   5.398   3.826   6.625 -0.3776 -0.4952  1.0813
   47CHL1    C4 3409   5.617   3.898   6.845  0.2976 -0.1889  0.6737
   47CHL1   H4A 3410   5.673   3.803   6.833  0.0102 -0.1621 -1.3986
   47CHL1   H4B 3411   5.677   3.971   6.786  0.9846 -1.2769 -0.0190
   47CHL1    C5 3412   5.619   3.940   6.991 -1.1592 -0.1231  0.2760
   47CHL1    C6 3413   5.691   4.044   7.033  0.3613  0.4726  0.5609
   47CHL1    H6 3414   5.752   4.097   6.959  0.0066  1.0628  0.6821
   47CHL1    C7 3415   5.699   4.078   7.181  0.7835  0.1190  0.9976
   47CHL1   H7A 3416   5.806   4.103   7.199  1.0217 -0.1637  0.0122
   47CHL1   H7B 3417   5.655   4.178   7.203 -0.9299  0.1112 -1.8740
   47CHL1    C8 3418   5.649   3.963   7.278 -0.9441  0.2741 -0.1988
   47CHL1    H8 3419   5.721   3.879   7.283  0.5902  1.5639  0.1269
   47CHL1   C14 3420   5.639   4.013   7.421 -0.0569  0.5297  0.0320
   47CHL1   H14 3421   5.572   4.102   7.423  1.3815  1.6616  2.0356
   47CHL1   C15 3422   5.761   4.071   7.495 -0.9872  0.6670 -0.5153
   47CHL1  H15A 3423   5.843   3.998   7.478 -0.9097  0.2462  1.4003
   47CHL1  H15B 3424   5.793   4.172   7.463  1.9654 -0.1566 -0.4526
   47CHL1   C16 3425   5.714   4.076   7.645 -0.6605  0.2986  0.3144
   47CHL1  H16A 3426   5.788   4.029   7.713 -0.2985 -1.1183 -0.9890
   47CHL1  H16B 3427   5.693   4.182   7.670  1.3705  1.1964 -1.4876
   47CHL1   C17 3428   5.579   3.996   7.648 -0.0309 -0.0545 -0.3679
   47CHL1   H17 3429   5.502   4.075   7.643  0.4408  0.4170 -0.2290
   47CHL1   C13 3430   5.571   3.909   7.519 -0.4096  0.6502  0.0037
   47CHL1   C18 3431   5.675   3.792   7.538  0.0743 -0.2824 -0.1474
   47CHL1  H18A 3432   5.761   3.800   7.608  0.3545  2.3742 -0.7100
   47CHL1  H18B 3433   5.630   3.700   7.582 -0.6033  0.0496 -0.1410
   47CHL1  H18C 3434   5.713   3.765   7.437 -2.4343 -1.6094 -0.8223
   47CHL1   C12 3435   5.434   3.862   7.462 -0.3619 -0.3272  0.4996
   47CHL1  H12A 3436   5.390   3.778   7.520  0.5831 -1.4268 -0.3415
   47CHL1  H12B 3437   5.356   3.941   7.453 -0.4556 -0.6297 -2.2175
   47CHL1   C11 3438   5.458   3.810   7.320  0.0322  0.3809  0.1081
   47CHL1  H11A 3439   5.503   3.708   7.324  2.1678  1.2782 -0.0879
   47CHL1  H11B 3440   5.355   3.790   7.281 -0.2303  0.9424  0.5061
   47CHL1    C9 3441   5.522   3.905   7.222  0.4785 -0.7491  0.2132
   47CHL1    H9 3442   5.444   3.984   7.218  1.5129  0.2501 -2.3520
   47CHL1   C10 3443   5.533   3.852   7.085  0.9155  0.1075  0.5705
   47CHL1   C19 3444   5.604   3.710   7.092 -0.2043 -0.3655 -0.3868
   47CHL1  H19A 3445   5.608   3.669   6.988 -1.5415  0.3947 -0.7630
   47CHL1  H19B 3446   5.712   3.731   7.111  0.0966 -0.0173 -2.2333
   47CHL1  H19C 3447   5.552   3.631   7.149 -1.1694 -0.1251 -0.9273
   47CHL1    C1 3448   5.387   3.835   7.007  0.1249  0.0132 -0.4855
   47CHL1   H1A 3449   5.341   3.758   7.072  0.7310 -0.9834 -1.2022
   47CHL1   H1B 3450   5.330   3.931   7.005 -0.0530  0.0643 -5.0834
   47CHL1    C2 3451   5.390   3.787   6.859  0.2291 -0.3305  0.0270
   47CHL1   H2A 3452   5.285   3.782   6.823  0.5251  0.1661 -0.9152
   47CHL1   H2B 3453   5.429   3.684   6.871  1.1790  0.1206  0.9786
   47CHL1   C20 3454   5.559   3.932   7.785  0.0491 -0.8029 -0.4713
   47CHL1   H20 3455   5.639   3.857   7.804 -0.2044 -1.3194 -1.4017
   47CHL1   C21 3456   5.420   3.873   7.781  0.1809  0.0015  0.1387
   47CHL1  H21A 3457   5.430   3.783   7.717  1.0012 -1.3143  2.0176
   47CHL1  H21B 3458   5.347   3.946   7.741  0.7172  0.7601  0.5125
   47CHL1  H21C 3459   5.381   3.843   7.881 -0.6654  0.1041 -0.1532
   47CHL1   C22 3460   5.563   4.036   7.902 -0.4474  1.0006 -0.1207
   47CHL1  H22A 3461   5.640   4.115   7.891  0.2859  0.2453 -0.4793
   47CHL1  H22B 3462   5.461   4.080   7.898 -1.4861 -1.2069  0.5125
   47CHL1   C23 3463   5.578   3.968   8.034 -0.0769  0.5218 -0.1153
   47CHL1  H23A 3464   5.500   4.009   8.101 -0.9269 -0.9884 -0.1265
   47CHL1  H23B 3465   5.567   3.857   8.032 -0.8712  0.5521  1.3461
   47CHL1   C24 3466   5.706   3.997   8.106 -0.3465 -0.1568  0.7808
   47CHL1  H24A 3467   5.794   3.940   8.069  0.7364  0.6639  1.9675
   47CHL1  H24B 3468   5.738   4.103   8.093  0.0493 -0.3749 -0.0972
   47CHL1   C25 3469   5.705   3.966   8.256 -0.1406  0.5786 -0.4838
   47CHL1   H25 3470   5.641   3.877   8.268 -1.9132  1.2072 -3.9910
   47CHL1   C26 3471   5.838   3.942   8.323  0.1599  0.0761  0.2231
   47CHL1  H26A 3472   5.817   3.938   8.432  0.8857  0.9249  0.3985
   47CHL1  H26B 3473   5.878   3.844   8.287  0.1325  0.2690 -0.3430
   47CHL1  H26C 3474   5.911   4.021   8.295  0.1785 -0.0080  0.0296
   47CHL1   C27 3475   5.631   4.080   8.344  0.6572  0.0640 -0.4636
   47CHL1  H27A 3476   5.533   4.115   8.304  0.1641 -1.1286 -0.3251
   47CHL1  H27B 3477   5.616   4.050   8.450 -3.1218  3.0339  0.0986
   47CHL1  H27C 3478   5.704   4.164   8.343  0.8440 -0.0975 -0.4094
   48CHL1    C3 3479   0.443   0.290   6.442  0.2615  0.5071  0.5185
   48CHL1    H3 3480   0.344   0.285   6.491  0.1895  2.4267  0.6424
   48CHL1    O3 3481   0.424   0.303   6.305  0.1978 -0.6326 -0.3782
   48CHL1   H3' 3482   0.470   0.383   6.277  0.0403 -1.0697 -2.0083
   48CHL1    C4 3483   0.515   0.413   6.482  0.4715 -0.3280  0.7996
   48CHL1   H4A 3484   0.603   0.428   6.416  0.0356  2.0070  0.6472
   48CHL1   H4B 3485   0.458   0.507   6.465  1.7946  0.1401 -1.6820
   48CHL1    C5 3486   0.563   0.409   6.631  0.2498  0.8669  0.1180
   48CHL1    C6 3487   0.523   0.505   6.720 -0.4057  0.4106  0.4546
   48CHL1    H6 3488   0.458   0.587   6.686 -1.8180 -0.7817  0.1407
   48CHL1    C7 3489   0.568   0.509   6.862 -0.0667 -0.1664  0.7506
   48CHL1   H7A 3490   0.607   0.608   6.894 -0.7601  0.1841  0.5279
   48CHL1   H7B 3491   0.484   0.490   6.932 -0.9153  2.8364  0.6662
   48CHL1    C8 3492   0.680   0.404   6.893  0.3793  0.0234  0.1506
   48CHL1    H8 3493   0.765   0.452   6.839 -1.1898  1.3745 -1.2607
   48CHL1   C14 3494   0.711   0.374   7.034 -0.2468 -0.5166 -0.7371
   48CHL1   H14 3495   0.617   0.323   7.064  0.1172 -1.1380 -0.6296
   48CHL1   C15 3496   0.730   0.494   7.124 -0.3943 -1.2073 -0.1124
   48CHL1  H15A 3497   0.796   0.569   7.076 -3.0384  1.6753  0.4221
   48CHL1  H15B 3498   0.628   0.535   7.143 -0.1436 -0.9520  0.7345
   48CHL1   C16 3499   0.781   0.438   7.265 -0.6757 -0.2861  0.1853
   48CHL1  H16A 3500   0.870   0.502   7.282 -1.3116  1.8383 -3.3269
   48CHL1  H16B 3501   0.713   0.465   7.349  0.2337  1.1289  0.5034
   48CHL1   C17 3502   0.805   0.289   7.233  0.6369  0.2441 -0.7218
   48CHL1   H17 3503   0.711   0.239   7.265 -0.0851  1.3999 -0.9702
   48CHL1   C13 3504   0.819   0.278   7.079 -0.3512 -0.4026 -0.8986
   48CHL1   C18 3505   0.960   0.334   7.042  0.0864  0.4698  0.3133
   48CHL1  H18A 3506   0.965   0.444   7.057 -2.1601  0.7622 -0.6818
   48CHL1  H18B 3507   1.026   0.275   7.109 -0.7886  1.4930  2.1723
   48CHL1  H18C 3508   0.995   0.310   6.939  0.6509  0.0704  0.5938
   48CHL1   C12 3509   0.795   0.147   7.012 -0.4190  0.6236 -0.1737
   48CHL1  H12A 3510   0.885   0.083   7.016  0.3020  1.6379  0.6089
   48CHL1  H12B 3511   0.704   0.093   7.047 -0.2156  0.9432  0.8998
   48CHL1   C11 3512   0.774   0.161   6.860 -1.1249  0.3567  0.2968
   48CHL1  H11A 3513   0.870   0.191   6.813 -1.9180 -0.3957 -1.9202
   48CHL1  H11B 3514   0.743   0.065   6.814 -0.2119 -0.2930  1.0125
   48CHL1    C9 3515   0.664   0.266   6.818 -0.1503 -0.1439  0.5010
   48CHL1    H9 3516   0.570   0.219   6.854 -3.1017  1.8895 -3.7898
   48CHL1   C10 3517   0.649   0.290   6.669 -0.0884 -0.1436 -0.0318
   48CHL1   C19 3518   0.786   0.300   6.600 -0.2388 -0.0340 -0.0841
   48CHL1  H19A 3519   0.857   0.219   6.625 -0.6172 -0.0117  1.1592
   48CHL1  H19B 3520   0.769   0.296   6.490  2.0001  0.2669 -0.4844
   48CHL1  H19C 3521   0.833   0.398   6.623 -0.6918  0.3240 -0.6699
   48CHL1    C1 3522   0.573   0.160   6.614 -0.2518  0.3925  0.0568
   48CHL1   H1A 3523   0.632   0.065   6.618 -1.7165 -0.5504 -0.0643
   48CHL1   H1B 3524   0.478   0.135   6.665 -0.5361  0.2726 -0.5308
   48CHL1    C2 3525   0.523   0.160   6.469 -0.3099 -0.8274  0.4636
   48CHL1   H2A 3526   0.456   0.076   6.443 -1.1018  0.3643 -1.5491
   48CHL1   H2B 3527   0.606   0.160   6.395  0.0250  1.8281  0.7270
   48CHL1   C20 3528   0.908   0.226   7.334 -1.0729  0.0258 -0.2995
   48CHL1   H20 3529   1.006   0.275   7.317 -2.8192  2.8992 -3.2235
   48CHL1   C21 3530   0.923   0.075   7.313  0.2302  0.1944 -0.3132
   48CHL1  H21A 3531   0.966   0.053   7.213  0.9109 -0.8875  0.2010
   48CHL1  H21B 3532   0.820   0.033   7.316 -0.2953  1.4397 -0.3261
   48CHL1  H21C 3533   0.988   0.019   7.383  0.1122 -1.3722 -1.3960
   48CHL1   C22 3534   0.866   0.244   7.485 -0.5189  0.5379 -0.8435
   48CHL1  H22A 3535   0.826   0.346   7.504 -1.4960  0.0455 -0.1865
   48CHL1  H22B 3536   0.780   0.173   7.492  0.2855 -0.4879 -1.0883
   48CHL1   C23 3537   0.985   0.221   7.592  0.0032  0.3733 -0.9618
   48CHL1  H23A 3538   1.031   0.122   7.571  1.0716  1.0189 -1.7484
   48CHL1  H23B 3539   1.054   0.307   7.579  0.0476  0.6507  0.8830
   48CHL1   C24 3540   0.915   0.233   7.731 -0.3527 -0.3871  0.4770
   48CHL1  H24A 3541   0.868   0.333   7.739  0.8864  0.1412  1.4473
   48CHL1  H24B 3542   0.832   0.159   7.740  0.1733 -1.1743 -0.8865
   48CHL1   C25 3543   1.005   0.191   7.850  0.2798 -0.1825  0.2969
   48CHL1   H25 3544   1.033   0.084   7.848 -1.1842 -0.5846  0.0577
   48CHL1   C26 3545   1.135   0.277   7.839  0.4693  0.3897  0.2131
   48CHL1  H26A 3546   1.108   0.385   7.831 -3.4738 -0.5044 -0.3448
   48CHL1  H26B 3547   1.198   0.256   7.929  0.8259  0.6117  0.0191
   48CHL1  H26C 3548   1.206   0.264   7.755 -0.9768 -1.6095 -0.7634
   48CHL1   C27 3549   0.930   0.223   7.977  0.7433  0.1177 -0.1060
   48CHL1  H27A 3550   0.972   0.187   8.073  0.0660  4.9590  2.3065
   48CHL1  H27B 3551   0.907   0.332   7.985 -0.9583 -0.2060 -0.3455
   48CHL1  H27C 3552   0.837   0.164   7.968  2.3512 -2.7460  0.8494
   49CHL1    C3 3553   0.349   2.154   6.744 -0.0881  0.3316 -0.6959
   49CHL1    H3 3554   0.399   2.070   6.693 -0.3160 -1.1236  1.3695
   49CHL1    O3 3555   0.345   2.261   6.654  0.0178  0.3890 -0.2287
   49CHL1   H3' 3556   0.252   2.276   6.637 -0.0875  1.3299  1.0524
   49CHL1    C4 3557   0.212   2.098   6.790 -0.3252  0.0310  0.3334
   49CHL1   H4A 3558   0.144   2.176   6.832  1.2093  0.6890  1.6838
   49CHL1   H4B 3559   0.161   2.070   6.695 -1.6286 -0.2042  1.0791
   49CHL1    C5 3560   0.233   1.997   6.898 -0.2789 -0.4514 -0.5580
   49CHL1    C6 3561   0.180   1.878   6.878 -0.4671  0.4588 -0.1728
   49CHL1    H6 3562   0.115   1.860   6.790 -2.1818 -0.2696  1.1784
   49CHL1    C7 3563   0.191   1.781   6.987 -0.4132  0.4730  0.6120
   49CHL1   H7A 3564   0.104   1.712   6.987 -0.9469  1.1202 -0.1974
   49CHL1   H7B 3565   0.277   1.714   6.967 -1.7085 -2.3393  3.6097
   49CHL1    C8 3566   0.212   1.835   7.124 -0.0376 -0.2514  0.1048
   49CHL1    H8 3567   0.111   1.877   7.147 -0.0119  0.1340 -0.4565
   49CHL1   C14 3568   0.256   1.721   7.221 -0.6227 -0.8322  0.8782
   49CHL1   H14 3569   0.353   1.679   7.185 -0.3426 -1.0921  1.9005
   49CHL1   C15 3570   0.165   1.596   7.231 -0.0678  0.3927 -0.0108
   49CHL1  H15A 3571   0.062   1.635   7.215  0.0365 -0.0723 -2.0359
   49CHL1  H15B 3572   0.173   1.519   7.152  1.9867  0.4782  0.0625
   49CHL1   C16 3573   0.197   1.540   7.370 -0.5083  0.5693 -0.3273
   49CHL1  H16A 3574   0.113   1.526   7.441  0.3299 -0.6075  0.4733
   49CHL1  H16B 3575   0.251   1.443   7.363 -0.5030  0.6024 -0.7623
   49CHL1   C17 3576   0.304   1.634   7.446  0.3020 -0.4663 -0.5209
   49CHL1   H17 3577   0.406   1.598   7.423  0.9453  0.4292  0.8161
   49CHL1   C13 3578   0.288   1.771   7.368 -0.0786  0.2592  0.2447
   49CHL1   C18 3579   0.175   1.854   7.423 -0.3384 -0.2132 -0.3643
   49CHL1  H18A 3580   0.181   1.890   7.528 -1.5419 -0.4476 -0.1923
   49CHL1  H18B 3581   0.154   1.948   7.367  0.8032 -1.1503 -2.4439
   49CHL1  H18C 3582   0.081   1.794   7.420  0.3163 -1.2926  0.0246
   49CHL1   C12 3583   0.411   1.863   7.364  0.1154 -0.6379  0.1488
   49CHL1  H12A 3584   0.435   1.909   7.462  0.9248 -0.7513  0.0113
   49CHL1  H12B 3585   0.499   1.804   7.329 -0.0354 -0.8138  0.0635
   49CHL1   C11 3586   0.394   1.979   7.266  0.3738 -0.2577 -0.1234
   49CHL1  H11A 3587   0.334   2.056   7.319 -0.1368 -0.2808 -0.6619
   49CHL1  H11B 3588   0.488   2.036   7.249 -0.6802  1.7998  0.5806
   49CHL1    C9 3589   0.336   1.929   7.126  0.2934 -0.3146  0.1903
   49CHL1    H9 3590   0.421   1.867   7.088 -1.3733 -3.1554  0.8464
   49CHL1   C10 3591   0.310   2.042   7.020  0.3728  0.0644 -0.8321
   49CHL1   C19 3592   0.228   2.161   7.085 -0.1788 -0.1663 -0.4947
   49CHL1  H19A 3593   0.290   2.219   7.157  0.2471  0.6497 -1.4896
   49CHL1  H19B 3594   0.185   2.233   7.012 -0.1687 -1.4248 -1.7913
   49CHL1  H19C 3595   0.140   2.119   7.138 -1.2880 -1.1851 -2.9861
   49CHL1    C1 3596   0.448   2.089   6.961  0.7858  0.3178 -0.4439
   49CHL1   H1A 3597   0.514   2.115   7.046  1.5260  1.5616 -1.3658
   49CHL1   H1B 3598   0.494   1.998   6.918 -0.5427 -0.4989 -0.2239
   49CHL1    C2 3599   0.433   2.202   6.867 -0.9657 -0.5658  1.0200
   49CHL1   H2A 3600   0.529   2.240   6.826 -2.2344  0.8919 -0.7815
   49CHL1   H2B 3601   0.376   2.291   6.901 -2.2413 -0.1644 -1.8345
   49CHL1   C20 3602   0.300   1.637   7.604 -0.1311 -0.2353  0.5496
   49CHL1   H20 3603   0.208   1.692   7.630  1.3718  2.4979  0.4523
   49CHL1   C21 3604   0.410   1.737   7.667  0.0199  0.4413 -0.5806
   49CHL1  H21A 3605   0.412   1.712   7.775 -3.1665 -1.4060 -0.8085
   49CHL1  H21B 3606   0.396   1.846   7.647  0.1259  0.6161  0.2799
   49CHL1  H21C 3607   0.508   1.705   7.627 -0.5568 -0.8809 -1.0140
   49CHL1   C22 3608   0.298   1.494   7.654 -1.6565 -0.5189 -0.2536
   49CHL1  H22A 3609   0.196   1.448   7.646 -2.8980  1.4210  2.8772
   49CHL1  H22B 3610   0.373   1.435   7.596 -0.5974 -0.9769  1.5268
   49CHL1   C23 3611   0.342   1.470   7.799  0.1209  0.9849  0.3095
   49CHL1  H23A 3612   0.441   1.516   7.816  0.2798  1.0101 -0.6364
   49CHL1  H23B 3613   0.277   1.528   7.868 -0.3543 -1.0447  1.6746
   49CHL1   C24 3614   0.324   1.318   7.830 -0.2120 -0.2464 -0.6727
   49CHL1  H24A 3615   0.215   1.297   7.819 -0.5723  1.5179 -0.8518
   49CHL1  H24B 3616   0.385   1.266   7.754 -2.0370  0.5426 -2.7950
   49CHL1   C25 3617   0.361   1.293   7.979 -0.4943 -0.6976 -0.0451
   49CHL1   H25 3618   0.304   1.363   8.045  0.8287 -0.9490  1.4173
   49CHL1   C26 3619   0.309   1.156   8.017  0.7694  0.6038 -0.1946
   49CHL1  H26A 3620   0.349   1.075   7.952  0.7786  0.8373 -0.4826
   49CHL1  H26B 3621   0.346   1.130   8.119 -0.6441  1.8949  0.6890
   49CHL1  H26C 3622   0.198   1.150   8.024  0.8113 -1.2761 -0.6252
   49CHL1   C27 3623   0.517   1.299   7.991 -0.0573  0.0472  0.7884
   49CHL1  H27A 3624   0.563   1.239   7.910  0.4794  2.5345 -0.8855
   49CHL1  H27B 3625   0.558   1.402   7.989 -1.4630  0.6332  0.7448
   49CHL1  H27C 3626   0.546   1.254   8.088  0.2028  0.0780  0.7246
   50CHL1    C3 3627   0.558   2.622   7.012  0.0602 -0.2407  0.1172
   50CHL1    H3 3628   0.591   2.726   7.032  1.4869 -0.1491 -2.3289
   50CHL1    O3 3629   0.526   2.615   6.873  0.0273 -0.4863  0.2945
   50CHL1   H3' 3630   0.614   2.620   6.833 -0.4405  1.5462 -0.6050
   50CHL1    C4 3631   0.673   2.527   7.041  0.1732  0.4566  0.0492
   50CHL1   H4A 3632   0.629   2.428   7.015 -1.2403  0.4852  2.0459
   50CHL1   H4B 3633   0.759   2.548   6.974 -0.7459 -0.5784 -1.5300
   50CHL1    C5 3634   0.719   2.518   7.186  0.1010  0.7296  0.0334
   50CHL1    C6 3635   0.844   2.544   7.221 -0.3075  0.0064 -0.7823
   50CHL1    H6 3636   0.914   2.566   7.139 -1.8037 -0.7328 -2.3276
   50CHL1    C7 3637   0.899   2.564   7.367  0.2202  0.2763  0.3930
   50CHL1   H7A 3638   0.992   2.505   7.378  1.5516  2.0804 -0.6739
   50CHL1   H7B 3639   0.919   2.673   7.364  0.9759  0.1147 -0.8068
   50CHL1    C8 3640   0.789   2.512   7.466 -0.2521 -0.4850  0.3276
   50CHL1    H8 3641   0.784   2.401   7.467 -2.5730 -0.4157  1.4419
   50CHL1   C14 3642   0.823   2.544   7.615  0.6008  0.0035 -0.8389
   50CHL1   H14 3643   0.806   2.653   7.630 -3.7045 -0.8417  2.2155
   50CHL1   C15 3644   0.964   2.510   7.658 -0.1280 -0.3116 -0.6310
   50CHL1  H15A 3645   0.994   2.405   7.638  0.1618 -0.1958 -0.8045
   50CHL1  H15B 3646   1.043   2.577   7.620  0.5330 -1.9154 -2.2238
   50CHL1   C16 3647   0.956   2.522   7.805  0.6077 -0.3820  0.2330
   50CHL1  H16A 3648   1.023   2.452   7.859 -0.1795  0.5194  2.4705
   50CHL1  H16B 3649   0.987   2.621   7.846 -1.9777 -0.5745  3.0060
   50CHL1   C17 3650   0.807   2.522   7.848 -0.8784  0.0936 -0.7286
   50CHL1   H17 3651   0.791   2.628   7.879 -1.0252 -0.3632  0.8548
   50CHL1   C13 3652   0.732   2.485   7.724 -0.1438 -0.3566  0.2311
   50CHL1   C18 3653   0.728   2.333   7.708  0.6235  0.0112  0.2167
   50CHL1  H18A 3654   0.687   2.294   7.613 -1.8020 -1.3986  1.7450
   50CHL1  H18B 3655   0.827   2.283   7.712  1.0879  0.7473 -1.4089
   50CHL1  H18C 3656   0.650   2.282   7.769  0.1354 -1.1747 -1.3433
   50CHL1   C12 3657   0.593   2.546   7.691  0.1704  0.5461  0.0104
   50CHL1  H12A 3658   0.518   2.510   7.765  0.4837 -0.1748 -0.0121
   50CHL1  H12B 3659   0.590   2.657   7.697  1.3984  0.6124 -0.4910
   50CHL1   C11 3660   0.543   2.507   7.543  0.2118 -0.6670 -0.6611
   50CHL1  H11A 3661   0.511   2.401   7.534  0.6648 -0.7703 -1.1319
   50CHL1  H11B 3662   0.454   2.572   7.528  1.1507  0.9952  0.6649
   50CHL1    C9 3663   0.643   2.552   7.429 -0.3154  0.1250  0.0782
   50CHL1    H9 3664   0.640   2.663   7.432 -1.0951  0.1154  3.0176
   50CHL1   C10 3665   0.605   2.511   7.287  0.0455  0.3906 -0.8390
   50CHL1   C19 3666   0.559   2.364   7.287  0.5924 -0.2228  0.2412
   50CHL1  H19A 3667   0.554   2.320   7.186 -0.6042  0.9701 -0.2463
   50CHL1  H19B 3668   0.634   2.293   7.330  0.5038  0.4744  1.5999
   50CHL1  H19C 3669   0.460   2.355   7.337  0.7473  2.0029  1.0775
   50CHL1    C1 3670   0.486   2.601   7.250 -0.1337  0.7547  0.3885
   50CHL1   H1A 3671   0.402   2.586   7.321 -1.7101  1.2297 -1.3147
   50CHL1   H1B 3672   0.515   2.708   7.265  0.3316  0.9026 -1.3421
   50CHL1    C2 3673   0.436   2.583   7.108  0.3937 -0.2265  0.0936
   50CHL1   H2A 3674   0.346   2.647   7.097  0.1984 -0.6448 -0.7511
   50CHL1   H2B 3675   0.396   2.481   7.091 -2.6333  1.1636 -1.9836
   50CHL1   C20 3676   0.778   2.440   7.970  0.4448  0.8883 -0.8305
   50CHL1   H20 3677   0.814   2.338   7.943 -1.8304  0.1817 -1.4770
   50CHL1   C21 3678   0.625   2.425   8.011 -0.1748 -0.9385 -0.0503
   50CHL1  H21A 3679   0.568   2.361   7.940 -0.4924 -0.1516 -0.5088
   50CHL1  H21B 3680   0.578   2.520   8.043  0.8277 -0.9930  1.7148
   50CHL1  H21C 3681   0.623   2.355   8.098 -0.8832 -0.8546  0.0114
   50CHL1   C22 3682   0.854   2.497   8.094  0.0079  0.1919  0.4497
   50CHL1  H22A 3683   0.958   2.526   8.067  0.4762 -2.5333 -1.0456
   50CHL1  H22B 3684   0.809   2.594   8.123  1.8066  0.4956  2.4903
   50CHL1   C23 3685   0.868   2.405   8.216  0.6640  0.1694  0.6836
   50CHL1  H23A 3686   0.944   2.447   8.285 -0.3327 -0.1103  2.0018
   50CHL1  H23B 3687   0.774   2.406   8.276  0.1522 -1.5762 -0.0550
   50CHL1   C24 3688   0.913   2.263   8.184  0.4274  0.4509 -0.1914
   50CHL1  H24A 3689   0.854   2.224   8.099  0.6291  3.3927 -1.8229
   50CHL1  H24B 3690   1.015   2.279   8.144  0.1864 -1.5270 -1.7307
   50CHL1   C25 3691   0.907   2.192   8.316  0.3963  0.1392  0.0831
   50CHL1   H25 3692   0.922   2.262   8.401 -0.8694  0.5892 -0.0344
   50CHL1   C26 3693   0.768   2.124   8.338  0.3005  0.4043  0.0379
   50CHL1  H26A 3694   0.686   2.199   8.329  1.0784  1.1990 -0.8043
   50CHL1  H26B 3695   0.746   2.038   8.271  1.2529 -0.8366  1.2781
   50CHL1  H26C 3696   0.768   2.081   8.440  0.1313 -1.4433 -0.7162
   50CHL1   C27 3697   1.025   2.096   8.320  0.8271  0.5531 -0.3525
   50CHL1  H27A 3698   1.119   2.152   8.338  0.7850  0.4249  0.3164
   50CHL1  H27B 3699   1.000   2.022   8.400 -1.6492  1.9678  0.2903
   50CHL1  H27C 3700   1.035   2.035   8.228  0.1148 -0.2761  0.0913
   51CHL1    C3 3701   1.275   1.685   7.018 -0.3415  0.1237 -0.2142
   51CHL1    H3 3702   1.356   1.760   7.013 -0.1672  0.0202  0.9445
   51CHL1    O3 3703   1.205   1.671   6.891  0.0583 -0.0034  0.1793
   51CHL1   H3' 3704   1.273   1.634   6.835 -0.6330 -0.4383 -0.3893
   51CHL1    C4 3705   1.324   1.552   7.070  0.2784  0.6065 -0.0217
   51CHL1   H4A 3706   1.237   1.484   7.054  0.7346 -0.4515  1.7326
   51CHL1   H4B 3707   1.408   1.515   7.007  1.3393 -2.3934  2.8742
   51CHL1    C5 3708   1.364   1.548   7.213 -0.6153  0.7139  0.3477
   51CHL1    C6 3709   1.481   1.490   7.240  0.3243  0.5895 -0.2710
   51CHL1    H6 3710   1.529   1.423   7.168  1.1009 -2.2876  2.7049
   51CHL1    C7 3711   1.547   1.481   7.378 -0.1476 -0.0445 -0.0368
   51CHL1   H7A 3712   1.585   1.379   7.402 -1.5805 -0.2636  1.4402
   51CHL1   H7B 3713   1.628   1.556   7.391 -0.8237  0.8656 -0.9678
   51CHL1    C8 3714   1.438   1.512   7.487  0.4641 -0.1724 -0.4755
   51CHL1    H8 3715   1.366   1.429   7.502 -0.2187  0.7457  1.6149
   51CHL1   C14 3716   1.495   1.547   7.622 -0.4500 -0.3996  0.3422
   51CHL1   H14 3717   1.562   1.634   7.602  0.8712 -1.5086 -0.2686
   51CHL1   C15 3718   1.600   1.445   7.675  0.0480  0.0528  0.0363
   51CHL1  H15A 3719   1.569   1.341   7.654 -0.5577  0.6347 -2.2473
   51CHL1  H15B 3720   1.697   1.469   7.627 -0.0475 -1.9918 -1.2951
   51CHL1   C16 3721   1.602   1.458   7.824 -0.0073  0.2985 -0.7656
   51CHL1  H16A 3722   1.585   1.360   7.873  1.4562 -0.2077 -1.2203
   51CHL1  H16B 3723   1.695   1.500   7.868  0.8551 -1.5860 -0.7025
   51CHL1   C17 3724   1.499   1.569   7.856  0.2893  0.0240 -0.7269
   51CHL1   H17 3725   1.562   1.660   7.855 -1.0572  0.9910 -0.7736
   51CHL1   C13 3726   1.400   1.572   7.738 -0.1525  0.5465  0.2395
   51CHL1   C18 3727   1.284   1.464   7.756  0.1192  0.2201 -0.4823
   51CHL1  H18A 3728   1.222   1.497   7.842 -0.6384 -0.7455 -0.6462
   51CHL1  H18B 3729   1.217   1.458   7.668  0.4604  1.7854 -0.8799
   51CHL1  H18C 3730   1.332   1.365   7.774  0.5640  0.2753 -1.2868
   51CHL1   C12 3731   1.347   1.713   7.691 -0.0434  0.1772  0.7790
   51CHL1  H12A 3732   1.283   1.767   7.764 -0.5781  3.6841 -2.0331
   51CHL1  H12B 3733   1.438   1.777   7.698  0.2496 -0.0889 -0.3975
   51CHL1   C11 3734   1.275   1.706   7.556  0.0969 -0.8143 -0.3440
   51CHL1  H11A 3735   1.190   1.641   7.586  1.1317 -1.0716  2.2648
   51CHL1  H11B 3736   1.232   1.804   7.524  0.4329 -0.7146 -0.4886
   51CHL1    C9 3737   1.355   1.640   7.443  0.4299  0.0531  0.2572
   51CHL1    H9 3738   1.441   1.708   7.421 -0.7637  1.0042 -1.7306
   51CHL1   C10 3739   1.269   1.616   7.310 -0.3204 -1.0502  0.0748
   51CHL1   C19 3740   1.151   1.518   7.320  0.5824 -0.0151  0.2385
   51CHL1  H19A 3741   1.072   1.567   7.381  1.9460  1.5809  0.7775
   51CHL1  H19B 3742   1.098   1.508   7.222 -0.7435 -2.6516  1.1175
   51CHL1  H19C 3743   1.181   1.419   7.359  2.5491  0.8182  0.9284
   51CHL1    C1 3744   1.214   1.751   7.259 -0.5982  0.4939 -0.5514
   51CHL1   H1A 3745   1.125   1.770   7.323  0.1479  1.6307  0.1602
   51CHL1   H1B 3746   1.299   1.820   7.274 -0.3339  0.1363 -0.3803
   51CHL1    C2 3747   1.171   1.746   7.113 -0.0644 -0.4443 -0.5420
   51CHL1   H2A 3748   1.153   1.855   7.095 -0.9215 -0.6186 -0.7763
   51CHL1   H2B 3749   1.076   1.696   7.087 -1.3720  1.6013  0.0604
   51CHL1   C20 3750   1.436   1.560   7.995  0.0461 -0.3785 -0.2858
   51CHL1   H20 3751   1.367   1.475   8.011 -1.5763  1.4655  3.8407
   51CHL1   C21 3752   1.363   1.693   8.026  0.3023  0.0325 -0.1104
   51CHL1  H21A 3753   1.337   1.701   8.134 -1.1362 -1.7131 -0.2658
   51CHL1  H21B 3754   1.270   1.703   7.965  0.3471  2.0232  0.0890
   51CHL1  H21C 3755   1.421   1.786   8.009 -0.6862  0.2796 -2.5607
   51CHL1   C22 3756   1.552   1.527   8.100  0.2135  0.5461  0.0926
   51CHL1  H22A 3757   1.601   1.435   8.062  1.1599  1.3759 -0.7412
   51CHL1  H22B 3758   1.626   1.610   8.097 -1.0195  1.6634 -0.4133
   51CHL1   C23 3759   1.511   1.504   8.242 -0.0252  0.2186 -0.0471
   51CHL1  H23A 3760   1.462   1.598   8.277 -0.6841  0.0579 -0.5107
   51CHL1  H23B 3761   1.436   1.423   8.248  0.3660 -0.2593 -1.2492
   51CHL1   C24 3762   1.635   1.462   8.315  0.5861  0.1647 -0.0394
   51CHL1  H24A 3763   1.674   1.370   8.266 -0.3991 -0.0095 -0.5225
   51CHL1  H24B 3764   1.708   1.545   8.304 -1.8466  2.5834  0.7820
   51CHL1   C25 3765   1.620   1.427   8.470 -0.2736 -0.5798 -0.2227
   51CHL1   H25 3766   1.721   1.425   8.516 -0.3598  1.4155  0.1215
   51CHL1   C26 3767   1.535   1.535   8.544  0.2392  0.5738  0.3925
   51CHL1  H26A 3768   1.574   1.636   8.519 -2.1260  1.4422 -0.0665
   51CHL1  H26B 3769   1.429   1.529   8.511  0.7229 -1.9603 -1.0234
   51CHL1  H26C 3770   1.534   1.523   8.654  1.5452 -0.6000  0.3076
   51CHL1   C27 3771   1.554   1.292   8.488 -0.2015  0.1004 -0.3231
   51CHL1  H27A 3772   1.605   1.224   8.417 -0.5934  0.3529 -0.8528
   51CHL1  H27B 3773   1.565   1.255   8.592  1.6729 -0.7297 -0.7841
   51CHL1  H27C 3774   1.445   1.300   8.469 -0.2540 -0.5135 -0.3135
   52CHL1    C3 3775   1.674   2.644   7.025 -0.1943  0.6640  0.7043
   52CHL1    H3 3776   1.599   2.709   7.076 -1.9852 -0.3566 -0.5243
   52CHL1    O3 3777   1.675   2.644   6.879  0.6825  0.2875 -0.6654
   52CHL1   H3' 3778   1.722   2.565   6.851  0.4282  0.5221 -1.7800
   52CHL1    C4 3779   1.818   2.671   7.073 -0.2098 -0.3181 -0.6508
   52CHL1   H4A 3780   1.883   2.598   7.019  0.1791 -0.4585 -0.0029
   52CHL1   H4B 3781   1.849   2.772   7.041 -1.8134 -0.3474 -2.5048
   52CHL1    C5 3782   1.823   2.657   7.228  0.1490  0.8805  0.9891
   52CHL1    C6 3783   1.868   2.746   7.319  0.6287 -0.2022  0.2993
   52CHL1    H6 3784   1.915   2.834   7.271  0.2509 -0.5038 -0.6635
   52CHL1    C7 3785   1.902   2.725   7.470  0.7557 -0.8595  0.1038
   52CHL1   H7A 3786   2.004   2.749   7.507  0.8561 -3.0928  1.4699
   52CHL1   H7B 3787   1.831   2.781   7.535  0.8579 -2.6951  1.8984
   52CHL1    C8 3788   1.870   2.574   7.512 -0.6001  0.2790 -0.4224
   52CHL1    H8 3789   1.968   2.523   7.500  0.7096  2.1456  1.4669
   52CHL1   C14 3790   1.840   2.559   7.662  0.0929 -0.9632  0.5716
   52CHL1   H14 3791   1.746   2.615   7.677 -0.4105 -1.1445 -1.5390
   52CHL1   C15 3792   1.934   2.641   7.752  0.0998  0.1078  0.0965
   52CHL1  H15A 3793   2.040   2.630   7.720  0.5774 -0.3042  1.6895
   52CHL1  H15B 3794   1.910   2.748   7.736 -2.4300 -0.5337 -0.8084
   52CHL1   C16 3795   1.910   2.572   7.887 -0.1848  0.1036 -0.7391
   52CHL1  H16A 3796   2.004   2.543   7.938  0.7077 -0.6589 -2.7192
   52CHL1  H16B 3797   1.856   2.645   7.952  0.5516 -0.8900  1.0665
   52CHL1   C17 3798   1.814   2.452   7.865  0.2028  0.3672 -0.3318
   52CHL1   H17 3799   1.710   2.489   7.876  0.3312  0.6524 -0.0410
   52CHL1   C13 3800   1.818   2.419   7.714  0.3635  0.3174  0.8306
   52CHL1   C18 3801   1.947   2.337   7.687 -1.1651 -0.0650 -0.3076
   52CHL1  H18A 3802   1.929   2.235   7.728 -2.9180  1.3437  2.8264
   52CHL1  H18B 3803   1.978   2.322   7.582  1.5666 -0.0598  0.4349
   52CHL1  H18C 3804   2.027   2.374   7.754 -0.6628  0.0809 -0.9845
   52CHL1   C12 3805   1.696   2.362   7.646  0.4056 -0.1327 -0.0655
   52CHL1  H12A 3806   1.676   2.253   7.655  2.2209 -0.6930 -1.9998
   52CHL1  H12B 3807   1.607   2.423   7.671  1.0079  0.1434  1.5329
   52CHL1   C11 3808   1.711   2.373   7.489 -0.4234 -0.4149 -0.1601
   52CHL1  H11A 3809   1.781   2.292   7.457  0.5255 -0.9039  2.7884
   52CHL1  H11B 3810   1.613   2.339   7.450 -0.4858 -3.5549  2.2951
   52CHL1    C9 3811   1.761   2.509   7.434  0.5789  0.2562 -0.4998
   52CHL1    H9 3812   1.681   2.583   7.453  2.5028  2.3141  0.0826
   52CHL1   C10 3813   1.776   2.514   7.280 -0.7226 -0.3663  0.8174
   52CHL1   C19 3814   1.889   2.425   7.235 -0.5767  0.8149 -0.6425
   52CHL1  H19A 3815   1.880   2.319   7.263 -1.5887  1.0736  0.0321
   52CHL1  H19B 3816   1.898   2.419   7.124  1.3438 -1.8850 -0.4284
   52CHL1  H19C 3817   1.988   2.465   7.266 -0.3660 -0.1561 -0.0388
   52CHL1    C1 3818   1.636   2.480   7.220  0.2838 -0.1996  0.5965
   52CHL1   H1A 3819   1.611   2.375   7.247  0.3463 -0.0946  1.0739
   52CHL1   H1B 3820   1.558   2.545   7.265  0.7837  1.0781 -0.3393
   52CHL1    C2 3821   1.630   2.504   7.067  0.3071 -0.5312  0.0769
   52CHL1   H2A 3822   1.522   2.503   7.040  0.7385 -1.6677 -1.7438
   52CHL1   H2B 3823   1.677   2.417   7.019 -1.2606 -1.5223  0.2610
   52CHL1   C20 3824   1.834   2.340   7.967 -0.3793  0.3695  0.8343
   52CHL1   H20 3825   1.937   2.300   7.956 -1.8838 -4.2540  1.8214
   52CHL1   C21 3826   1.738   2.225   7.932  0.0403 -0.1288  0.1086
   52CHL1  H21A 3827   1.763   2.178   7.834 -0.9038 -1.4731  0.4884
   52CHL1  H21B 3828   1.632   2.255   7.932 -0.0631 -0.4845  0.2291
   52CHL1  H21C 3829   1.750   2.135   7.996  3.9783 -1.8252 -2.5510
   52CHL1   C22 3830   1.829   2.382   8.115 -0.0809 -0.0773  1.4083
   52CHL1  H22A 3831   1.889   2.475   8.122  0.1370 -0.2282  1.5805
   52CHL1  H22B 3832   1.728   2.399   8.157 -0.7878  0.8842 -0.5506
   52CHL1   C23 3833   1.899   2.276   8.198 -0.4792 -0.2368  0.7376
   52CHL1  H23A 3834   1.844   2.179   8.204  1.3705 -1.3465  0.3396
   52CHL1  H23B 3835   1.999   2.263   8.152  0.2390 -0.2538  2.2250
   52CHL1   C24 3836   1.917   2.326   8.342 -0.1915 -0.0618 -0.5554
   52CHL1  H24A 3837   1.997   2.401   8.328 -1.5528  1.2258 -1.8116
   52CHL1  H24B 3838   1.816   2.370   8.358  0.1723  0.7697 -0.5171
   52CHL1   C25 3839   1.937   2.218   8.454  0.4429 -0.0312  0.3676
   52CHL1   H25 3840   1.839   2.166   8.453  0.2787  0.2623 -0.9771
   52CHL1   C26 3841   2.042   2.118   8.432 -0.7590 -0.4980  0.3768
   52CHL1  H26A 3842   2.064   2.066   8.527  0.4741  3.3138  2.4002
   52CHL1  H26B 3843   2.020   2.041   8.356 -0.7583 -1.7616  1.6115
   52CHL1  H26C 3844   2.128   2.177   8.393  1.8460 -3.3137  1.5434
   52CHL1   C27 3845   1.944   2.284   8.591  0.4553  0.0270 -0.1807
   52CHL1  H27A 3846   1.856   2.351   8.606  1.4134  1.3110 -0.1367
   52CHL1  H27B 3847   1.936   2.193   8.654 -1.6913  0.2701 -0.0164
   52CHL1  H27C 3848   2.036   2.339   8.619  0.6715  0.0785 -0.9896
   53CHL1    C3 3849   5.529   5.451   7.269  0.2968  0.4063 -0.1277
   53CHL1    H3 3850   5.487   5.354   7.303 -0.2249  0.6498 -0.0517
   53CHL1    O3 3851   5.511   5.465   7.123  0.0725 -0.2441  0.0183
   53CHL1   H3' 3852   5.572   5.529   7.085 -0.1460 -0.3621 -0.5354
   53CHL1    C4 3853   5.458   5.569   7.342 -0.4293  0.5797 -0.6765
   53CHL1   H4A 3854   5.487   5.668   7.302  1.7825  0.0953 -0.4054
   53CHL1   H4B 3855   5.352   5.556   7.312 -0.7279  1.8405 -0.2292
   53CHL1    C5 3856   5.468   5.563   7.490 -0.3640  0.0023 -0.4778
   53CHL1    C6 3857   5.366   5.560   7.577 -0.6902 -0.0359  0.4925
   53CHL1    H6 3858   5.266   5.570   7.533 -0.3785  2.1979  0.1571
   53CHL1    C7 3859   5.379   5.572   7.730 -0.0849 -0.0747  0.4735
   53CHL1   H7A 3860   5.321   5.658   7.769 -3.0982 -0.9806 -1.5731
   53CHL1   H7B 3861   5.358   5.478   7.786  1.0581 -0.5188  0.1714
   53CHL1    C8 3862   5.522   5.605   7.780 -0.8843  0.4355  0.0315
   53CHL1    H8 3863   5.538   5.714   7.764  0.1514  0.4414  1.0163
   53CHL1   C14 3864   5.539   5.565   7.923  0.5189 -0.0678 -0.4034
   53CHL1   H14 3865   5.535   5.454   7.917 -1.2264  0.0011 -1.2396
   53CHL1   C15 3866   5.431   5.609   8.022 -0.5522  0.1937  0.5004
   53CHL1  H15A 3867   5.389   5.705   7.983 -0.6564 -0.1765 -0.3160
   53CHL1  H15B 3868   5.346   5.538   8.016 -1.4189  1.2542 -0.0893
   53CHL1   C16 3869   5.505   5.623   8.158  0.1329 -0.0265  0.5741
   53CHL1  H16A 3870   5.482   5.726   8.195  1.8078 -0.7435  3.9837
   53CHL1  H16B 3871   5.462   5.554   8.234 -1.5316  0.1879 -0.1218
   53CHL1   C17 3872   5.655   5.587   8.127 -0.1939 -0.2307 -0.5045
   53CHL1   H17 3873   5.654   5.478   8.147 -1.5580  0.2620  2.7808
   53CHL1   C13 3874   5.680   5.610   7.980  0.1731 -0.1486 -0.0767
   53CHL1   C18 3875   5.694   5.764   7.965 -0.6312 -0.4769 -0.0630
   53CHL1  H18A 3876   5.699   5.795   7.858  0.7473 -1.5458 -0.3282
   53CHL1  H18B 3877   5.613   5.822   8.016  0.3677  0.5224  0.4392
   53CHL1  H18C 3878   5.788   5.794   8.017 -1.4786 -0.3635  1.4803
   53CHL1   C12 3879   5.787   5.528   7.906  1.2442  0.3141 -0.3619
   53CHL1  H12A 3880   5.886   5.554   7.949  1.3262 -1.0223  0.3270
   53CHL1  H12B 3881   5.767   5.420   7.925  0.0467  0.0018 -2.8843
   53CHL1   C11 3882   5.772   5.553   7.755 -0.5075  0.8112  0.1126
   53CHL1  H11A 3883   5.800   5.660   7.741 -0.9691  0.8613 -0.4671
   53CHL1  H11B 3884   5.849   5.492   7.702 -1.7108  0.5548 -1.4302
   53CHL1    C9 3885   5.626   5.532   7.696 -0.6955 -0.6024  0.6927
   53CHL1    H9 3886   5.606   5.424   7.714  0.1328 -0.7752  0.6133
   53CHL1   C10 3887   5.615   5.561   7.544 -0.3592 -0.2642  0.7232
   53CHL1   C19 3888   5.682   5.696   7.522 -0.2997  0.2362  0.5282
   53CHL1  H19A 3889   5.670   5.774   7.600  1.5062  0.2720  0.8285
   53CHL1  H19B 3890   5.792   5.681   7.516 -0.5770 -1.4269 -1.2414
   53CHL1  H19C 3891   5.650   5.737   7.424  1.3981 -0.4066 -0.3485
   53CHL1    C1 3892   5.688   5.452   7.460 -0.5154  0.5326  0.1662
   53CHL1   H1A 3893   5.797   5.451   7.482 -0.1793 -1.2676 -1.2915
   53CHL1   H1B 3894   5.653   5.350   7.486 -2.6605  0.6371 -1.9615
   53CHL1    C2 3895   5.681   5.451   7.306  0.2008 -0.1024  0.1338
   53CHL1   H2A 3896   5.726   5.360   7.260 -0.0438  0.1936 -0.7247
   53CHL1   H2B 3897   5.730   5.535   7.252 -0.1248 -0.1844 -0.2937
   53CHL1   C20 3898   5.754   5.654   8.233  0.8934 -0.0962  0.6670
   53CHL1   H20 3899   5.760   5.765   8.220  1.8660 -0.1338  0.7326
   53CHL1   C21 3900   5.897   5.601   8.216 -0.3874  0.6101 -0.3317
   53CHL1  H21A 3901   5.927   5.653   8.123 -2.8676 -0.7310 -2.0123
   53CHL1  H21B 3902   5.888   5.491   8.202  2.4490  0.3596 -0.7274
   53CHL1  H21C 3903   5.960   5.629   8.303 -1.7730 -0.6439  1.1419
   53CHL1   C22 3904   5.702   5.634   8.375 -0.1309 -0.6909  0.0243
   53CHL1  H22A 3905   5.595   5.665   8.385  0.4431  1.3126  0.5084
   53CHL1  H22B 3906   5.697   5.526   8.400  0.4127 -0.4737  1.1827
   53CHL1   C23 3907   5.761   5.717   8.480 -0.1862 -0.2643 -0.7433
   53CHL1  H23A 3908   5.858   5.752   8.440  0.2322 -0.1350  0.3500
   53CHL1  H23B 3909   5.713   5.817   8.473 -3.6894 -1.7755 -0.6748
   53CHL1   C24 3910   5.754   5.668   8.631  0.1943 -0.3900 -0.2662
   53CHL1  H24A 3911   5.821   5.739   8.683 -1.3357 -0.8717  2.5671
   53CHL1  H24B 3912   5.652   5.664   8.675  0.2701 -1.9319 -0.1783
   53CHL1   C25 3913   5.822   5.535   8.662  0.3980  0.1857 -0.1872
   53CHL1   H25 3914   5.754   5.450   8.640  0.0719  0.5833 -0.7191
   53CHL1   C26 3915   5.945   5.512   8.572 -0.5695  0.5954 -0.1492
   53CHL1  H26A 3916   5.920   5.488   8.467 -0.8004  1.8916 -0.4127
   53CHL1  H26B 3917   6.002   5.607   8.566  0.2781  0.0492 -0.7983
   53CHL1  H26C 3918   6.005   5.429   8.614  0.2734  0.6349 -1.2462
   53CHL1   C27 3919   5.864   5.527   8.813  0.3911 -0.1212 -0.0248
   53CHL1  H27A 3920   5.935   5.609   8.833 -1.2208  1.4668 -0.5741
   53CHL1  H27B 3921   5.778   5.538   8.884  0.9333 -0.5412  0.7132
   53CHL1  H27C 3922   5.913   5.428   8.827 -1.9132 -1.6623 -1.9087
   54CHL1    C3 3923   5.526   0.244   7.063  0.1954 -0.8333  0.6957
   54CHL1    H3 3924   5.621   0.285   7.104  0.8019 -1.1536 -0.3225
   54CHL1    O3 3925   5.533   0.231   6.919  0.3946  0.0391 -0.1827
   54CHL1   H3' 3926   5.619   0.201   6.891  0.6671 -0.0367  0.6841
   54CHL1    C4 3927   5.509   0.111   7.131 -0.4103  0.3416 -0.0014
   54CHL1   H4A 3928   5.419   0.058   7.094 -0.7003  0.0987  1.0299
   54CHL1   H4B 3929   5.598   0.049   7.106 -1.7877 -1.0748 -1.6105
   54CHL1    C5 3930   5.496   0.125   7.283 -0.6098  0.6411  0.4777
   54CHL1    C6 3931   5.584   0.062   7.369 -0.3739 -0.3274 -0.0138
   54CHL1    H6 3932   5.662  -0.007   7.334 -0.5941 -1.2348  1.2057
   54CHL1    C7 3933   5.571   0.089   7.520  0.2738  0.3174  0.3489
   54CHL1   H7A 3934   5.594  -0.001   7.580  1.0399  2.4768  3.5195
   54CHL1   H7B 3935   5.654   0.159   7.542 -0.6491  1.8175 -0.7156
   54CHL1    C8 3936   5.435   0.159   7.567  0.5122  1.2856 -0.6967
   54CHL1    H8 3937   5.353   0.086   7.554  2.0970 -0.8586  0.7254
   54CHL1   C14 3938   5.442   0.210   7.710 -0.2513 -0.4257 -0.4559
   54CHL1   H14 3939   5.506   0.300   7.703 -2.5975  1.3210 -0.7430
   54CHL1   C15 3940   5.497   0.129   7.822 -0.7178  0.1119 -0.2218
   54CHL1  H15A 3941   5.480   0.019   7.818 -1.6524  0.1770  1.1165
   54CHL1  H15B 3942   5.608   0.135   7.827 -0.6927 -1.0771  2.3670
   54CHL1   C16 3943   5.445   0.188   7.956  0.0813 -0.3600  0.0433
   54CHL1  H16A 3944   5.370   0.114   7.990 -1.5575  0.9503 -0.5873
   54CHL1  H16B 3945   5.521   0.205   8.035  0.3648 -0.6609 -0.1609
   54CHL1   C17 3946   5.361   0.310   7.905 -0.2330 -0.3610  0.4061
   54CHL1   H17 3947   5.439   0.389   7.903 -0.6045  0.0007 -1.7504
   54CHL1   C13 3948   5.315   0.283   7.764 -0.6200 -0.8388 -0.1037
   54CHL1   C18 3949   5.196   0.186   7.764 -0.6355  0.1287 -0.1719
   54CHL1  H18A 3950   5.115   0.219   7.833 -0.8822 -0.8018 -0.0097
   54CHL1  H18B 3951   5.151   0.168   7.664  0.6132  0.2433 -0.7673
   54CHL1  H18C 3952   5.228   0.089   7.808  0.7349 -0.4703 -2.3336
   54CHL1   C12 3953   5.290   0.407   7.675  0.5290 -0.3242  0.1549
   54CHL1  H12A 3954   5.207   0.462   7.723  0.0164 -1.5304  0.6801
   54CHL1  H12B 3955   5.379   0.473   7.685 -0.3889  0.4984  4.5475
   54CHL1   C11 3956   5.270   0.358   7.534  0.0922 -0.3140 -0.6328
   54CHL1  H11A 3957   5.174   0.302   7.523 -0.3079  0.1357  0.3698
   54CHL1  H11B 3958   5.257   0.442   7.463  0.0055 -1.1963 -1.6909
   54CHL1    C9 3959   5.392   0.273   7.473  0.1875  0.1409  0.8541
   54CHL1    H9 3960   5.477   0.345   7.474  0.5866 -0.3316  1.0071
   54CHL1   C10 3961   5.383   0.230   7.327  0.0008 -0.7448 -0.5111
   54CHL1   C19 3962   5.237   0.178   7.290  0.1659 -0.1902  0.0882
   54CHL1  H19A 3963   5.233   0.145   7.184 -0.7637 -1.4325  0.4894
   54CHL1  H19B 3964   5.222   0.087   7.352  3.2654 -0.3884  0.6900
   54CHL1  H19C 3965   5.153   0.246   7.317 -0.1836 -0.7270  0.3812
   54CHL1    C1 3966   5.402   0.358   7.248  0.3350  0.0386  0.0070
   54CHL1   H1A 3967   5.327   0.437   7.269  0.1408  0.1407 -1.0135
   54CHL1   H1B 3968   5.492   0.418   7.275  2.6799 -3.0976 -0.3599
   54CHL1    C2 3969   5.412   0.338   7.098 -0.0644  0.0672  0.1467
   54CHL1   H2A 3970   5.418   0.437   7.047 -1.9677  0.5677  0.7979
   54CHL1   H2B 3971   5.321   0.288   7.058 -0.4535  0.1321  0.9301
   54CHL1   C20 3972   5.258   0.356   8.006 -0.0686  0.5812 -0.5176
   54CHL1   H20 3973   5.179   0.413   7.953  0.7363 -0.3456 -2.8567
   54CHL1   C21 3974   5.330   0.456   8.092 -0.5005 -0.5295 -0.1613
   54CHL1  H21A 3975   5.402   0.526   8.044 -0.4064  0.4335  1.3076
   54CHL1  H21B 3976   5.396   0.399   8.161  1.4641  0.4236 -1.1579
   54CHL1  H21C 3977   5.263   0.517   8.157  1.3775 -0.1125  1.5007
   54CHL1   C22 3978   5.184   0.246   8.096  0.3270  0.4717  0.4008
   54CHL1  H22A 3979   5.138   0.171   8.028 -0.5988  1.7955 -0.4852
   54CHL1  H22B 3980   5.258   0.187   8.153 -0.5259 -1.7976 -0.6867
   54CHL1   C23 3981   5.077   0.302   8.187 -0.7532  0.2940 -0.5803
   54CHL1  H23A 3982   5.127   0.374   8.255 -1.9286  0.1252  0.5286
   54CHL1  H23B 3983   4.999   0.351   8.125 -0.3543  1.8630  0.1057
   54CHL1   C24 3984   5.008   0.206   8.280 -0.4832  0.2323 -0.1680
   54CHL1  H24A 3985   4.948   0.137   8.216 -0.4685 -2.7567  2.7479
   54CHL1  H24B 3986   5.076   0.139   8.336 -1.9136  0.0292  1.4107
   54CHL1   C25 3987   4.932   0.262   8.402 -0.0923 -0.5278 -1.4262
   54CHL1   H25 3988   4.862   0.343   8.373 -0.4806 -0.7035 -0.9766
   54CHL1   C26 3989   4.850   0.138   8.448 -0.0350  0.4566 -0.1878
   54CHL1  H26A 3990   4.913   0.048   8.455 -2.6202 -1.4098  0.6665
   54CHL1  H26B 3991   4.794   0.157   8.543  0.0571 -0.6068  0.0875
   54CHL1  H26C 3992   4.783   0.109   8.365  0.0556 -0.1392 -0.0548
   54CHL1   C27 3993   5.016   0.327   8.509  0.2544 -0.3611  0.5911
   54CHL1  H27A 3994   5.102   0.261   8.533  1.1476  0.3666 -0.4954
   54CHL1  H27B 3995   5.045   0.431   8.483 -1.6845 -0.1804 -1.0815
   54CHL1  H27C 3996   4.950   0.327   8.598 -0.6030 -0.5874 -0.0325
   55CHL1    C3 3997   5.327   1.398   7.189  0.1394  0.4230 -0.4728
   55CHL1    H3 3998   5.415   1.451   7.232 -1.2289  1.8939  0.6139
   55CHL1    O3 3999   5.344   1.388   7.047  0.1873 -0.4019  0.0483
   55CHL1   H3' 4000   5.275   1.331   7.014  0.5331 -1.7038  1.4360
   55CHL1    C4 4001   5.329   1.258   7.251  0.0900 -0.8661  0.1977
   55CHL1   H4A 4002   5.243   1.197   7.215 -0.0217  0.2513 -1.5576
   55CHL1   H4B 4003   5.427   1.217   7.221  1.2908  0.6211  1.8867
   55CHL1    C5 4004   5.326   1.269   7.402 -0.0053  0.4273  0.0165
   55CHL1    C6 4005   5.420   1.217   7.480 -0.4118  0.4023  0.1524
   55CHL1    H6 4006   5.502   1.163   7.431 -1.1449 -0.9897  0.4076
   55CHL1    C7 4007   5.416   1.229   7.631  0.2916 -0.6172  0.1024
   55CHL1   H7A 4008   5.446   1.135   7.682  1.0751 -0.3317  0.1815
   55CHL1   H7B 4009   5.489   1.310   7.650 -1.4566  0.9408  0.4484
   55CHL1    C8 4010   5.282   1.287   7.691  0.7153  0.2192  0.1697
   55CHL1    H8 4011   5.218   1.197   7.704  0.2084  0.7743  1.6127
   55CHL1   C14 4012   5.308   1.349   7.825  0.0898  0.0262 -0.3182
   55CHL1   H14 4013   5.367   1.442   7.814  0.3148 -0.1238 -0.3939
   55CHL1   C15 4014   5.394   1.269   7.924  0.1942  0.8686  0.0981
   55CHL1  H15A 4015   5.355   1.168   7.950  1.4120 -0.0155 -1.3229
   55CHL1  H15B 4016   5.499   1.265   7.888 -0.4631  0.1994 -1.9368
   55CHL1   C16 4017   5.381   1.352   8.049  0.4787 -0.6624 -0.2482
   55CHL1  H16A 4018   5.385   1.300   8.148  1.6476 -0.1928 -0.0258
   55CHL1  H16B 4019   5.466   1.423   8.056 -0.3602  0.2366  1.6661
   55CHL1   C17 4020   5.249   1.440   8.031  0.2390  0.2180  0.1836
   55CHL1   H17 4021   5.292   1.539   8.007  0.4341 -0.1338 -1.0057
   55CHL1   C13 4022   5.181   1.399   7.904  0.6608 -0.6831 -0.7547
   55CHL1   C18 4023   5.088   1.279   7.935  0.0784  0.5885  0.1483
   55CHL1  H18A 4024   5.148   1.196   7.980  1.2625  2.8497  3.1660
   55CHL1  H18B 4025   5.010   1.301   8.012 -0.4305 -0.3046 -0.1082
   55CHL1  H18C 4026   5.037   1.238   7.846  1.8724 -3.1795  0.6623
   55CHL1   C12 4027   5.109   1.503   7.819 -0.0149  0.2609  0.3742
   55CHL1  H12A 4028   5.004   1.527   7.847 -0.4451 -0.5986 -0.4680
   55CHL1  H12B 4029   5.165   1.600   7.818 -1.4266  1.1064  0.3928
   55CHL1   C11 4030   5.098   1.454   7.673 -0.3984 -0.0074  0.7178
   55CHL1  H11A 4031   5.021   1.374   7.682  0.4509 -0.8398  0.7826
   55CHL1  H11B 4032   5.053   1.541   7.622 -0.3271  0.3149  1.1982
   55CHL1    C9 4033   5.225   1.398   7.608  0.0110  0.0116 -0.1179
   55CHL1    H9 4034   5.302   1.478   7.605  0.9524 -0.7784  1.8448
   55CHL1   C10 4035   5.202   1.347   7.457 -0.7753 -0.7233 -0.0109
   55CHL1   C19 4036   5.063   1.271   7.453  0.1760  0.5073  0.2570
   55CHL1  H19A 4037   5.036   1.230   7.354 -1.0036 -2.3073  1.6355
   55CHL1  H19B 4038   5.083   1.183   7.518 -0.0713 -0.1400 -0.5241
   55CHL1  H19C 4039   4.979   1.333   7.492 -0.9167 -0.4271 -0.5546
   55CHL1    C1 4040   5.196   1.482   7.376  0.3900  0.4258  0.4701
   55CHL1   H1A 4041   5.103   1.537   7.403 -0.2938 -0.1480 -0.6430
   55CHL1   H1B 4042   5.275   1.552   7.412  0.3171 -0.0590  1.6153
   55CHL1    C2 4043   5.201   1.472   7.224  0.7048 -0.2272  0.2543
   55CHL1   H2A 4044   5.183   1.572   7.178  0.9503 -0.7919 -1.1288
   55CHL1   H2B 4045   5.114   1.409   7.195  1.3534 -1.3803  0.7293
   55CHL1   C20 4046   5.170   1.461   8.164 -0.3271  0.1328  0.1225
   55CHL1   H20 4047   5.127   1.366   8.200 -0.6474  0.1195 -0.2856
   55CHL1   C21 4048   5.064   1.567   8.139  0.3770 -0.5132 -0.6103
   55CHL1  H21A 4049   5.013   1.602   8.231 -0.0328  3.3233 -2.1257
   55CHL1  H21B 4050   4.982   1.548   8.066  0.0238  1.9259 -0.9377
   55CHL1  H21C 4051   5.118   1.657   8.101 -0.5657  0.5858  0.5960
   55CHL1   C22 4052   5.248   1.516   8.285 -0.0133  0.2058 -0.0932
   55CHL1  H22A 4053   5.343   1.461   8.298  0.1400  0.3259 -0.7019
   55CHL1  H22B 4054   5.266   1.624   8.272 -1.8314  0.4900 -0.5316
   55CHL1   C23 4055   5.180   1.522   8.429 -0.1802 -0.8966 -0.3489
   55CHL1  H23A 4056   5.264   1.553   8.495 -0.6673  1.1860 -0.6246
   55CHL1  H23B 4057   5.106   1.605   8.432  0.2204 -0.5585  1.2225
   55CHL1   C24 4058   5.110   1.394   8.477  0.4826 -0.2853  0.1483
   55CHL1  H24A 4059   5.031   1.383   8.400  0.1144  0.3407  0.4250
   55CHL1  H24B 4060   5.167   1.300   8.460  0.0290 -0.5369 -0.0122
   55CHL1   C25 4061   5.046   1.392   8.617 -0.8680  0.4762  1.3077
   55CHL1   H25 4062   5.122   1.427   8.691 -2.2919  1.8957  2.1811
   55CHL1   C26 4063   4.939   1.493   8.639  0.5479 -0.0029  0.1405
   55CHL1  H26A 4064   4.852   1.465   8.575  0.6471  1.9514 -0.9386
   55CHL1  H26B 4065   4.900   1.494   8.743  1.4334  0.3012  0.4768
   55CHL1  H26C 4066   4.972   1.594   8.608 -0.9311  0.2046 -0.8519
   55CHL1   C27 4067   5.005   1.248   8.653 -0.6770  0.6641  0.2928
   55CHL1  H27A 4068   5.099   1.187   8.656 -2.1641 -1.8030 -0.3185
   55CHL1  H27B 4069   4.945   1.229   8.745  1.5297 -3.6094  1.1441
   55CHL1  H27C 4070   4.932   1.214   8.577 -1.7795  0.2151  1.5128
   56CHL1    C3 4071   5.692   6.213   7.182 -0.3362 -0.8701 -0.4053
   56CHL1    H3 4072   5.584   6.211   7.207 -0.1986 -3.1666  0.2134
   56CHL1    O3 4073   5.693   6.213   7.040  0.3687 -0.0633  0.2616
   56CHL1   H3' 4074   5.728   6.127   7.015 -2.2364 -1.3242  0.6218
   56CHL1    C4 4075   5.756   6.343   7.236 -0.3646 -0.8790 -0.2819
   56CHL1   H4A 4076   5.859   6.345   7.196  0.3760  0.8786  1.5625
   56CHL1   H4B 4077   5.711   6.438   7.202  1.4690  0.3376  0.5621
   56CHL1    C5 4078   5.754   6.339   7.387 -0.6566  0.3548  0.2138
   56CHL1    C6 4079   5.690   6.434   7.463 -0.3155 -0.0908  0.5789
   56CHL1    H6 4080   5.651   6.526   7.415 -1.8628 -0.5744  0.8485
   56CHL1    C7 4081   5.685   6.441   7.610 -0.5922 -0.1834 -0.1511
   56CHL1   H7A 4082   5.709   6.543   7.646  1.6883 -1.0950  1.1451
   56CHL1   H7B 4083   5.582   6.412   7.640 -0.0900 -1.1105  0.7352
   56CHL1    C8 4084   5.791   6.344   7.669  0.0117 -0.6743  0.8011
   56CHL1    H8 4085   5.888   6.398   7.670  0.0171 -0.6304 -0.4907
   56CHL1   C14 4086   5.747   6.318   7.811 -0.2837 -0.2215 -0.1194
   56CHL1   H14 4087   5.649   6.269   7.793  0.1498 -0.1692 -3.3007
   56CHL1   C15 4088   5.720   6.445   7.898  0.4935 -0.4438  0.4295
   56CHL1  H15A 4089   5.812   6.506   7.902  0.0145  0.2545  3.0600
   56CHL1  H15B 4090   5.620   6.492   7.884  0.8701  1.3263  2.9678
   56CHL1   C16 4091   5.716   6.387   8.041 -0.3879  0.1061 -0.3742
   56CHL1  H16A 4092   5.783   6.445   8.108 -1.2233  0.7871 -0.1088
   56CHL1  H16B 4093   5.618   6.399   8.091 -0.1811 -0.2680  0.1410
   56CHL1   C17 4094   5.761   6.242   8.041 -0.0223  0.1417 -0.0064
   56CHL1   H17 4095   5.674   6.173   8.036  0.2198 -0.0780 -3.3722
   56CHL1   C13 4096   5.831   6.220   7.900  0.4715 -0.9056  0.5288
   56CHL1   C18 4097   5.981   6.273   7.910 -0.2118  0.9423  0.0051
   56CHL1  H18A 4098   5.976   6.370   7.964  0.5222 -0.3193  2.5007
   56CHL1  H18B 4099   6.045   6.202   7.966 -1.4393 -2.2581 -2.3531
   56CHL1  H18C 4100   6.019   6.279   7.806  0.2742 -0.5018  0.0700
   56CHL1   C12 4101   5.812   6.087   7.834 -0.9753  0.6095 -0.3708
   56CHL1  H12A 4102   5.860   6.010   7.898 -1.4295  2.0779  1.8435
   56CHL1  H12B 4103   5.707   6.064   7.806 -0.8420  1.5638 -1.7559
   56CHL1   C11 4104   5.868   6.100   7.684 -0.4964  0.4936 -0.0897
   56CHL1  H11A 4105   5.977   6.125   7.688 -0.5653  0.7238  3.0526
   56CHL1  H11B 4106   5.846   6.003   7.635 -0.8102  1.5465 -2.1275
   56CHL1    C9 4107   5.795   6.206   7.601  0.8252  0.5225  1.4538
   56CHL1    H9 4108   5.691   6.170   7.616  0.2007  1.6536  0.0493
   56CHL1   C10 4109   5.816   6.214   7.450 -0.1313 -0.5701  0.4562
   56CHL1   C19 4110   5.969   6.219   7.426 -0.7993 -0.1219 -0.1222
   56CHL1  H19A 4111   6.030   6.136   7.468 -0.6892  0.5818  1.1648
   56CHL1  H19B 4112   6.000   6.238   7.322  3.7816 -0.0817  1.0572
   56CHL1  H19C 4113   6.006   6.310   7.477 -1.7680  0.3017 -0.1469
   56CHL1    C1 4114   5.758   6.091   7.381  0.4137  0.0357  0.1400
   56CHL1   H1A 4115   5.814   6.000   7.414  1.1429  1.3534  2.9066
   56CHL1   H1B 4116   5.654   6.080   7.418  0.2553 -1.5092 -0.6612
   56CHL1    C2 4117   5.762   6.087   7.226  1.0892 -0.3283 -0.0986
   56CHL1   H2A 4118   5.708   5.992   7.205  1.1105 -0.4130  0.2177
   56CHL1   H2B 4119   5.867   6.088   7.190  0.5821  1.8557 -1.6790
   56CHL1   C20 4120   5.841   6.189   8.164  0.1947 -0.4792  0.2141
   56CHL1   H20 4121   5.940   6.239   8.162  0.0784 -0.2079 -2.2286
   56CHL1   C21 4122   5.854   6.036   8.157 -0.1404 -0.2513  0.7890
   56CHL1  H21A 4123   5.949   6.010   8.106 -0.4505 -2.3079  1.1743
   56CHL1  H21B 4124   5.762   5.991   8.114  1.0569 -1.3766 -0.6848
   56CHL1  H21C 4125   5.857   5.999   8.261 -0.5635  1.2457  1.3617
   56CHL1   C22 4126   5.787   6.233   8.302 -0.2490 -0.3608  0.4560
   56CHL1  H22A 4127   5.767   6.342   8.305  0.6914 -0.1903  0.8181
   56CHL1  H22B 4128   5.692   6.180   8.324  0.3054 -0.8358  1.7608
   56CHL1   C23 4129   5.890   6.218   8.416  0.1860  0.1838  0.1470
   56CHL1  H23A 4130   5.938   6.119   8.401  1.2876  0.7749 -0.2524
   56CHL1  H23B 4131   5.964   6.300   8.406  1.2793 -0.8710 -0.6806
   56CHL1   C24 4132   5.824   6.248   8.549  0.3634 -0.4625 -0.7062
   56CHL1  H24A 4133   5.811   6.358   8.555  1.2296 -0.2904 -1.6672
   56CHL1  H24B 4134   5.721   6.209   8.558  0.0354  0.6954  1.2210
   56CHL1   C25 4135   5.916   6.209   8.666  1.5184 -0.6106 -0.5132
   56CHL1   H25 4136   5.917   6.098   8.670 -0.9349 -0.6840 -0.2214
   56CHL1   C26 4137   6.060   6.267   8.664 -0.1030  0.0102  0.3320
   56CHL1  H26A 4138   6.062   6.375   8.641 -0.8889 -0.3470 -1.5615
   56CHL1  H26B 4139   6.123   6.216   8.588 -2.0052 -2.7522  0.4404
   56CHL1  H26C 4140   6.118   6.248   8.757  1.8756  0.9780 -0.6534
   56CHL1   C27 4141   5.844   6.255   8.798  0.5243 -0.0866 -0.0147
   56CHL1  H27A 4142   5.738   6.223   8.796  0.0604  1.2485  1.0564
   56CHL1  H27B 4143   5.891   6.207   8.886  2.4852 -1.7696 -1.8729
   56CHL1  H27C 4144   5.847   6.364   8.818 -0.1542 -0.2537  1.0739
   57SAPC     N 4145   5.235   5.064  10.914 -0.7017  0.7598 -0.5575
   57SAPC   C12 4146   5.207   4.962  10.798 -0.2154 -0.4816  0.4265
   57SAPC  H12A 4147   5.158   4.881  10.851 -0.6664  0.7282  1.9215
   57SAPC  H12B 4148   5.295   4.942  10.739  1.0379 -0.5636  2.2635
   57SAPC   C13 4149   5.119   5.059  11.001 -0.2847  0.4144 -0.0279
   57SAPC  H13A 4150   5.035   5.112  10.958 -1.0002 -1.6292 -1.2999
   57SAPC  H13B 4151   5.090   4.957  11.020  0.0283  0.4688  0.7733
   57SAPC  H13C 4152   5.134   5.108  11.096  0.2403  2.8638 -1.2816
   57SAPC   C14 4153   5.366   5.027  10.989  0.1124  1.1139 -0.3944
   57SAPC  H14A 4154   5.464   5.043  10.946  1.4838 -0.1019  2.0745
   57SAPC  H14B 4155   5.375   5.075  11.085  1.2560  1.6918 -0.7691
   57SAPC  H14C 4156   5.362   4.923  11.019 -2.2742  0.4490 -2.6317
   57SAPC   C15 4157   5.257   5.205  10.866 -0.5658  0.4085  0.9589
   57SAPC  H15A 4158   5.268   5.276  10.947  3.2265 -0.3035  1.2768
   57SAPC  H15B 4159   5.346   5.210  10.805 -1.0616 -1.6911  0.0056
   57SAPC  H15C 4160   5.177   5.244  10.804  0.9682  0.4742 -1.0862
   57SAPC   C11 4161   5.088   5.003  10.706  0.0123 -0.3076  0.4845
   57SAPC  H11A 4162   5.122   4.986  10.601 -1.5606 -0.0429 -0.0916
   57SAPC  H11B 4163   5.073   5.113  10.708  0.7726 -0.1819  3.1331
   57SAPC     P 4164   4.913   4.801  10.684  0.2587  0.2679 -0.4299
   57SAPC   O13 4165   5.015   4.724  10.615  0.2498  0.2124  0.0510
   57SAPC   O14 4166   4.838   4.729  10.792 -0.0640 -0.0194  0.5715
   57SAPC   O12 4167   4.967   4.934  10.743 -0.0347 -0.4310 -0.1045
   57SAPC   O11 4168   4.814   4.844  10.569 -1.0689  0.0990 -0.1664
   57SAPC    C1 4169   4.801   4.977  10.508  0.0166 -0.3175 -1.3090
   57SAPC    HA 4170   4.700   5.020  10.522  1.4476  4.5079 -3.5737
   57SAPC    HB 4171   4.870   5.044  10.562  0.9721 -2.6896  0.5821
   57SAPC    C2 4172   4.824   4.981  10.360  0.2613 -0.2645  0.4623
   57SAPC    HS 4173   4.768   5.066  10.315 -0.2474 -0.3579  0.9036
   57SAPC   O21 4174   4.767   4.865  10.301 -0.5015 -0.4185 -0.7987
   57SAPC   C21 4175   4.631   4.866  10.280  0.3804 -0.2652 -0.2813
   57SAPC   O22 4176   4.556   4.959  10.287  0.3590 -0.2382 -0.2691
   57SAPC   C22 4177   4.588   4.726  10.258  0.5548 -0.5118 -0.5457
   57SAPC   H2R 4178   4.674   4.656  10.263 -0.9564 -2.3890  0.4304
   57SAPC   H2S 4179   4.531   4.704  10.351 -0.2331 -2.1892 -1.3835
   57SAPC    C3 4180   4.973   4.993  10.330 -0.1793  0.4082  0.3371
   57SAPC    HX 4181   5.012   4.891  10.351  1.1792  1.3814  2.9656
   57SAPC    HY 4182   5.024   5.071  10.389 -0.3632  0.2046  0.7701
   57SAPC   O31 4183   4.987   5.011  10.188  0.4964  0.0031 -0.4247
   57SAPC   C31 4184   4.955   5.126  10.133 -0.1059  0.1813 -0.6604
   57SAPC   O32 4185   4.916   5.226  10.189  0.4204 -0.5673  0.4290
   57SAPC   C32 4186   4.967   5.115   9.981  0.0219 -0.2600 -0.7001
   57SAPC   H2X 4187   4.908   5.027   9.947 -2.5836  2.1703 -3.0385
   57SAPC   H2Y 4188   5.072   5.095   9.949  1.6599  3.4719  1.6689
   57SAPC   C23 4189   4.507   4.705  10.125  0.6924 -0.2738 -0.0485
   57SAPC   H3R 4190   4.439   4.792  10.106 -1.4280 -1.7500  0.4324
   57SAPC   H3S 4191   4.437   4.625  10.157 -0.6840  1.6789  2.1112
   57SAPC   C24 4192   4.600   4.673  10.005  0.1183  0.5361 -0.7320
   57SAPC   H4R 4193   4.537   4.615   9.934 -2.1607 -1.0061  2.3475
   57SAPC   H4S 4194   4.673   4.598  10.043  0.1617  0.3058 -1.2575
   57SAPC   C25 4195   4.676   4.789   9.956 -0.4662  0.2902 -0.0627
   57SAPC   H5R 4196   4.752   4.829  10.024  0.7344 -0.6625 -0.8091
   57SAPC   C26 4197   4.667   4.838   9.836 -0.4091  0.1383 -0.3750
   57SAPC   H6R 4198   4.728   4.928   9.818  0.3912  0.3550  2.7993
   57SAPC   C27 4199   4.585   4.790   9.720 -0.4764 -0.6226 -0.2344
   57SAPC   H7R 4200   4.487   4.746   9.750 -1.8044  0.3451 -2.8525
   57SAPC   H7S 4201   4.629   4.706   9.662 -3.0236 -0.5842 -2.4129
   57SAPC   C28 4202   4.544   4.904   9.626  0.2917  0.2430  0.5764
   57SAPC   H8R 4203   4.470   4.975   9.667  0.6005  1.0700 -0.2570
   57SAPC   C29 4204   4.585   4.925   9.503 -0.3582  0.0421 -0.2252
   57SAPC   H9R 4205   4.527   5.001   9.448 -0.3214 -0.3295 -0.7882
   57SAPC  C210 4206   4.688   4.842   9.434  0.3450  0.1705 -0.2865
   57SAPC  H10R 4207   4.639   4.760   9.379  0.2016 -0.4837  0.7860
   57SAPC  H10S 4208   4.756   4.792   9.506  0.6631  0.4524 -0.3914
   57SAPC  C211 4209   4.770   4.925   9.344  0.4602 -0.2699  0.5303
   57SAPC  H11R 4210   4.803   5.018   9.393 -0.6577  0.4746 -0.0932
   57SAPC  C212 4211   4.772   4.915   9.207 -0.4340 -0.3041 -0.4819
   57SAPC  H12R 4212   4.849   4.973   9.154  0.3056 -2.2714 -1.6473
   57SAPC  C213 4213   4.697   4.823   9.117 -0.2199  0.0906  0.9203
   57SAPC  H13R 4214   4.678   4.718   9.147 -1.8970 -0.5528 -2.0651
   57SAPC  H13S 4215   4.756   4.821   9.023 -0.2231  0.3949  0.9108
   57SAPC  C214 4216   4.555   4.865   9.083  0.3252  0.0557  0.4163
   57SAPC  H14R 4217   4.534   4.973   9.084  2.1386  0.5229 -2.1999
   57SAPC  C215 4218   4.464   4.784   9.021  0.7832  0.1553 -0.0192
   57SAPC  H15R 4219   4.365   4.828   9.001  1.3093  1.0020 -0.8238
   57SAPC  C216 4220   4.500   4.646   8.972  0.1673  0.5335  0.5935
   57SAPC  H16R 4221   4.478   4.568   9.048  1.2379 -0.8714 -0.4659
   57SAPC  H16S 4222   4.608   4.647   8.947  0.6945 -1.4503  2.4385
   57SAPC  C217 4223   4.424   4.610   8.841  0.5518  0.4758  0.2849
   57SAPC  H17R 4224   4.323   4.583   8.878  0.9004 -0.9938  0.2076
   57SAPC  H17S 4225   4.478   4.523   8.798 -1.6753  1.0535 -4.3456
   57SAPC  C218 4226   4.419   4.719   8.733  0.0799  0.2783  0.6881
   57SAPC  H18R 4227   4.521   4.737   8.694 -0.3920  0.6724 -0.4083
   57SAPC  H18S 4228   4.369   4.812   8.768 -1.9823 -0.5572  0.1634
   57SAPC  C219 4229   4.330   4.685   8.610 -0.3478  0.2844  0.2888
   57SAPC  H19R 4230   4.224   4.690   8.641 -0.8299  0.0634 -1.2120
   57SAPC  H19S 4231   4.363   4.581   8.586 -0.8805 -0.0095  0.8139
   57SAPC  C220 4232   4.349   4.789   8.498  0.6096 -0.7825 -0.4776
   57SAPC  H20R 4233   4.299   4.745   8.410 -1.0068 -0.8129  0.4168
   57SAPC  H20S 4234   4.453   4.815   8.469  0.6497  0.3703  0.5831
   57SAPC  H20T 4235   4.286   4.878   8.523  0.3145 -1.5699  1.8859
   57SAPC   C33 4236   4.901   5.230   9.903 -0.0343  0.3402  0.0331
   57SAPC   H3X 4237   4.961   5.321   9.926  0.8483 -0.6092  1.6419
   57SAPC   H3Y 4238   4.800   5.253   9.945  0.4155 -1.2258  2.1370
   57SAPC   C34 4239   4.902   5.224   9.750 -0.4573 -0.0649 -0.8117
   57SAPC   H4X 4240   4.889   5.326   9.708  0.3009  0.9061  1.1688
   57SAPC   H4Y 4241   4.814   5.163   9.719 -0.0387 -1.0622 -0.0683
   57SAPC   C35 4242   5.025   5.150   9.687 -0.0554  0.1658  0.2519
   57SAPC   H5X 4243   5.026   5.044   9.720 -1.4057  0.7389  2.3407
   57SAPC   H5Y 4244   5.113   5.199   9.734  1.4543 -0.6341 -1.6190
   57SAPC   C36 4245   5.041   5.150   9.537 -0.0794  0.1898  0.7023
   57SAPC   H6X 4246   5.066   5.256   9.515 -4.6934  1.4663  0.4224
   57SAPC   H6Y 4247   4.946   5.125   9.485  1.8689 -1.5395 -2.3355
   57SAPC   C37 4248   5.152   5.058   9.488 -0.2475  0.2293 -0.4547
   57SAPC   H7X 4249   5.149   4.953   9.524 -0.7186  0.0230 -1.0892
   57SAPC   H7Y 4250   5.252   5.095   9.520 -0.5574  1.4914 -0.8868
   57SAPC   C38 4251   5.153   5.074   9.331  0.0239  0.8933 -0.0401
   57SAPC   H8X 4252   5.170   5.181   9.310  2.3632  0.7642  0.9237
   57SAPC   H8Y 4253   5.054   5.047   9.287  1.1813  0.2202 -2.4631
   57SAPC   C39 4254   5.266   4.995   9.270 -0.4675  0.0116 -0.0592
   57SAPC   H9X 4255   5.240   4.889   9.290  0.3325 -0.3974 -1.1120
   57SAPC   H9Y 4256   5.369   5.017   9.307  0.1940  1.1685 -2.3712
   57SAPC  C310 4257   5.272   5.009   9.111  0.3833  0.2567 -0.1098
   57SAPC  H10X 4258   5.168   5.017   9.073 -0.0202  1.1681  1.1508
   57SAPC  H10Y 4259   5.308   4.910   9.074 -0.4881 -0.9312  2.0392
   57SAPC  C311 4260   5.370   5.124   9.066 -0.4639 -0.3304  0.1277
   57SAPC  H11X 4261   5.455   5.109   9.136 -2.3369 -2.1200  2.1878
   57SAPC  H11Y 4262   5.325   5.219   9.101  1.7694  0.7458  0.2167
   57SAPC  C312 4263   5.397   5.140   8.920 -0.1426 -0.3233  0.1189
   57SAPC  H12X 4264   5.469   5.223   8.905 -2.0288  1.0548 -1.9783
   57SAPC  H12Y 4265   5.301   5.158   8.866 -0.4313 -1.4355  0.2490
   57SAPC  C313 4266   5.459   5.010   8.856  0.6027 -0.2319 -0.4239
   57SAPC  H13X 4267   5.384   4.928   8.854  2.8687 -2.4864  1.3295
   57SAPC  H13Y 4268   5.546   4.972   8.913  1.5064 -1.3360 -2.4157
   57SAPC  C314 4269   5.484   5.045   8.705  0.3777  0.1355  0.7510
   57SAPC  H14X 4270   5.528   5.143   8.676 -0.1249 -0.0987 -0.9157
   57SAPC  H14Y 4271   5.385   5.043   8.655  1.1029 -0.4879 -0.7202
   57SAPC  C315 4272   5.569   4.929   8.642 -0.0747 -0.2480 -0.3276
   57SAPC  H15X 4273   5.549   4.826   8.678  3.2048 -0.8710  0.0870
   57SAPC  H15Y 4274   5.672   4.948   8.681  0.6535 -1.6702 -1.4476
   57SAPC  C316 4275   5.569   4.927   8.484 -0.2023  0.5080 -0.4259
   57SAPC  H16X 4276   5.621   5.018   8.447  2.1784  0.4338  2.3246
   57SAPC  H16Y 4277   5.464   4.916   8.450  0.3875  0.3039 -2.2806
   57SAPC  C317 4278   5.663   4.818   8.427  0.3613  0.1180  0.4408
   57SAPC  H17X 4279   5.665   4.814   8.316 -0.7057 -2.0597  0.4529
   57SAPC  H17Y 4280   5.618   4.726   8.469 -0.6998  0.5730  0.3169
   57SAPC  C318 4281   5.815   4.836   8.466  0.3699  0.6164  0.4960
   57SAPC  H18X 4282   5.843   4.935   8.425 -1.5835  0.6011 -1.0485
   57SAPC  H18Y 4283   5.885   4.768   8.412 -0.1593  1.7505 -1.7374
   57SAPC  H18Z 4284   5.834   4.840   8.576 -1.5666  2.0446  0.8254
   58SAPC     N 4285   0.869   1.461  10.666 -0.4260 -1.1205 -0.1829
   58SAPC   C12 4286   1.010   1.527  10.651  0.9054  0.0307 -0.1785
   58SAPC  H12A 4287   0.998   1.633  10.630 -0.5023 -0.4654 -2.1795
   58SAPC  H12B 4288   1.059   1.487  10.563  0.5691 -1.5511  0.3222
   58SAPC   C13 4289   0.802   1.520  10.787  0.1082  0.4531 -0.1765
   58SAPC  H13A 4290   0.782   1.625  10.775  3.5954  1.0808 -1.9878
   58SAPC  H13B 4291   0.713   1.459  10.795  0.6987 -0.5258 -0.8063
   58SAPC  H13C 4292   0.865   1.509  10.874  0.9909  1.9580 -0.6032
   58SAPC   C14 4293   0.773   1.504  10.562  0.4309 -0.4704  0.5748
   58SAPC  H14A 4294   0.756   1.609  10.544  2.4853 -0.3982 -1.2049
   58SAPC  H14B 4295   0.803   1.453  10.472  1.2753  0.0285  0.5655
   58SAPC  H14C 4296   0.677   1.465  10.593  0.5610 -0.3971  1.0906
   58SAPC   C15 4297   0.891   1.315  10.681 -0.5661 -0.3890  0.4347
   58SAPC  H15A 4298   0.963   1.271  10.614  1.3260  0.2432  1.9580
   58SAPC  H15B 4299   0.950   1.298  10.770  3.0844  1.0863 -1.4878
   58SAPC  H15C 4300   0.802   1.254  10.687 -0.0591 -1.1566  0.3105
   58SAPC   C11 4301   1.099   1.515  10.776 -0.0807  0.4130  0.4988
   58SAPC  H11A 4302   1.200   1.535  10.736 -1.1030 -0.8327 -3.1194
   58SAPC  H11B 4303   1.116   1.410  10.810  1.5001  0.0322 -1.2827
   58SAPC     P 4304   1.112   1.745  10.900  0.0256 -0.1949  0.2595
   58SAPC   O13 4305   1.009   1.811  10.981 -0.3445  0.4445 -0.1160
   58SAPC   O14 4306   1.253   1.740  10.939  0.3638 -0.8026 -0.2035
   58SAPC   O12 4307   1.054   1.598  10.888  0.1295  0.1916 -0.1112
   58SAPC   O11 4308   1.098   1.799  10.751  0.2422  0.0494 -0.2939
   58SAPC    C1 4309   1.177   1.914  10.715  0.4702  0.0744 -0.1779
   58SAPC    HA 4310   1.199   1.988  10.796  0.8351 -0.3903  0.1548
   58SAPC    HB 4311   1.278   1.875  10.690 -0.0562 -1.5899  0.2243
   58SAPC    C2 4312   1.129   1.981  10.595 -0.4052 -0.3993 -0.1467
   58SAPC    HS 4313   1.208   2.043  10.548 -0.9388  0.0514 -0.4659
   58SAPC   O21 4314   1.008   2.062  10.619  0.0114 -0.1912  0.2343
   58SAPC   C21 4315   1.028   2.194  10.598  0.0044  0.4526  0.4812
   58SAPC   O22 4316   1.135   2.247  10.586  0.0035  0.0946  0.1796
   58SAPC   C22 4317   0.898   2.257  10.552  0.5126  0.5258 -0.6256
   58SAPC   H2R 4318   0.818   2.202  10.605  0.6144 -0.0543 -1.0648
   58SAPC   H2S 4319   0.890   2.363  10.583  1.3724  0.8056 -1.3179
   58SAPC    C3 4320   1.087   1.871  10.487  0.6326  0.5405  0.1179
   58SAPC    HX 4321   1.006   1.809  10.530  0.0473 -0.4526 -2.2573
   58SAPC    HY 4322   1.180   1.811  10.482 -0.0540 -0.5263 -0.2402
   58SAPC   O31 4323   1.061   1.928  10.357 -0.4272 -0.5381 -0.4711
   58SAPC   C31 4324   1.017   1.846  10.273  0.1363  0.8164  0.0476
   58SAPC   O32 4325   0.964   1.739  10.293 -0.0591 -0.5602  0.2752
   58SAPC   C32 4326   1.066   1.911  10.140 -0.4679  0.2115  0.1344
   58SAPC   H2X 4327   1.168   1.954  10.152 -0.2722 -0.4120  0.7965
   58SAPC   H2Y 4328   0.991   1.985  10.107 -0.0924 -0.4065 -2.2594
   58SAPC   C23 4329   0.866   2.247  10.399 -0.0970 -0.5235  0.6262
   58SAPC   H3R 4330   0.760   2.276  10.382  0.0495  0.9982  1.9726
   58SAPC   H3S 4331   0.885   2.147  10.355  1.2428  0.5466 -1.3458
   58SAPC   C24 4332   0.945   2.362  10.324  0.2759 -0.4525  0.2304
   58SAPC   H4R 4333   0.972   2.443  10.394 -2.1236  0.1862  0.5124
   58SAPC   H4S 4334   0.882   2.414  10.248  0.6475  1.3872  1.1198
   58SAPC   C25 4335   1.070   2.310  10.269 -0.1540  0.6242 -0.6758
   58SAPC   H5R 4336   1.153   2.303  10.342 -0.7948  0.2939  0.0255
   58SAPC   C26 4337   1.105   2.278  10.143 -0.4231 -0.5665 -0.1503
   58SAPC   H6R 4338   1.196   2.220  10.125  0.3152 -0.1046  1.8927
   58SAPC   C27 4339   1.023   2.289  10.017  0.0594  0.4851  0.1320
   58SAPC   H7R 4340   0.940   2.362  10.024  1.1109  2.1594 -2.9832
   58SAPC   H7S 4341   0.979   2.188   9.999  0.4499  0.2241  0.6322
   58SAPC   C28 4342   1.120   2.328   9.907  0.2426 -0.1157  0.3391
   58SAPC   H8R 4343   1.168   2.426   9.922 -2.9790  1.6176  0.1459
   58SAPC   C29 4344   1.135   2.268   9.787 -0.0173 -0.2633  0.2849
   58SAPC   H9R 4345   1.213   2.302   9.717  0.6764  1.0935  1.6657
   58SAPC  C210 4346   1.050   2.150   9.752  0.1916  0.4887 -0.1913
   58SAPC  H10R 4347   0.951   2.190   9.719 -0.8029 -0.8140  1.1068
   58SAPC  H10S 4348   1.023   2.086   9.838  0.0924  0.6798 -0.0785
   58SAPC  C211 4349   1.095   2.050   9.655 -0.0907  0.1250  0.0314
   58SAPC  H11R 4350   1.141   1.961   9.700 -0.5057 -0.1268 -0.0401
   58SAPC  C212 4351   1.097   2.063   9.518  0.3634  0.1047 -0.4028
   58SAPC  H12R 4352   1.133   1.980   9.456  0.4171 -0.7975  0.7949
   58SAPC  C213 4353   1.041   2.175   9.441 -0.9368  0.3471  0.0872
   58SAPC  H13R 4354   1.118   2.197   9.364 -0.5135 -0.6292  0.2182
   58SAPC  H13S 4355   1.032   2.268   9.502  0.5543  1.6597 -1.5840
   58SAPC  C214 4356   0.912   2.127   9.376  0.3785  0.0985  0.6690
   58SAPC  H14R 4357   0.823   2.125   9.440  0.1055  2.8975  0.4890
   58SAPC  C215 4358   0.892   2.077   9.254  0.3409  0.4140 -0.0788
   58SAPC  H15R 4359   0.792   2.037   9.231  0.3082  1.7864 -2.7718
   58SAPC  C216 4360   0.990   2.051   9.144  0.3982 -0.4861  0.6167
   58SAPC  H16R 4361   0.980   1.948   9.106 -1.2324  0.0267 -0.4413
   58SAPC  H16S 4362   1.093   2.063   9.184  1.3517  0.2421 -1.8647
   58SAPC  C217 4363   0.963   2.145   9.024  0.7147 -1.2204  0.3256
   58SAPC  H17R 4364   1.009   2.242   9.055  0.1362 -1.2243  1.2204
   58SAPC  H17S 4365   0.854   2.166   9.019  1.0118  0.8316  1.2966
   58SAPC  C218 4366   1.029   2.090   8.903 -0.3171 -0.0020  0.2135
   58SAPC  H18R 4367   0.991   1.985   8.897 -0.0379 -0.1417  0.7591
   58SAPC  H18S 4368   1.139   2.085   8.918 -0.2420 -0.8648 -0.5387
   58SAPC  C219 4369   1.008   2.162   8.771  0.1231 -0.1839  1.1216
   58SAPC  H19R 4370   1.086   2.132   8.698 -1.9347  0.4883 -1.5089
   58SAPC  H19S 4371   1.028   2.271   8.783  0.3835 -0.1612  0.5226
   58SAPC  C220 4372   0.869   2.131   8.715 -0.0501 -0.3526  0.2296
   58SAPC  H20R 4373   0.857   2.023   8.692 -0.6978  0.2704 -2.8483
   58SAPC  H20S 4374   0.856   2.181   8.616 -2.1862 -0.2887  0.4958
   58SAPC  H20T 4375   0.778   2.161   8.771 -1.9930 -1.9666 -1.8631
   58SAPC   C33 4376   1.074   1.811  10.019 -0.6760 -0.6919 -0.5356
   58SAPC   H3X 4377   1.077   1.871   9.926  2.2942 -0.7941 -0.5862
   58SAPC   H3Y 4378   0.983   1.748  10.011 -1.3616  0.2917 -0.7250
   58SAPC   C34 4379   1.194   1.724  10.014 -0.4274  0.0032  0.1859
   58SAPC   H4X 4380   1.208   1.680  10.115 -0.3193  0.5571  0.4139
   58SAPC   H4Y 4381   1.284   1.786   9.993 -0.6465  0.3028  0.1341
   58SAPC   C35 4382   1.185   1.610   9.911  0.3994 -0.3810  0.5876
   58SAPC   H5X 4383   1.115   1.536   9.954 -1.1310  2.4396  3.3823
   58SAPC   H5Y 4384   1.289   1.571   9.907  0.7132  0.5385 -1.1775
   58SAPC   C36 4385   1.134   1.665   9.774 -0.0685  0.7860  0.1045
   58SAPC   H6X 4386   1.205   1.743   9.738 -0.1308  1.3529  1.1931
   58SAPC   H6Y 4387   1.035   1.713   9.784 -0.2231  1.2338 -2.6147
   58SAPC   C37 4388   1.125   1.559   9.666 -0.3906 -0.0604  0.3751
   58SAPC   H7X 4389   1.048   1.484   9.694 -0.5565 -0.4078 -0.9684
   58SAPC   H7Y 4390   1.217   1.497   9.663 -1.2058 -1.4279  2.0991
   58SAPC   C38 4391   1.089   1.606   9.525 -0.6456  0.3028 -0.4611
   58SAPC   H8X 4392   0.990   1.657   9.525 -1.5301 -1.2659 -2.4956
   58SAPC   H8Y 4393   1.076   1.516   9.462  2.1827 -0.1790 -0.4872
   58SAPC   C39 4394   1.204   1.686   9.462  0.3065  0.5813  0.0294
   58SAPC   H9X 4395   1.304   1.643   9.480 -0.3953 -0.9772  0.3770
   58SAPC   H9Y 4396   1.209   1.783   9.515 -0.9004  1.0839 -0.7263
   58SAPC  C310 4397   1.172   1.707   9.314 -0.3873  0.0128 -0.2886
   58SAPC  H10X 4398   1.072   1.755   9.307 -1.2237 -1.1707  2.3558
   58SAPC  H10Y 4399   1.172   1.608   9.265 -0.8917  0.6610 -1.6619
   58SAPC  C311 4400   1.276   1.785   9.244 -0.5141 -0.0523  0.4046
   58SAPC  H11X 4401   1.374   1.735   9.260 -0.1607  0.8106  1.0365
   58SAPC  H11Y 4402   1.287   1.889   9.283 -2.7539  0.2229  0.3863
   58SAPC  C312 4403   1.251   1.786   9.091 -0.0802 -0.1948 -0.2830
   58SAPC  H12X 4404   1.147   1.825   9.083 -0.3200 -0.6966  0.3094
   58SAPC  H12Y 4405   1.258   1.677   9.071  0.0568 -0.5658  1.6413
   58SAPC  C313 4406   1.352   1.860   9.001 -0.3929  0.3636 -0.4363
   58SAPC  H13X 4407   1.451   1.815   9.027 -0.3787  1.1689  1.0177
   58SAPC  H13Y 4408   1.364   1.967   9.025  1.8985  0.4111 -1.4572
   58SAPC  C314 4409   1.328   1.854   8.850 -0.4295 -0.0571 -0.6276
   58SAPC  H14X 4410   1.229   1.899   8.828 -0.9906  0.0405  1.8714
   58SAPC  H14Y 4411   1.332   1.746   8.821 -0.7364 -0.3494  0.3816
   58SAPC  C315 4412   1.423   1.936   8.760 -0.1592  1.0700  0.0927
   58SAPC  H15X 4413   1.379   1.924   8.659 -0.7304 -0.6570  0.5268
   58SAPC  H15Y 4414   1.522   1.887   8.762 -0.5249  0.3236  0.2792
   58SAPC  C316 4415   1.428   2.086   8.802 -0.6108  0.2527 -0.6279
   58SAPC  H16X 4416   1.502   2.091   8.885  0.6172  0.9945 -1.7371
   58SAPC  H16Y 4417   1.332   2.131   8.835 -0.7128 -0.1378 -0.3881
   58SAPC  C317 4418   1.472   2.173   8.679  0.0396  0.0705 -0.1696
   58SAPC  H17X 4419   1.561   2.116   8.645 -1.2152 -2.6743  0.8204
   58SAPC  H17Y 4420   1.500   2.268   8.730 -0.8652 -0.6833  1.8051
   58SAPC  C318 4421   1.371   2.198   8.575 -0.2685  0.2060 -0.4392
   58SAPC  H18X 4422   1.338   2.110   8.516  0.2249  0.5539 -1.2651
   58SAPC  H18Y 4423   1.418   2.274   8.508 -0.7434  4.1535  3.2735
   58SAPC  H18Z 4424   1.282   2.245   8.622 -0.8360  0.0803 -1.3587
   59SAPC     N 4425   1.735   4.008  11.664 -0.7423  0.1465 -0.2698
   59SAPC   C12 4426   1.788   4.050  11.525 -0.4074 -0.2609  0.2691
   59SAPC  H12A 4427   1.896   4.051  11.527 -0.3596 -0.9053 -0.6635
   59SAPC  H12B 4428   1.759   4.151  11.503 -1.3102 -0.6731 -0.5590
   59SAPC   C13 4429   1.758   4.119  11.765 -0.4116 -0.0551  0.6824
   59SAPC  H13A 4430   1.705   4.210  11.743 -2.0730 -0.8194  1.3593
   59SAPC  H13B 4431   1.708   4.078  11.852 -1.0255  0.0701  0.3944
   59SAPC  H13C 4432   1.862   4.140  11.786 -0.5570 -0.5531  2.0106
   59SAPC   C14 4433   1.587   3.984  11.659  0.9494 -0.9660  0.0854
   59SAPC  H14A 4434   1.557   3.934  11.750  1.6280  1.1303  1.5220
   59SAPC  H14B 4435   1.537   4.078  11.644 -0.0311 -1.0992  2.1433
   59SAPC  H14C 4436   1.566   3.915  11.578 -1.1424  2.0327 -2.1801
   59SAPC   C15 4437   1.795   3.875  11.709 -0.5562 -0.4731  0.2136
   59SAPC  H15A 4438   1.750   3.852  11.804 -0.0717  0.0727  0.5840
   59SAPC  H15B 4439   1.769   3.802  11.634 -1.8335  0.1913 -0.0027
   59SAPC  H15C 4440   1.902   3.869  11.725 -0.9016  0.6666  3.7400
   59SAPC   C11 4441   1.758   3.959  11.406 -0.2000  0.0606  0.0895
   59SAPC  H11A 4442   1.776   3.853  11.431  0.8954  0.2402  0.0932
   59SAPC  H11B 4443   1.831   3.989  11.327  1.6862  0.6223  1.9611
   59SAPC     P 4444   1.561   3.874  11.246  0.1092  0.0650  0.0789
   59SAPC   O13 4445   1.507   3.761  11.320  0.1048  0.6203  0.2066
   59SAPC   O14 4446   1.469   3.949  11.158 -0.3689  0.3563 -0.0871
   59SAPC   O12 4447   1.623   3.973  11.362  0.5751  0.5441  0.5526
   59SAPC   O11 4448   1.687   3.822  11.162  0.3337 -0.2589 -0.2731
   59SAPC    C1 4449   1.752   3.888  11.053  0.5773  0.6500 -0.2843
   59SAPC    HA 4450   1.742   3.996  11.075 -2.5474  0.3261  0.3174
   59SAPC    HB 4451   1.862   3.872  11.051  0.6415  0.7423  1.5905
   59SAPC    C2 4452   1.683   3.866  10.910 -0.2323  0.1663  0.5523
   59SAPC    HS 4453   1.576   3.892  10.921 -1.3262 -2.7555 -1.7988
   59SAPC   O21 4454   1.698   3.729  10.871  0.3564 -0.0274 -0.3048
   59SAPC   C21 4455   1.609   3.684  10.783 -0.3303  0.1055  1.0418
   59SAPC   O22 4456   1.527   3.747  10.718  0.2638 -0.0189 -0.6289
   59SAPC   C22 4457   1.646   3.544  10.746  0.0806  0.0575 -0.0399
   59SAPC   H2R 4458   1.746   3.550  10.698 -0.4121  0.8392 -1.0033
   59SAPC   H2S 4459   1.664   3.486  10.839  0.7799  3.2534  1.9440
   59SAPC    C3 4460   1.760   3.953  10.815 -0.4086 -0.4994  1.0610
   59SAPC    HX 4461   1.856   3.899  10.800 -1.5941 -2.5858  0.6367
   59SAPC    HY 4462   1.796   4.050  10.857 -0.7606 -0.1831  0.6439
   59SAPC   O31 4463   1.696   3.968  10.683 -0.2828 -0.0221 -0.5780
   59SAPC   C31 4464   1.592   4.054  10.695 -0.2473 -0.1069 -0.5758
   59SAPC   O32 4465   1.549   4.111  10.795 -0.7969  0.5125 -0.1078
   59SAPC   C32 4466   1.531   4.089  10.560  0.4927  0.2750 -0.1427
   59SAPC   H2X 4467   1.582   4.177  10.518 -0.6328  1.7602  1.4451
   59SAPC   H2Y 4468   1.427   4.123  10.580  0.5347 -0.2958  1.1797
   59SAPC   C23 4469   1.546   3.469  10.654 -0.3474 -0.0681 -0.2009
   59SAPC   H3R 4470   1.441   3.488  10.685 -0.4759  1.2930 -1.3584
   59SAPC   H3S 4471   1.565   3.364  10.684 -0.9869  0.3186  1.7037
   59SAPC   C24 4472   1.567   3.491  10.509  0.2510  0.1265 -0.1710
   59SAPC   H4R 4473   1.667   3.461  10.471 -0.3287 -0.2743 -1.4166
   59SAPC   H4S 4474   1.564   3.600  10.488  2.4255  0.2366 -0.1558
   59SAPC   C25 4475   1.454   3.427  10.433  0.1172 -0.3322 -0.1753
   59SAPC   H5R 4476   1.356   3.418  10.484 -0.2467  0.9385 -0.6128
   59SAPC   C26 4477   1.461   3.377  10.306  0.6616 -0.1627  0.6254
   59SAPC   H6R 4478   1.373   3.321  10.270  0.5063  0.5236 -0.0890
   59SAPC   C27 4479   1.578   3.377  10.206  0.8469 -0.0814 -0.1184
   59SAPC   H7R 4480   1.664   3.419  10.261  0.7997 -0.5409  0.3140
   59SAPC   H7S 4481   1.550   3.436  10.116  1.0719  1.1320  0.5758
   59SAPC   C28 4482   1.612   3.240  10.160  0.5462 -0.3724 -0.2087
   59SAPC   H8R 4483   1.619   3.177  10.250  0.1524  1.7574  1.4052
   59SAPC   C29 4484   1.621   3.184  10.033  0.4352  0.7059 -0.2669
   59SAPC   H9R 4485   1.659   3.081  10.024  0.2406  0.5401  0.6917
   59SAPC  C210 4486   1.599   3.261   9.906 -0.0665  0.0175  0.8236
   59SAPC  H10R 4487   1.689   3.258   9.841  0.9004  1.5553  2.0308
   59SAPC  H10S 4488   1.580   3.367   9.933 -1.2145 -0.0882  0.4994
   59SAPC  C211 4489   1.479   3.203   9.832  0.3048 -0.1877 -0.4256
   59SAPC  H11R 4490   1.388   3.177   9.887  0.5595 -1.0482 -0.3882
   59SAPC  C212 4491   1.464   3.188   9.706  0.5244  0.5323 -0.2951
   59SAPC  H12R 4492   1.370   3.145   9.670  0.3437  0.4509  0.2663
   59SAPC  C213 4493   1.558   3.223   9.595 -0.2451 -0.2342  0.1533
   59SAPC  H13R 4494   1.663   3.232   9.629 -1.1571  0.3633  3.1239
   59SAPC  H13S 4495   1.523   3.320   9.552 -0.2713  0.0047  0.6963
   59SAPC  C214 4496   1.558   3.120   9.484  0.3269 -0.3601 -0.4535
   59SAPC  H14R 4497   1.616   3.031   9.511  0.1833 -0.3474 -0.0881
   59SAPC  C215 4498   1.500   3.128   9.361 -0.5093  0.2759  0.4634
   59SAPC  H15R 4499   1.497   3.029   9.313  1.7667 -0.9063  2.5224
   59SAPC  C216 4500   1.412   3.242   9.309  0.4274  0.4265  0.2206
   59SAPC  H16R 4501   1.398   3.320   9.387 -0.9178  1.5891 -1.1462
   59SAPC  H16S 4502   1.307   3.210   9.292  1.4423 -2.4195 -1.3498
   59SAPC  C217 4503   1.468   3.309   9.173  0.5894 -0.2785 -0.0030
   59SAPC  H17R 4504   1.573   3.342   9.183  0.2866  0.1344  2.5094
   59SAPC  H17S 4505   1.399   3.395   9.158  0.8601  0.0702  0.7312
   59SAPC  C218 4506   1.469   3.210   9.054 -0.1942 -0.5014 -0.1407
   59SAPC  H18R 4507   1.367   3.202   9.011  0.1318  1.0231 -1.3100
   59SAPC  H18S 4508   1.510   3.110   9.082  0.4344  0.1410  1.3396
   59SAPC  C219 4509   1.554   3.254   8.942 -0.3516 -0.2978 -0.0449
   59SAPC  H19R 4510   1.577   3.173   8.869 -0.0897  0.6383 -1.0461
   59SAPC  H19S 4511   1.651   3.283   8.988 -0.0416 -0.6840 -0.4504
   59SAPC  C220 4512   1.504   3.373   8.853 -0.4651 -0.4927 -0.8484
   59SAPC  H20R 4513   1.508   3.463   8.918  0.0613 -0.5380 -0.8127
   59SAPC  H20S 4514   1.397   3.350   8.837 -0.0857 -1.9698 -1.4080
   59SAPC  H20T 4515   1.560   3.378   8.758 -0.7226  0.8726 -0.9476
   59SAPC   C33 4516   1.544   3.981  10.448 -0.3557 -0.3117 -0.6786
   59SAPC   H3X 4517   1.477   3.895  10.469  0.5000 -0.3481  2.4000
   59SAPC   H3Y 4518   1.643   3.930  10.452 -0.6707 -0.8533  1.3982
   59SAPC   C34 4519   1.518   4.045  10.317 -0.6477 -0.5490  0.4268
   59SAPC   H4X 4520   1.615   4.093  10.290 -0.4256 -1.8416 -1.1888
   59SAPC   H4Y 4521   1.444   4.127  10.327  1.6100  1.8569 -1.1415
   59SAPC   C35 4522   1.473   3.957  10.191  0.7464  0.2871 -0.3273
   59SAPC   H5X 4523   1.369   3.924  10.213 -0.4036  3.1753 -1.0119
   59SAPC   H5Y 4524   1.538   3.868  10.180 -0.6995 -1.0231  1.1464
   59SAPC   C36 4525   1.483   4.041  10.059  0.1792  0.1452  0.4386
   59SAPC   H6X 4526   1.589   4.058  10.034 -0.0069  0.8383  0.0925
   59SAPC   H6Y 4527   1.423   4.133  10.073 -1.4011 -0.4143 -1.9720
   59SAPC   C37 4528   1.406   3.976   9.940  0.2056 -0.3913  0.0826
   59SAPC   H7X 4529   1.296   3.972   9.958 -0.1278 -2.0372 -1.9498
   59SAPC   H7Y 4530   1.437   3.870   9.926  1.0358 -0.5979  2.8714
   59SAPC   C38 4531   1.447   4.047   9.806  0.1271 -0.3806  0.0755
   59SAPC   H8X 4532   1.557   4.043   9.802  0.0816 -1.2153 -0.5970
   59SAPC   H8Y 4533   1.409   4.152   9.809 -0.5157 -0.5889 -0.3959
   59SAPC   C39 4534   1.382   3.981   9.673  0.3134 -0.3163 -0.0993
   59SAPC   H9X 4535   1.271   3.985   9.677  0.3031 -0.7951  0.1906
   59SAPC   H9Y 4536   1.408   3.873   9.668  1.6512  0.0173 -0.8537
   59SAPC  C310 4537   1.422   4.047   9.541  0.0940 -0.4669 -0.4457
   59SAPC  H10X 4538   1.533   4.044   9.530  0.2785  1.2002  0.6368
   59SAPC  H10Y 4539   1.391   4.149   9.572 -0.2290 -0.3791 -1.0454
   59SAPC  C311 4540   1.366   3.982   9.419  0.0345  0.9387 -0.2574
   59SAPC  H11X 4541   1.255   3.971   9.422  0.1380 -0.8491 -1.6608
   59SAPC  H11Y 4542   1.398   3.876   9.410 -0.1997  0.7633  0.8457
   59SAPC  C312 4543   1.410   4.054   9.295 -0.0536 -0.2031  0.0629
   59SAPC  H12X 4544   1.516   4.024   9.279 -0.5814 -0.4890 -3.8798
   59SAPC  H12Y 4545   1.403   4.163   9.318  1.4775  0.2742 -1.5011
   59SAPC  C313 4546   1.332   4.008   9.169  0.3145  0.2934  0.1191
   59SAPC  H13X 4547   1.227   4.043   9.177  0.8973  3.1396 -2.7735
   59SAPC  H13Y 4548   1.325   3.897   9.170 -1.4224  0.3703  0.1452
   59SAPC  C314 4549   1.393   4.041   9.030 -0.0247 -0.0894 -0.1015
   59SAPC  H14X 4550   1.501   4.014   9.028 -0.1617 -0.8998  1.4226
   59SAPC  H14Y 4551   1.378   4.150   9.017 -0.3919  0.0904  1.6323
   59SAPC  C315 4552   1.324   3.963   8.913 -0.1523  0.1796  0.1624
   59SAPC  H15X 4553   1.226   4.012   8.892  0.7778  1.3165 -1.8177
   59SAPC  H15Y 4554   1.304   3.858   8.941  0.5254 -0.1923 -0.6964
   59SAPC  C316 4555   1.404   3.963   8.782  0.5715  0.2698 -0.2367
   59SAPC  H16X 4556   1.413   3.854   8.761 -0.6150 -0.0316  0.7374
   59SAPC  H16Y 4557   1.503   4.005   8.811  0.2306  0.9358 -0.0182
   59SAPC  C317 4558   1.342   4.049   8.666  0.7807  0.1438  0.2865
   59SAPC  H17X 4559   1.232   4.055   8.678  0.5234  0.4122 -1.8101
   59SAPC  H17Y 4560   1.353   3.991   8.572 -1.1822  1.8503 -1.1012
   59SAPC  C318 4561   1.409   4.188   8.671 -0.3389 -0.4927 -0.4671
   59SAPC  H18X 4562   1.514   4.162   8.645 -0.5245 -2.3942  0.5043
   59SAPC  H18Y 4563   1.390   4.240   8.768 -0.0706 -0.1276 -0.6110
   59SAPC  H18Z 4564   1.374   4.241   8.581 -1.3318  1.4418  0.9894
   60SAPC     N 4565   2.761   1.121  11.234  0.5326  0.0041 -0.1086
   60SAPC   C12 4566   2.724   1.206  11.113 -0.4283  0.1511  0.4332
   60SAPC  H12A 4567   2.698   1.303  11.152 -4.1811 -0.2728 -0.5549
   60SAPC  H12B 4568   2.640   1.171  11.054  0.5063 -1.7245  0.1536
   60SAPC   C13 4569   2.635   1.124  11.320  0.2129  0.5617 -0.1761
   60SAPC  H13A 4570   2.643   1.048  11.397 -0.9331  0.5131 -0.0908
   60SAPC  H13B 4571   2.627   1.218  11.373 -0.0293 -0.6539  2.0535
   60SAPC  H13C 4572   2.549   1.108  11.257  1.1153  1.2437 -1.6464
   60SAPC   C14 4573   2.786   0.975  11.189  0.1526 -0.2684 -0.3375
   60SAPC  H14A 4574   2.811   0.911  11.272  2.4285  0.1948 -0.6132
   60SAPC  H14B 4575   2.700   0.937  11.135  1.7735 -1.3510 -2.2671
   60SAPC  H14C 4576   2.857   0.972  11.109 -1.9614 -0.7968 -2.2964
   60SAPC   C15 4577   2.872   1.183  11.312 -0.0144  0.0699 -0.6480
   60SAPC  H15A 4578   2.966   1.177  11.259 -0.2224 -1.8781 -0.8867
   60SAPC  H15B 4579   2.847   1.284  11.339  0.5945  0.1459 -0.3623
   60SAPC  H15C 4580   2.881   1.136  11.410 -2.3661 -1.4054 -1.0525
   60SAPC   C11 4581   2.835   1.223  11.001  0.3770 -0.2822 -0.1918
   60SAPC  H11A 4582   2.922   1.268  11.054  0.3803  1.7030 -1.7482
   60SAPC  H11B 4583   2.808   1.306  10.932 -0.1635  1.3899  1.8803
   60SAPC     P 4584   2.793   1.047  10.819 -0.2912 -0.3755  0.1098
   60SAPC   O13 4585   2.835   0.909  10.789 -0.0255  0.4239  0.3690
   60SAPC   O14 4586   2.649   1.072  10.844  0.1292  0.2143 -0.3467
   60SAPC   O12 4587   2.874   1.102  10.938  0.1637 -0.1714 -0.6352
   60SAPC   O11 4588   2.853   1.147  10.706  0.4962 -0.0948  0.5286
   60SAPC    C1 4589   2.992   1.151  10.684 -0.3501  0.1299  0.2795
   60SAPC    HA 4590   3.044   1.231  10.742  0.4983 -0.1593 -0.0547
   60SAPC    HB 4591   3.039   1.054  10.712  0.2397  0.0750 -0.8512
   60SAPC    C2 4592   3.034   1.174  10.537 -0.1649  0.4212  0.2585
   60SAPC    HS 4593   3.142   1.200  10.536  0.4266 -1.7807 -1.0653
   60SAPC   O21 4594   2.946   1.267  10.471 -0.2864 -0.0609  0.3795
   60SAPC   C21 4595   2.934   1.388  10.532 -0.5174  0.2630  0.3435
   60SAPC   O22 4596   2.985   1.426  10.633  0.0016 -0.7229 -0.1544
   60SAPC   C22 4597   2.821   1.468  10.468  0.0600 -0.6778 -0.6344
   60SAPC   H2R 4598   2.781   1.413  10.379 -0.5893 -1.1169 -0.0819
   60SAPC   H2S 4599   2.739   1.445  10.539  0.5834 -1.9339 -0.4144
   60SAPC    C3 4600   3.028   1.037  10.454  0.8695 -0.3708  0.1920
   60SAPC    HX 4601   2.929   0.999  10.487  0.3763  0.3913 -0.3809
   60SAPC    HY 4602   3.103   0.957  10.475 -1.8559 -3.2885 -0.5144
   60SAPC   O31 4603   3.015   1.064  10.310 -0.1923 -0.1272 -0.4187
   60SAPC   C31 4604   3.115   1.125  10.249  0.3163  0.1874 -0.5482
   60SAPC   O32 4605   3.225   1.147  10.299 -0.6041  0.3274  0.3644
   60SAPC   C32 4606   3.065   1.155  10.115 -0.0467 -0.0559 -0.0672
   60SAPC   H2X 4607   2.960   1.191  10.123 -0.3526 -0.6438 -1.1576
   60SAPC   H2Y 4608   3.054   1.062  10.055 -0.3211  0.2668 -0.5243
   60SAPC   C23 4609   2.839   1.619  10.451  0.5195 -1.1606  0.2203
   60SAPC   H3R 4610   2.830   1.674  10.547  2.8969  0.1747 -0.2430
   60SAPC   H3S 4611   2.757   1.652  10.385  2.0229  1.3090 -0.5344
   60SAPC   C24 4612   2.970   1.662  10.380 -0.7959  0.9685  0.9834
   60SAPC   H4R 4613   3.049   1.644  10.455  2.6121  0.4583 -2.4277
   60SAPC   H4S 4614   2.974   1.771  10.357  0.4979  0.7292 -0.0441
   60SAPC   C25 4615   3.001   1.582  10.258 -0.4076 -0.4086 -0.1764
   60SAPC   H5R 4616   3.004   1.473  10.272  3.4891 -0.2084  1.7978
   60SAPC   C26 4617   3.031   1.630  10.133  0.2704  0.2448  0.1044
   60SAPC   H6R 4618   3.066   1.560  10.055  0.7748 -0.3885  0.8805
   60SAPC   C27 4619   3.039   1.769  10.082  0.2821  0.3631  0.0850
   60SAPC   H7R 4620   3.142   1.802  10.056  0.0153  1.0555 -0.1259
   60SAPC   H7S 4621   3.006   1.824  10.173 -3.1655 -1.0652 -0.1726
   60SAPC   C28 4622   2.955   1.784   9.954 -0.8174 -0.1549  0.3335
   60SAPC   H8R 4623   2.848   1.780   9.976 -1.2109 -1.2019 -1.5781
   60SAPC   C29 4624   2.981   1.806   9.825  0.3879 -0.9334 -0.1657
   60SAPC   H9R 4625   2.898   1.809   9.753  0.8345 -0.8799 -0.6877
   60SAPC  C210 4626   3.117   1.834   9.767  0.4439 -0.1465  0.3830
   60SAPC  H10R 4627   3.206   1.821   9.833 -0.2295  1.3087  1.6505
   60SAPC  H10S 4628   3.121   1.943   9.746  1.8193 -0.6368 -2.2899
   60SAPC  C211 4629   3.138   1.768   9.634 -0.4435 -0.2695  0.2157
   60SAPC  H11R 4630   3.044   1.734   9.590  0.0371 -1.5610  0.1310
   60SAPC  C212 4631   3.255   1.729   9.576 -0.1732  0.0250  0.2446
   60SAPC  H12R 4632   3.246   1.679   9.479 -0.0876 -2.4780  1.4523
   60SAPC  C213 4633   3.393   1.737   9.626  0.3061 -0.1217  0.3667
   60SAPC  H13R 4634   3.457   1.665   9.570 -0.6583 -1.5291  1.0148
   60SAPC  H13S 4635   3.382   1.688   9.725 -0.8691  0.0713  0.3448
   60SAPC  C214 4636   3.439   1.884   9.621 -0.4262 -0.3820 -0.5255
   60SAPC  H14R 4637   3.366   1.955   9.662  0.4095 -0.2288  0.7727
   60SAPC  C215 4638   3.552   1.928   9.566 -0.5940 -0.0217  0.6281
   60SAPC  H15R 4639   3.577   2.034   9.582  1.8913 -0.4850  0.2730
   60SAPC  C216 4640   3.660   1.841   9.501  0.1584  0.0942  0.0857
   60SAPC  H16R 4641   3.617   1.739   9.492 -0.3242  0.2712  0.2970
   60SAPC  H16S 4642   3.755   1.832   9.558 -0.1011 -2.8534  0.2096
   60SAPC  C217 4643   3.686   1.887   9.353 -0.6232 -0.3629 -0.1929
   60SAPC  H17R 4644   3.715   1.994   9.352 -0.2641 -0.4593 -0.5843
   60SAPC  H17S 4645   3.593   1.879   9.294 -0.8422  1.5762 -0.1635
   60SAPC  C218 4646   3.792   1.804   9.273  0.0181  0.2840 -0.5490
   60SAPC  H18R 4647   3.892   1.837   9.308 -0.1031  1.9247 -1.6556
   60SAPC  H18S 4648   3.786   1.831   9.165 -1.9700 -1.8025 -1.0276
   60SAPC  C219 4649   3.764   1.650   9.268  0.2339 -0.9225 -0.4219
   60SAPC  H19R 4650   3.654   1.641   9.269 -0.5754  5.0585  0.9605
   60SAPC  H19S 4651   3.787   1.611   9.369  0.7039  0.6258  0.0951
   60SAPC  C220 4652   3.848   1.566   9.166  0.1257 -0.2888 -0.3068
   60SAPC  H20R 4653   3.825   1.582   9.059 -2.1495  2.9173  0.5365
   60SAPC  H20S 4654   3.827   1.458   9.179  1.8241 -0.5110  0.9616
   60SAPC  H20T 4655   3.958   1.582   9.173  0.5006  0.4462 -4.8293
   60SAPC   C33 4656   3.154   1.254  10.046 -0.8688  1.1134  0.5695
   60SAPC   H3X 4657   3.258   1.217  10.027 -1.9323 -2.5900  1.1988
   60SAPC   H3Y 4658   3.145   1.342  10.112 -3.4551  0.0513  1.7397
   60SAPC   C34 4659   3.093   1.295   9.904 -0.3498  0.2159 -0.5812
   60SAPC   H4X 4660   2.988   1.316   9.932 -0.2330 -2.2424  2.2945
   60SAPC   H4Y 4661   3.093   1.206   9.836 -2.0102  0.3021 -0.7369
   60SAPC   C35 4662   3.168   1.411   9.838 -0.5378 -0.2403  0.2786
   60SAPC   H5X 4663   3.179   1.500   9.903  0.3214  1.2740 -1.8437
   60SAPC   H5Y 4664   3.109   1.440   9.748  0.6428  1.9541  0.1359
   60SAPC   C36 4665   3.311   1.372   9.788  0.1610 -0.6793 -0.2144
   60SAPC   H6X 4666   3.367   1.345   9.880  0.0537  0.6319  0.2695
   60SAPC   H6Y 4667   3.356   1.454   9.728  0.8006 -0.2919  0.7720
   60SAPC   C37 4668   3.317   1.245   9.704 -0.5822 -0.3128  0.2886
   60SAPC   H7X 4669   3.277   1.153   9.752  0.3588  0.2170  2.2006
   60SAPC   H7Y 4670   3.424   1.227   9.680 -1.0286  0.2093 -2.3688
   60SAPC   C38 4671   3.236   1.250   9.579  0.4470  0.5486 -0.0188
   60SAPC   H8X 4672   3.139   1.300   9.604  0.1674  0.6182 -1.1755
   60SAPC   H8Y 4673   3.220   1.145   9.549  0.5168  0.8621 -1.2278
   60SAPC   C39 4674   3.301   1.323   9.466 -0.5332  0.5693  1.0099
   60SAPC   H9X 4675   3.363   1.251   9.408  0.5815  1.6705  0.7853
   60SAPC   H9Y 4676   3.356   1.415   9.494 -2.0273  1.0485  2.4911
   60SAPC  C310 4677   3.191   1.356   9.368  0.2018  0.0649  0.2508
   60SAPC  H10X 4678   3.136   1.442   9.412  0.8204 -0.2156  1.6141
   60SAPC  H10Y 4679   3.128   1.266   9.347 -0.4932  0.9987 -1.9020
   60SAPC  C311 4680   3.236   1.386   9.227  0.2115 -0.5678  0.2836
   60SAPC  H11X 4681   3.147   1.382   9.161 -1.0170  0.7513  1.7806
   60SAPC  H11Y 4682   3.313   1.316   9.187  1.2268  0.3521  0.5555
   60SAPC  C312 4683   3.299   1.529   9.216 -0.0772  0.8862 -0.1471
   60SAPC  H12X 4684   3.397   1.528   9.268 -0.7756  2.9415  1.3221
   60SAPC  H12Y 4685   3.240   1.606   9.270 -2.5718 -1.7425  1.1349
   60SAPC  C313 4686   3.328   1.564   9.074 -0.3798 -0.6637  0.1915
   60SAPC  H13X 4687   3.244   1.553   9.002  1.5818 -0.6312 -2.1999
   60SAPC  H13Y 4688   3.403   1.492   9.035  2.5503  2.3822 -0.2196
   60SAPC  C314 4689   3.396   1.701   9.058 -1.1195 -0.4860  0.8424
   60SAPC  H14X 4690   3.466   1.713   9.143  0.0854 -1.3768 -0.0045
   60SAPC  H14Y 4691   3.324   1.784   9.075  1.2973  2.1673 -0.9239
   60SAPC  C315 4692   3.468   1.726   8.924  0.1431 -0.0543 -0.0763
   60SAPC  H15X 4693   3.401   1.719   8.836 -0.9828  0.1620  0.7345
   60SAPC  H15Y 4694   3.558   1.663   8.915  0.4074  0.3463 -0.2511
   60SAPC  C316 4695   3.535   1.865   8.903 -0.3550 -0.0921  0.4972
   60SAPC  H16X 4696   3.601   1.869   8.992 -0.1557  0.6508  0.3234
   60SAPC  H16Y 4697   3.454   1.940   8.913 -1.3132 -1.3235  3.0313
   60SAPC  C317 4698   3.613   1.881   8.768 -0.0867 -0.0254 -0.2242
   60SAPC  H17X 4699   3.669   1.976   8.782 -3.0359  1.6479  1.0296
   60SAPC  H17Y 4700   3.536   1.883   8.688 -2.6536 -1.5410  2.0360
   60SAPC  C318 4701   3.703   1.764   8.738 -0.0789 -0.1383 -0.2783
   60SAPC  H18X 4702   3.769   1.798   8.655  0.7629 -0.7885  0.1186
   60SAPC  H18Y 4703   3.646   1.682   8.690  0.3446  0.5153 -1.9852
   60SAPC  H18Z 4704   3.766   1.730   8.823  0.6158 -0.2196 -0.8132
   61SAPC     N 4705   4.254   0.055  11.229  0.6379 -0.0413  0.0638
   61SAPC   C12 4706   4.231   0.183  11.154 -0.3537  0.5135  0.5135
   61SAPC  H12A 4707   4.307   0.255  11.180  0.5938 -0.4529  0.5073
   61SAPC  H12B 4708   4.140   0.230  11.187 -0.3581  0.8762 -0.0029
   61SAPC   C13 4709   4.363  -0.028  11.163 -0.2664 -0.9384 -1.0132
   61SAPC  H13A 4710   4.324  -0.065  11.070 -1.3724  0.0200 -0.9554
   61SAPC  H13B 4711   4.454   0.028  11.148  0.0053 -1.2212 -0.4185
   61SAPC  H13C 4712   4.385  -0.115  11.222  0.1124 -0.9713 -1.1970
   61SAPC   C14 4713   4.283   0.084  11.371  0.1656 -0.4877 -0.3952
   61SAPC  H14A 4714   4.372   0.147  11.366  1.4203 -2.2615 -1.5585
   61SAPC  H14B 4715   4.204   0.141  11.418  0.6387  0.6436 -0.9208
   61SAPC  H14C 4716   4.295  -0.004  11.431 -2.2794 -1.3154 -1.0334
   61SAPC   C15 4717   4.126  -0.030  11.224  0.2664  0.3849 -0.0544
   61SAPC  H15A 4718   4.048   0.013  11.285 -0.1698 -0.2112 -0.1923
   61SAPC  H15B 4719   4.090  -0.048  11.124  2.4143 -0.6026 -0.7182
   61SAPC  H15C 4720   4.149  -0.129  11.258  2.3616  1.4472  1.8766
   61SAPC   C11 4721   4.224   0.185  10.996 -0.3606 -0.4239  0.1529
   61SAPC  H11A 4722   4.316   0.149  10.944  1.5946  3.0380  0.8751
   61SAPC  H11B 4723   4.226   0.295  10.978 -1.1107 -0.2099  1.2365
   61SAPC     P 4724   4.085   0.074  10.799  0.1799 -0.2480 -0.0361
   61SAPC   O13 4725   4.169  -0.043  10.781 -0.0100  0.3155 -0.3460
   61SAPC   O14 4726   3.940   0.055  10.782  0.6344  0.2028  0.3999
   61SAPC   O12 4727   4.102   0.124  10.945 -0.1860 -0.0257 -0.2701
   61SAPC   O11 4728   4.145   0.187  10.706  0.6065  0.0449 -0.6216
   61SAPC    C1 4729   4.075   0.307  10.685  0.0384 -0.0224 -0.2072
   61SAPC    HA 4730   3.984   0.315  10.748 -0.9897  0.1240 -1.6518
   61SAPC    HB 4731   4.140   0.386  10.727  0.3412 -0.3467 -0.0596
   61SAPC    C2 4732   4.053   0.339  10.532  0.6800  0.8564 -0.0709
   61SAPC    HS 4733   3.986   0.427  10.543  2.0333  1.6483  2.4370
   61SAPC   O21 4734   3.995   0.228  10.456 -0.2394  0.0061  0.3096
   61SAPC   C21 4735   3.873   0.203  10.484  0.0645 -0.4038 -0.2693
   61SAPC   O22 4736   3.794   0.276  10.546 -0.5851  0.1865  0.0334
   61SAPC   C22 4737   3.842   0.060  10.428  0.3050 -0.3463  0.0353
   61SAPC   H2R 4738   3.928   0.009  10.380  2.1798  1.6940  1.0711
   61SAPC   H2S 4739   3.803   0.001  10.513 -1.8612 -1.6640 -1.7515
   61SAPC    C3 4740   4.181   0.401  10.478  0.3897  0.5171  0.0608
   61SAPC    HX 4741   4.164   0.410  10.369 -0.8716 -0.1839  0.1851
   61SAPC    HY 4742   4.266   0.336  10.508 -1.0260 -0.3509  2.4526
   61SAPC   O31 4743   4.220   0.524  10.533 -0.3663 -0.1815 -0.0106
   61SAPC   C31 4744   4.196   0.640  10.470 -0.2736  0.1038  0.3725
   61SAPC   O32 4745   4.147   0.649  10.358 -0.1796 -0.6664  0.1854
   61SAPC   C32 4746   4.247   0.750  10.553  0.4353 -0.1902 -0.3303
   61SAPC   H2X 4747   4.329   0.706  10.613 -0.0529 -2.6710 -1.3512
   61SAPC   H2Y 4748   4.166   0.780  10.623 -0.2934 -0.9290 -0.8266
   61SAPC   C23 4749   3.725   0.077  10.329  0.7354 -0.2300 -0.3697
   61SAPC   H3R 4750   3.658   0.157  10.367  1.5649  1.5474 -2.3919
   61SAPC   H3S 4751   3.672  -0.020  10.324  1.4793 -0.6521 -0.1049
   61SAPC   C24 4752   3.784   0.103  10.193  0.2442  0.6261 -0.5661
   61SAPC   H4R 4753   3.832   0.014  10.146  0.0797  0.0907  0.2744
   61SAPC   H4S 4754   3.861   0.181  10.208  0.2707  0.5812 -0.4707
   61SAPC   C25 4755   3.675   0.157  10.106 -0.2724  0.1409 -0.4151
   61SAPC   H5R 4756   3.661   0.266  10.117 -2.6881 -0.1885  0.5115
   61SAPC   C26 4757   3.599   0.088  10.017  0.1666  0.4141  0.1251
   61SAPC   H6R 4758   3.530   0.139   9.948 -0.3736 -2.8035 -1.8942
   61SAPC   C27 4759   3.614  -0.058   9.996 -0.4057  0.3174  0.4257
   61SAPC   H7R 4760   3.612  -0.106  10.096 -2.9814  2.4786  1.5448
   61SAPC   H7S 4761   3.714  -0.080   9.954 -0.5049  1.3805 -0.4010
   61SAPC   C28 4762   3.505  -0.130   9.907 -0.4584  0.4338 -1.1658
   61SAPC   H8R 4763   3.457  -0.211   9.964 -0.6455 -0.5025 -2.5934
   61SAPC   C29 4764   3.477  -0.096   9.782  1.1626 -0.1028  0.3412
   61SAPC   H9R 4765   3.382  -0.137   9.743  0.0527  2.8237 -0.2839
   61SAPC  C210 4766   3.528   0.010   9.696 -0.2728 -1.0915 -0.3154
   61SAPC  H10R 4767   3.598  -0.040   9.625 -0.2166 -0.2183 -0.8833
   61SAPC  H10S 4768   3.605   0.061   9.758 -0.2785 -1.7253  0.2341
   61SAPC  C211 4769   3.424   0.094   9.627  0.5240  0.2957  0.5548
   61SAPC  H11R 4770   3.342   0.119   9.696  1.5171 -0.4380  2.0608
   61SAPC  C212 4771   3.407   0.130   9.498  0.3889 -0.0300 -1.3581
   61SAPC  H12R 4772   3.324   0.199   9.478  1.6339  2.0616  0.2307
   61SAPC  C213 4773   3.496   0.096   9.387  0.2647  0.1624  0.4022
   61SAPC  H13R 4774   3.549   0.001   9.406 -0.7518 -1.0534 -2.2790
   61SAPC  H13S 4775   3.568   0.177   9.364  1.3681 -0.8182  0.3128
   61SAPC  C214 4776   3.394   0.083   9.272 -0.0004  0.3630 -0.3445
   61SAPC  H14R 4777   3.309   0.018   9.297 -1.0064  1.4139 -0.9524
   61SAPC  C215 4778   3.386   0.130   9.143  0.7373  0.0372 -0.4384
   61SAPC  H15R 4779   3.300   0.095   9.084 -1.1552  2.2890  0.7890
   61SAPC  C216 4780   3.490   0.210   9.074 -0.4293  0.4774 -0.3149
   61SAPC  H16R 4781   3.562   0.246   9.149  0.0890 -1.6647  0.2972
   61SAPC  H16S 4782   3.445   0.290   9.011  0.1055  1.9483  1.1242
   61SAPC  C217 4783   3.559   0.117   8.962  0.2226 -0.5249  0.0497
   61SAPC  H17R 4784   3.481   0.080   8.891 -0.6754  1.1695  0.1085
   61SAPC  H17S 4785   3.599   0.032   9.021  1.9892 -2.3321 -3.4170
   61SAPC  C218 4786   3.669   0.194   8.884 -0.3501  0.9569 -0.5865
   61SAPC  H18R 4787   3.756   0.209   8.951 -0.9788  0.9960  0.2339
   61SAPC  H18S 4788   3.632   0.290   8.841 -1.5058  1.7719  2.0273
   61SAPC  C219 4789   3.711   0.106   8.762 -0.4197 -0.0305  0.7588
   61SAPC  H19R 4790   3.618   0.097   8.701  1.1096 -0.5255 -1.6366
   61SAPC  H19S 4791   3.736   0.002   8.792  2.2876  0.2388 -0.2512
   61SAPC  C220 4792   3.819   0.164   8.674 -0.0767 -0.6722 -0.7117
   61SAPC  H20R 4793   3.789   0.264   8.634 -0.3251 -0.5680 -0.2672
   61SAPC  H20S 4794   3.867   0.095   8.602  4.0151 -0.4928  1.5717
   61SAPC  H20T 4795   3.910   0.175   8.736  0.2544 -2.4607 -0.8336
   61SAPC   C33 4796   4.290   0.872  10.469  0.1644 -0.1871 -0.9427
   61SAPC   H3X 4797   4.336   0.837  10.374  0.6107 -2.7459  0.1569
   61SAPC   H3Y 4798   4.370   0.924  10.527  0.3318  0.2514 -1.5518
   61SAPC   C34 4799   4.173   0.972  10.431 -0.1008  1.6516  0.6386
   61SAPC   H4X 4800   4.129   1.025  10.518 -0.0853  0.8295  1.1625
   61SAPC   H4Y 4801   4.091   0.915  10.382  1.2899 -0.1203  0.2538
   61SAPC   C35 4802   4.236   1.070  10.330  0.3957  0.1017 -0.6626
   61SAPC   H5X 4803   4.343   1.094  10.351  0.4555  1.2642 -2.1482
   61SAPC   H5Y 4804   4.176   1.163  10.343  0.4374  0.4490 -2.6428
   61SAPC   C36 4805   4.210   1.032  10.187  0.6563 -0.8314  1.2301
   61SAPC   H6X 4806   4.109   0.989  10.175  0.7875 -0.3921 -2.3893
   61SAPC   H6Y 4807   4.281   0.950  10.162  0.0791 -0.7218 -0.9663
   61SAPC   C37 4808   4.221   1.150  10.093  0.1364  0.5625  0.3461
   61SAPC   H7X 4809   4.311   1.213  10.112  0.3369  0.3200  0.2051
   61SAPC   H7Y 4810   4.137   1.222  10.098  2.2940  3.3992 -1.2593
   61SAPC   C38 4811   4.241   1.103   9.941  0.3398 -0.3291 -0.1307
   61SAPC   H8X 4812   4.158   1.034   9.914 -0.6369  0.6826  0.2099
   61SAPC   H8Y 4813   4.345   1.063   9.943  0.3455 -0.2989  0.3219
   61SAPC   C39 4814   4.222   1.204   9.834  0.4492 -0.0293 -0.2600
   61SAPC   H9X 4815   4.293   1.287   9.858  1.0079 -1.1629  2.4382
   61SAPC   H9Y 4816   4.120   1.247   9.844  0.4486  0.1408 -0.9764
   61SAPC  C310 4817   4.248   1.156   9.692 -0.0412  0.1233  0.4869
   61SAPC  H10X 4818   4.164   1.088   9.666  1.1561 -1.0985 -0.3297
   61SAPC  H10Y 4819   4.347   1.106   9.690 -0.1764 -0.4560  3.2339
   61SAPC  C311 4820   4.257   1.286   9.605  0.2592  0.6755 -0.5096
   61SAPC  H11X 4821   4.329   1.354   9.655 -0.9264  0.1115  2.1406
   61SAPC  H11Y 4822   4.154   1.326   9.612 -0.6071 -1.7109  2.7060
   61SAPC  C312 4823   4.295   1.272   9.459 -0.0524  0.0348  0.4685
   61SAPC  H12X 4824   4.399   1.233   9.457  0.4934  1.4779 -0.6499
   61SAPC  H12Y 4825   4.299   1.362   9.394 -1.0959 -1.5206 -1.8717
   61SAPC  C313 4826   4.197   1.177   9.382 -0.6854  0.7741 -0.9286
   61SAPC  H13X 4827   4.111   1.166   9.451  1.5893  0.3925  2.0325
   61SAPC  H13Y 4828   4.245   1.077   9.373  0.4295  1.2490 -0.4770
   61SAPC  C314 4829   4.161   1.223   9.241 -0.0571  0.4839 -0.5945
   61SAPC  H14X 4830   4.127   1.328   9.245  1.4174  0.9643  0.6084
   61SAPC  H14Y 4831   4.079   1.159   9.203  0.8082 -1.0139 -0.0487
   61SAPC  C315 4832   4.278   1.225   9.140  0.1823 -0.2329  0.0745
   61SAPC  H15X 4833   4.330   1.127   9.151  1.7274  0.3863 -1.2914
   61SAPC  H15Y 4834   4.333   1.318   9.164  1.1990 -0.5303 -1.0226
   61SAPC  C316 4835   4.233   1.235   8.996 -0.0717  0.0941 -0.4465
   61SAPC  H16X 4836   4.158   1.153   8.989  1.0825 -0.8625 -3.0077
   61SAPC  H16Y 4837   4.318   1.221   8.926  0.7072  1.1114  0.2752
   61SAPC  C317 4838   4.170   1.368   8.972 -0.4298 -0.2752 -0.6002
   61SAPC  H17X 4839   4.241   1.449   9.000 -1.4667 -0.5290  3.3809
   61SAPC  H17Y 4840   4.088   1.386   9.044  0.5004  2.2212 -0.0755
   61SAPC  C318 4841   4.115   1.377   8.829  0.4992  0.1817 -0.2807
   61SAPC  H18X 4842   4.046   1.294   8.809 -1.0912  1.6236 -1.0103
   61SAPC  H18Y 4843   4.187   1.368   8.744 -2.2001  1.6805 -2.8938
   61SAPC  H18Z 4844   4.067   1.475   8.810  0.8648  0.7192  1.3243
   62SAPC     N 4845   3.272   6.110  10.803 -0.1306 -0.0152  0.9975
   62SAPC   C12 4846   3.314   6.017  10.684 -0.1842 -0.0180  0.2137
   62SAPC  H12A 4847   3.250   6.030  10.599 -0.3470  3.2691  0.7090
   62SAPC  H12B 4848   3.298   5.913  10.712  0.5470  0.0173  0.8110
   62SAPC   C13 4849   3.370   6.112  10.912  0.2671  0.2570  0.0497
   62SAPC  H13A 4850   3.469   6.111  10.869  0.1394 -0.0294 -0.2434
   62SAPC  H13B 4851   3.352   6.197  10.977 -0.2772  1.7795 -1.9818
   62SAPC  H13C 4852   3.347   6.021  10.966  0.7828  0.0422 -0.0923
   62SAPC   C14 4853   3.266   6.248  10.742 -0.3715 -1.1530  0.5434
   62SAPC  H14A 4854   3.202   6.265  10.657  0.2234 -1.5614  0.0124
   62SAPC  H14B 4855   3.238   6.329  10.808 -3.1172  0.2302 -2.0644
   62SAPC  H14C 4856   3.364   6.274  10.705 -1.2801  0.2249 -0.9912
   62SAPC   C15 4857   3.137   6.071  10.851  0.6058  0.7967 -0.3289
   62SAPC  H15A 4858   3.066   6.067  10.770 -0.8846  0.8735  0.9392
   62SAPC  H15B 4859   3.147   5.968  10.881  0.5069  0.2934 -1.8989
   62SAPC  H15C 4860   3.097   6.134  10.928  0.6283 -0.4533  0.7380
   62SAPC   C11 4861   3.461   6.017  10.632  0.6154 -0.2322 -0.2882
   62SAPC  H11A 4862   3.495   6.121  10.614  1.5279 -0.1981  1.4796
   62SAPC  H11B 4863   3.472   5.958  10.538  3.8504 -0.6843  0.2435
   62SAPC     P 4864   3.551   5.798  10.745 -0.1654 -0.4564 -0.1492
   62SAPC   O13 4865   3.669   5.762  10.819  0.0436  0.1531 -0.2933
   62SAPC   O14 4866   3.418   5.756  10.798  0.0425 -0.1233 -0.2518
   62SAPC   O12 4867   3.550   5.952  10.732  0.3790 -0.2352  0.0720
   62SAPC   O11 4868   3.568   5.760  10.592  0.1610  0.1921 -0.0516
   62SAPC    C1 4869   3.453   5.713  10.526 -0.2400  0.3883  0.6047
   62SAPC    HA 4870   3.445   5.605  10.551 -2.6605  1.2010  4.1443
   62SAPC    HB 4871   3.361   5.772  10.545 -0.3471 -0.2599  2.2715
   62SAPC    C2 4872   3.454   5.725  10.367  0.3393  0.1661 -0.7799
   62SAPC    HS 4873   3.551   5.678  10.341  1.1890  0.3934  1.7174
   62SAPC   O21 4874   3.434   5.856  10.323  0.8906 -0.2862 -1.0247
   62SAPC   C21 4875   3.487   5.885  10.215  0.0374  0.1819 -0.0604
   62SAPC   O22 4876   3.582   5.825  10.164  0.1544  0.4113 -0.0551
   62SAPC   C22 4877   3.445   6.016  10.163  0.1222 -0.3037 -0.2516
   62SAPC   H2R 4878   3.337   6.021  10.137 -0.0064  0.3977  0.3797
   62SAPC   H2S 4879   3.455   6.093  10.242 -2.5272 -0.3000  0.1535
   62SAPC    C3 4880   3.339   5.645  10.311  0.6935  0.3794  0.0841
   62SAPC    HX 4881   3.248   5.699  10.343 -0.9877 -2.3609  0.2062
   62SAPC    HY 4882   3.317   5.548  10.361 -0.4336  0.3539 -0.4321
   62SAPC   O31 4883   3.345   5.624  10.166  0.0279 -0.3652  0.4224
   62SAPC   C31 4884   3.431   5.530  10.127  0.0516 -0.0828  0.2469
   62SAPC   O32 4885   3.499   5.456  10.196  0.4102 -0.3813  0.0831
   62SAPC   C32 4886   3.426   5.521   9.975  0.3196 -0.4219  0.5293
   62SAPC   H2X 4887   3.326   5.491   9.937  0.9442 -2.4842  0.4043
   62SAPC   H2Y 4888   3.495   5.437   9.953  1.9794  1.4958 -2.2204
   62SAPC   C23 4889   3.501   6.044  10.027 -0.4629 -0.0548 -1.0254
   62SAPC   H3R 4890   3.472   5.967   9.953  2.2058 -1.7817 -0.3934
   62SAPC   H3S 4891   3.611   6.059  10.026 -0.4009  0.0020  1.1577
   62SAPC   C24 4892   3.443   6.184   9.978 -0.4896  0.2707  0.4489
   62SAPC   H4R 4893   3.463   6.251  10.064  0.9822 -0.4986  0.7236
   62SAPC   H4S 4894   3.332   6.179   9.985 -0.5548 -1.0681 -0.8638
   62SAPC   C25 4895   3.497   6.236   9.843  0.4588 -0.6213  0.6308
   62SAPC   H5R 4896   3.606   6.252   9.839  0.4350 -0.6083 -1.4255
   62SAPC   C26 4897   3.423   6.256   9.729 -0.1136 -0.7972 -0.3082
   62SAPC   H6R 4898   3.472   6.290   9.637 -0.6134  3.4161  0.8085
   62SAPC   C27 4899   3.270   6.233   9.718 -0.2106  0.0784  0.4757
   62SAPC   H7R 4900   3.229   6.246   9.820  0.0074  2.4114  0.3178
   62SAPC   H7S 4901   3.248   6.133   9.675 -3.5457  0.9801 -0.1911
   62SAPC   C28 4902   3.188   6.326   9.636  0.1005 -0.0563  0.3503
   62SAPC   H8R 4903   3.117   6.393   9.687 -1.1165 -0.9591 -0.1117
   62SAPC   C29 4904   3.195   6.316   9.501  0.0515  0.2985 -0.2939
   62SAPC   H9R 4905   3.147   6.400   9.449  1.8974  0.7860 -1.2991
   62SAPC  C210 4906   3.287   6.232   9.415 -0.1886  0.2326 -0.0530
   62SAPC  H10R 4907   3.224   6.161   9.357  1.5185  0.2701 -2.0566
   62SAPC  H10S 4908   3.356   6.168   9.474  1.3733  2.5053  0.7448
   62SAPC  C211 4909   3.348   6.319   9.309 -0.7201 -0.4294 -0.4131
   62SAPC  H11R 4910   3.280   6.378   9.245 -1.0561 -0.4009 -0.0271
   62SAPC  C212 4911   3.483   6.338   9.284 -0.1582 -0.0578 -0.3535
   62SAPC  H12R 4912   3.513   6.425   9.225 -2.2058  2.2235  1.7596
   62SAPC  C213 4913   3.602   6.273   9.352  0.8621 -0.0183  0.2883
   62SAPC  H13R 4914   3.621   6.174   9.306 -1.4427  0.7157 -2.5506
   62SAPC  H13S 4915   3.566   6.252   9.456  0.2898  0.5037  0.2037
   62SAPC  C214 4916   3.731   6.348   9.356  0.0340 -0.2014  0.4107
   62SAPC  H14R 4917   3.761   6.382   9.456 -1.1950  1.9749  0.1085
   62SAPC  C215 4918   3.813   6.360   9.254 -0.8086  0.6339  0.4898
   62SAPC  H15R 4919   3.903   6.421   9.268 -0.0967 -0.7914  2.7843
   62SAPC  C216 4920   3.800   6.305   9.112  0.8610  0.7504  0.6989
   62SAPC  H16R 4921   3.700   6.263   9.090  0.4465  1.2545  1.5752
   62SAPC  H16S 4922   3.868   6.217   9.109 -0.2766 -0.1285 -0.0644
   62SAPC  C217 4923   3.803   6.405   8.990 -0.3130  0.0279  0.2026
   62SAPC  H17R 4924   3.908   6.395   8.955  0.0597 -1.4231  1.6174
   62SAPC  H17S 4925   3.781   6.506   9.032  1.3682  0.5444 -0.0555
   62SAPC  C218 4926   3.714   6.373   8.871  0.2539  0.0284  0.3625
   62SAPC  H18R 4927   3.605   6.367   8.893  0.1361  0.1684 -0.1682
   62SAPC  H18S 4928   3.730   6.269   8.837 -1.1534  0.6696 -2.5374
   62SAPC  C219 4929   3.737   6.455   8.750  0.0387  0.0093  0.9099
   62SAPC  H19R 4930   3.846   6.456   8.728  0.0560 -2.3422  0.6028
   62SAPC  H19S 4931   3.688   6.550   8.782  0.3335  0.2257  0.7202
   62SAPC  C220 4932   3.669   6.400   8.619 -0.1663 -0.0784 -0.2053
   62SAPC  H20R 4933   3.698   6.455   8.527 -0.0274 -0.7616 -0.5756
   62SAPC  H20S 4934   3.561   6.416   8.636  0.2190  2.2959  0.4246
   62SAPC  H20T 4935   3.695   6.295   8.594 -0.0395  0.1520 -1.0903
   62SAPC   C33 4936   3.474   5.645   9.899 -0.2025 -0.9246 -0.8736
   62SAPC   H3X 4937   3.572   5.679   9.938 -1.2309  0.3355  0.7323
   62SAPC   H3Y 4938   3.404   5.726   9.928 -1.1021 -1.6595 -0.9627
   62SAPC   C34 4939   3.486   5.629   9.744 -0.1403 -0.1881  0.2204
   62SAPC   H4X 4940   3.408   5.565   9.697  1.8580 -2.2026 -0.5637
   62SAPC   H4Y 4941   3.587   5.585   9.728 -0.2388 -1.4227  2.5726
   62SAPC   C35 4942   3.514   5.771   9.685  0.1025  0.0126 -0.5150
   62SAPC   H5X 4943   3.608   5.813   9.728 -1.2983 -0.3499  3.2344
   62SAPC   H5Y 4944   3.448   5.849   9.727 -0.2818  0.2424 -1.5151
   62SAPC   C36 4945   3.509   5.771   9.529  0.8168  0.2347  0.4928
   62SAPC   H6X 4946   3.407   5.734   9.503  0.7597  1.4935 -1.3020
   62SAPC   H6Y 4947   3.571   5.688   9.489  2.0466  0.8300  1.0969
   62SAPC   C37 4948   3.540   5.901   9.452 -0.2110 -0.3017  0.1537
   62SAPC   H7X 4949   3.644   5.936   9.474  0.0987 -1.1416  0.0642
   62SAPC   H7Y 4950   3.469   5.979   9.485 -0.1675  0.3511 -1.2289
   62SAPC   C38 4951   3.516   5.892   9.303 -1.3884 -0.1035 -0.3834
   62SAPC   H8X 4952   3.506   5.993   9.257 -1.5756  0.2424  0.3928
   62SAPC   H8Y 4953   3.414   5.853   9.280 -0.9148 -0.3720 -2.1372
   62SAPC   C39 4954   3.627   5.819   9.229 -0.5802 -0.4068  0.2529
   62SAPC   H9X 4955   3.580   5.729   9.185  0.7244 -0.9808 -0.0407
   62SAPC   H9Y 4956   3.702   5.797   9.308  0.0039  0.5288 -0.0154
   62SAPC  C310 4957   3.684   5.903   9.117 -0.7726 -0.1957  0.4197
   62SAPC  H10X 4958   3.716   6.001   9.157 -1.5902 -0.2145  1.1503
   62SAPC  H10Y 4959   3.607   5.920   9.038 -0.3747 -1.3119 -0.2378
   62SAPC  C311 4960   3.805   5.841   9.040  0.7170  0.1028  0.1715
   62SAPC  H11X 4961   3.780   5.737   9.011  0.5599 -0.0861  0.9662
   62SAPC  H11Y 4962   3.889   5.834   9.112  0.2391 -2.2781  0.5813
   62SAPC  C312 4963   3.841   5.901   8.904 -0.6739 -0.2813  0.0736
   62SAPC  H12X 4964   3.939   5.860   8.870 -0.6403 -0.4410  0.3632
   62SAPC  H12Y 4965   3.848   6.012   8.905 -1.4691 -0.1938 -1.1488
   62SAPC  C313 4966   3.730   5.860   8.807 -0.1938  0.5293  0.4641
   62SAPC  H13X 4967   3.633   5.906   8.835 -0.5209 -0.8664  1.7468
   62SAPC  H13Y 4968   3.704   5.752   8.809 -0.6231  0.6353  1.1415
   62SAPC  C314 4969   3.756   5.888   8.649 -0.3182 -0.4791 -0.3959
   62SAPC  H14X 4970   3.781   5.790   8.604 -0.6895 -0.1294 -1.3981
   62SAPC  H14Y 4971   3.838   5.961   8.634  1.5795 -2.2534  0.8347
   62SAPC  C315 4972   3.627   5.947   8.586  0.6106 -0.1811  0.6063
   62SAPC  H15X 4973   3.589   6.039   8.635 -0.8524 -1.0711  1.2137
   62SAPC  H15Y 4974   3.543   5.874   8.590 -0.0616  0.5734  0.4545
   62SAPC  C316 4975   3.655   5.988   8.440  0.1950  0.3817  0.3606
   62SAPC  H16X 4976   3.720   5.915   8.387 -1.5994  0.4613 -2.1586
   62SAPC  H16Y 4977   3.723   6.075   8.440  2.6276 -1.4080  0.8974
   62SAPC  C317 4978   3.525   6.024   8.367 -0.0407 -0.1994  0.7007
   62SAPC  H17X 4979   3.447   5.946   8.374 -0.3813  0.1190  0.4300
   62SAPC  H17Y 4980   3.551   6.031   8.259 -1.7728 -2.0049  0.1296
   62SAPC  C318 4981   3.465   6.158   8.417  0.1392  0.4618  0.1608
   62SAPC  H18X 4982   3.541   6.239   8.419  0.7650 -0.1141  2.0885
   62SAPC  H18Y 4983   3.438   6.142   8.524  1.9141 -0.6137  0.4784
   62SAPC  H18Z 4984   3.378   6.191   8.357 -0.2370 -0.7881 -0.0185
   63SAPC     N 4985   1.671   5.097   6.525  0.0007  0.1194 -0.1064
   63SAPC   C12 4986   1.616   4.962   6.474  0.5024 -0.2469 -0.1153
   63SAPC  H12A 4987   1.525   4.982   6.419  1.1548  0.6874 -0.9223
   63SAPC  H12B 4988   1.582   4.891   6.547  0.7575 -1.2071 -0.9081
   63SAPC   C13 4989   1.789   5.073   6.616 -0.3263 -0.4616 -0.3069
   63SAPC  H13A 4990   1.756   5.020   6.704 -0.3827 -2.0094 -1.2250
   63SAPC  H13B 4991   1.848   4.995   6.570 -1.0990 -0.6008 -1.0957
   63SAPC  H13C 4992   1.849   5.160   6.637  1.8753 -2.1270  0.6370
   63SAPC   C14 4993   1.722   5.186   6.413  0.9716  0.0590 -0.1886
   63SAPC  H14A 4994   1.654   5.185   6.329  0.7886  0.3200 -0.0451
   63SAPC  H14B 4995   1.754   5.283   6.448 -1.7434  0.4789  1.4261
   63SAPC  H14C 4996   1.811   5.133   6.382  0.9880 -0.9768  1.4935
   63SAPC   C15 4997   1.564   5.171   6.601 -0.2230  0.0176  0.4082
   63SAPC  H15A 4998   1.534   5.118   6.690 -0.6563 -1.1407 -0.4069
   63SAPC  H15B 4999   1.604   5.269   6.623 -0.4568  0.6444 -1.7431
   63SAPC  H15C 5000   1.477   5.183   6.538 -0.2745 -3.6746 -0.4046
   63SAPC   C11 5001   1.703   4.869   6.387 -0.2938 -0.7932  0.0409
   63SAPC  H11A 5002   1.734   4.925   6.297  0.7780 -2.2097 -0.5123
   63SAPC  H11B 5003   1.649   4.783   6.341 -2.1217 -0.0778  0.7281
   63SAPC     P 5004   1.823   4.718   6.557  0.2414  0.6621  0.1938
   63SAPC   O13 5005   1.838   4.589   6.480  0.2855  0.0685  0.1606
   63SAPC   O14 5006   1.925   4.745   6.665 -0.1024  0.0615  0.4342
   63SAPC   O12 5007   1.823   4.834   6.454  0.8132 -0.2470 -0.2109
   63SAPC   O11 5008   1.680   4.728   6.625 -0.8101 -0.2421 -0.1158
   63SAPC    C1 5009   1.606   4.608   6.646 -0.4867 -0.3001 -0.2436
   63SAPC    HA 5010   1.572   4.561   6.552 -1.1429  1.6110 -1.0081
   63SAPC    HB 5011   1.668   4.542   6.711  1.0201  1.2201 -0.0598
   63SAPC    C2 5012   1.472   4.643   6.713 -0.3464  0.1639 -0.3406
   63SAPC    HS 5013   1.409   4.711   6.651  1.4395  1.8862 -0.3428
   63SAPC   O21 5014   1.496   4.709   6.840 -0.2384  0.1899 -0.1310
   63SAPC   C21 5015   1.500   4.842   6.832  0.3059  0.4056 -0.3062
   63SAPC   O22 5016   1.472   4.909   6.740 -0.5999 -0.8089 -0.4280
   63SAPC   C22 5017   1.547   4.894   6.967 -0.1687  0.3070  0.0028
   63SAPC   H2R 5018   1.493   4.834   7.044  0.7585  0.2004  0.5742
   63SAPC   H2S 5019   1.653   4.864   6.976 -0.6268 -0.8307  2.4838
   63SAPC    C3 5020   1.390   4.512   6.744 -0.3495  0.1651  0.3340
   63SAPC    HX 5021   1.462   4.435   6.778  0.9310  0.4041 -1.6473
   63SAPC    HY 5022   1.348   4.464   6.653  1.7732 -0.6712 -0.2513
   63SAPC   O31 5023   1.292   4.530   6.845  0.3409 -0.1718  0.4635
   63SAPC   C31 5024   1.185   4.603   6.807 -0.6214  0.6502 -0.4275
   63SAPC   O32 5025   1.155   4.635   6.692  0.3930  0.8333 -0.0808
   63SAPC   C32 5026   1.113   4.654   6.929 -0.7884 -0.0334  0.4729
   63SAPC   H2X 5027   1.131   4.570   6.999  0.4353 -2.7977 -2.8202
   63SAPC   H2Y 5028   1.005   4.647   6.903 -0.7105 -0.8154  0.3069
   63SAPC   C23 5029   1.528   5.047   6.982  0.8441 -0.9971  0.2534
   63SAPC   H3R 5030   1.434   5.073   6.930  0.3249 -3.7408 -0.3715
   63SAPC   H3S 5031   1.609   5.103   6.930 -0.2783  0.7208  0.3084
   63SAPC   C24 5032   1.512   5.098   7.129 -0.5066  0.1316  0.9679
   63SAPC   H4R 5033   1.432   5.034   7.172 -1.2143  0.4106  0.1012
   63SAPC   H4S 5034   1.470   5.201   7.124  0.7615  0.6232 -0.9686
   63SAPC   C25 5035   1.645   5.101   7.205 -0.2167 -0.7784  0.3287
   63SAPC   H5R 5036   1.729   5.145   7.150  0.6324 -0.2519  1.9697
   63SAPC   C26 5037   1.662   5.052   7.330  0.1679 -0.3357  1.0285
   63SAPC   H6R 5038   1.760   5.049   7.380  0.8342 -1.8084 -0.2928
   63SAPC   C27 5039   1.556   4.978   7.416  0.5821  0.1155 -0.3395
   63SAPC   H7R 5040   1.603   4.905   7.485  1.5635  0.0464 -1.0577
   63SAPC   H7S 5041   1.483   4.919   7.357 -0.6391 -0.8477  2.0117
   63SAPC   C28 5042   1.475   5.076   7.492  0.5514  0.3846  0.1937
   63SAPC   H8R 5043   1.467   5.173   7.441  3.3169  0.8480  0.5051
   63SAPC   C29 5044   1.422   5.056   7.611 -0.1233 -0.4874  0.1135
   63SAPC   H9R 5045   1.380   5.144   7.663 -1.2120 -1.3437  0.7152
   63SAPC  C210 5046   1.429   4.940   7.706  0.2848  0.4195  0.0418
   63SAPC  H10R 5047   1.452   4.844   7.655  2.3691  0.9243 -0.0601
   63SAPC  H10S 5048   1.330   4.927   7.753  0.0970  1.3588 -0.0712
   63SAPC  C211 5049   1.534   4.975   7.812  0.1535  0.5702  0.0909
   63SAPC  H11R 5050   1.637   4.962   7.774  0.5120  2.0620  0.4902
   63SAPC  C212 5051   1.510   5.020   7.935  0.0936  0.5118  0.0902
   63SAPC  H12R 5052   1.592   5.043   8.004  0.9629  1.1742 -1.1174
   63SAPC  C213 5053   1.377   5.036   8.001 -0.1413  0.0175 -0.7706
   63SAPC  H13R 5054   1.398   5.019   8.109 -1.1699  0.3259 -0.5059
   63SAPC  H13S 5055   1.300   4.958   7.983 -0.7174  0.1817  0.7553
   63SAPC  C214 5056   1.315   5.172   7.974 -0.5250 -0.0348  0.2228
   63SAPC  H14R 5057   1.276   5.188   7.873  0.0049 -0.3804 -0.0426
   63SAPC  C215 5058   1.301   5.266   8.074  0.4058  0.3954 -0.5778
   63SAPC  H15R 5059   1.252   5.360   8.047  0.6159  0.9417  0.8491
   63SAPC  C216 5060   1.344   5.253   8.223 -0.1982  0.5187  0.0762
   63SAPC  H16R 5061   1.455   5.252   8.229 -0.0679  3.1498 -0.6325
   63SAPC  H16S 5062   1.313   5.157   8.269 -1.0690  0.4143 -0.6984
   63SAPC  C217 5063   1.306   5.383   8.303 -0.0103  0.0747  0.1646
   63SAPC  H17R 5064   1.197   5.383   8.321  0.1152 -0.0704  0.9709
   63SAPC  H17S 5065   1.335   5.466   8.235  0.1983  1.2339  1.6226
   63SAPC  C218 5066   1.381   5.402   8.435  0.4487  0.3388 -0.2665
   63SAPC  H18R 5067   1.379   5.510   8.460  0.1907  0.1194  0.6665
   63SAPC  H18S 5068   1.487   5.368   8.429 -0.1071 -2.3784  2.8686
   63SAPC  C219 5069   1.323   5.321   8.556 -0.1126  0.3122  0.0449
   63SAPC  H19R 5070   1.398   5.339   8.636  0.1253 -1.5886  0.2939
   63SAPC  H19S 5071   1.317   5.214   8.526 -0.1509  0.7471 -1.5500
   63SAPC  C220 5072   1.187   5.349   8.612  0.5761  0.2926  0.4480
   63SAPC  H20R 5073   1.114   5.335   8.530  0.1660  0.5270  0.7713
   63SAPC  H20S 5074   1.165   5.452   8.647 -1.9545  0.0350 -0.1986
   63SAPC  H20T 5075   1.154   5.287   8.698  0.4687  0.6847  0.6943
   63SAPC   C33 5076   1.152   4.799   6.959  0.4814 -0.2345 -0.1399
   63SAPC   H3X 5077   1.121   4.858   6.869 -3.4418 -0.4379  0.8752
   63SAPC   H3Y 5078   1.261   4.813   6.972  1.2830 -4.2479 -1.2651
   63SAPC   C34 5079   1.081   4.860   7.082 -0.1937  0.3269  0.5895
   63SAPC   H4X 5080   0.974   4.834   7.066 -0.0462 -1.1136  1.7392
   63SAPC   H4Y 5081   1.083   4.971   7.078 -2.0779  0.5664  3.4757
   63SAPC   C35 5082   1.133   4.796   7.213  0.6111  0.5660 -0.0070
   63SAPC   H5X 5083   1.236   4.817   7.247 -0.1863  0.4069  2.7493
   63SAPC   H5Y 5084   1.136   4.687   7.192  1.2863  1.0181 -2.6131
   63SAPC   C36 5085   1.035   4.816   7.324 -0.1558 -0.4245 -0.7771
   63SAPC   H6X 5086   1.061   4.752   7.411  1.2330  0.0042 -0.8556
   63SAPC   H6Y 5087   0.936   4.778   7.292 -1.2485  0.3496  1.4828
   63SAPC   C37 5088   1.023   4.966   7.360  0.5221 -0.1102  0.5571
   63SAPC   H7X 5089   0.985   5.009   7.265 -1.5412 -2.3555  0.2727
   63SAPC   H7Y 5090   1.130   4.996   7.368  0.7666 -1.0577  1.0050
   63SAPC   C38 5091   0.947   5.012   7.485  0.7479 -0.3862  0.9502
   63SAPC   H8X 5092   0.855   4.951   7.473  0.9951 -0.6491  0.3097
   63SAPC   H8Y 5093   0.927   5.120   7.469  0.5280 -0.7505 -1.8810
   63SAPC   C39 5094   1.016   4.976   7.612  0.0685 -0.4843 -0.3350
   63SAPC   H9X 5095   1.071   5.071   7.633  0.6985 -1.3223  2.0183
   63SAPC   H9Y 5096   1.089   4.893   7.602 -0.6413 -1.0553 -0.9520
   63SAPC  C310 5097   0.922   4.950   7.720  0.4191  0.0659  0.2950
   63SAPC  H10X 5098   0.891   4.843   7.718 -1.5257  0.5597  1.6018
   63SAPC  H10Y 5099   0.823   4.998   7.708  0.4707  0.2737  0.6636
   63SAPC  C311 5100   0.994   4.974   7.854 -0.2289  0.6762  0.4002
   63SAPC  H11X 5101   1.055   5.067   7.850  3.4016 -1.5329 -0.1499
   63SAPC  H11Y 5102   1.066   4.889   7.857  1.0630  1.5773 -2.0533
   63SAPC  C312 5103   0.911   4.977   7.974 -0.2325  0.7113 -0.1339
   63SAPC  H12X 5104   0.878   4.873   7.997  2.7760  0.1573  2.5183
   63SAPC  H12Y 5105   0.825   5.046   7.961  0.7110  1.9808  0.1944
   63SAPC  C313 5106   0.979   5.014   8.101  0.5787 -0.1414 -0.4032
   63SAPC  H13X 5107   1.027   5.114   8.099 -1.6947  1.1676  2.6692
   63SAPC  H13Y 5108   1.062   4.942   8.118  0.4231 -0.5216 -1.2047
   63SAPC  C314 5109   0.886   5.009   8.218  0.0174  0.9586  0.2305
   63SAPC  H14X 5110   0.834   4.912   8.227 -1.8505  1.5634 -2.4925
   63SAPC  H14Y 5111   0.802   5.081   8.204  1.9386  3.2401 -0.2269
   63SAPC  C315 5112   0.954   5.044   8.348 -1.5458  0.4649  0.1063
   63SAPC  H15X 5113   0.973   5.152   8.368  0.0940  0.1280  0.5583
   63SAPC  H15Y 5114   1.060   5.009   8.349 -0.6701  2.8230 -1.3613
   63SAPC  C316 5115   0.876   5.002   8.477 -0.6901  0.1941 -0.4422
   63SAPC  H16X 5116   0.938   5.041   8.560 -1.8289 -1.6378  1.3504
   63SAPC  H16Y 5117   0.865   4.892   8.471  0.3266  0.0137  0.7570
   63SAPC  C317 5118   0.732   5.062   8.485 -0.1175  0.0601 -0.8287
   63SAPC  H17X 5119   0.670   5.021   8.402 -1.6239 -1.9774  1.1974
   63SAPC  H17Y 5120   0.721   5.173   8.475 -1.3566  0.0313 -0.0227
   63SAPC  C318 5121   0.674   5.011   8.611  0.2885  0.8556 -0.0393
   63SAPC  H18X 5122   0.719   5.049   8.705 -1.7223  0.3984  1.1861
   63SAPC  H18Y 5123   0.686   4.901   8.611 -1.9247  0.5431  1.7260
   63SAPC  H18Z 5124   0.565   5.031   8.621  0.1037 -0.7943  1.7953
   64SAPC     N 5125   4.627   4.951   6.080 -0.7299 -0.5053  0.3695
   64SAPC   C12 5126   4.474   4.948   6.059 -0.3756  0.8196 -0.2152
   64SAPC  H12A 5127   4.426   4.879   6.126 -1.1030  1.3903 -0.1276
   64SAPC  H12B 5128   4.453   4.920   5.957 -0.2709  2.0816 -0.6078
   64SAPC   C13 5129   4.687   4.827   6.023  0.1173  0.7310  0.3191
   64SAPC  H13A 5130   4.675   4.846   5.917  0.1231  1.2862  0.4128
   64SAPC  H13B 5131   4.795   4.824   6.029  0.2833  1.0074 -1.6822
   64SAPC  H13C 5132   4.639   4.734   6.047  0.1026  1.0687  1.7095
   64SAPC   C14 5133   4.685   5.072   6.019  0.5600 -0.2894  0.4186
   64SAPC  H14A 5134   4.792   5.065   6.028  0.7370 -4.3787 -2.1922
   64SAPC  H14B 5135   4.666   5.093   5.915 -0.3552  1.3686  0.8811
   64SAPC  H14C 5136   4.659   5.156   6.083 -1.0712 -1.4991  1.4235
   64SAPC   C15 5137   4.659   4.952   6.226 -0.0871 -0.0496 -1.2319
   64SAPC  H15A 5138   4.618   5.040   6.274 -0.0585  0.5226 -2.2394
   64SAPC  H15B 5139   4.612   4.863   6.266  2.0684 -1.0109 -0.6745
   64SAPC  H15C 5140   4.766   4.950   6.238 -0.2538 -0.8613  0.4299
   64SAPC   C11 5141   4.393   5.072   6.088  0.1363 -0.2736 -0.2077
   64SAPC  H11A 5142   4.286   5.065   6.060  0.0746 -0.8600  0.1529
   64SAPC  H11B 5143   4.439   5.140   6.013  0.8952 -1.3297 -0.7222
   64SAPC     P 5144   4.315   5.056   6.337 -0.3840 -0.2467 -0.2652
   64SAPC   O13 5145   4.349   5.129   6.465 -0.0795 -0.2349  0.9125
   64SAPC   O14 5146   4.176   5.064   6.286  0.2244 -0.1530 -0.5025
   64SAPC   O12 5147   4.413   5.112   6.227  0.2427  0.1930  0.0916
   64SAPC   O11 5148   4.341   4.901   6.349 -0.5354 -0.5653 -0.0408
   64SAPC    C1 5149   4.333   4.835   6.475  0.8951  0.1616 -0.0743
   64SAPC    HA 5150   4.367   4.730   6.464 -0.5981 -0.7174  2.8450
   64SAPC    HB 5151   4.394   4.880   6.557 -0.6388  3.2588 -0.4921
   64SAPC    C2 5152   4.194   4.816   6.539 -0.0728  0.2652  0.1604
   64SAPC    HS 5153   4.156   4.917   6.568  0.8603  0.8816 -0.7111
   64SAPC   O21 5154   4.211   4.730   6.651 -0.4327  0.0976 -0.4629
   64SAPC   C21 5155   4.256   4.780   6.763  0.2474 -0.2895  0.4188
   64SAPC   O22 5156   4.273   4.899   6.787 -0.8020 -0.0411  0.0820
   64SAPC   C22 5157   4.302   4.662   6.854 -0.7540  0.3508 -0.3683
   64SAPC   H2R 5158   4.309   4.566   6.798  3.8527 -0.9030  1.8925
   64SAPC   H2S 5159   4.402   4.676   6.899  0.3294 -0.0154 -2.5466
   64SAPC    C3 5160   4.084   4.740   6.450  0.5830 -0.5330 -0.5518
   64SAPC    HX 5161   4.133   4.650   6.407  2.1597  0.1793 -0.3365
   64SAPC    HY 5162   4.048   4.793   6.360 -0.0706  0.5829  0.3415
   64SAPC   O31 5163   3.974   4.688   6.531  0.2819 -0.0854 -0.3917
   64SAPC   C31 5164   3.878   4.775   6.556 -0.1803 -0.4259 -1.2232
   64SAPC   O32 5165   3.876   4.891   6.513 -0.1598  0.0389  0.1314
   64SAPC   C32 5166   3.760   4.706   6.618 -1.0569 -0.8571 -0.6464
   64SAPC   H2X 5167   3.809   4.621   6.670  0.3008 -1.3521 -2.6024
   64SAPC   H2Y 5168   3.690   4.676   6.537 -1.8731  1.4846 -0.8634
   64SAPC   C23 5169   4.200   4.641   6.977  0.2543  0.2951  1.0738
   64SAPC   H3R 5170   4.232   4.551   7.033 -0.1094  0.0254  0.8512
   64SAPC   H3S 5171   4.096   4.633   6.937  1.1663  1.1555 -1.6391
   64SAPC   C24 5172   4.194   4.759   7.077 -0.0392  0.0992  0.5490
   64SAPC   H4R 5173   4.111   4.824   7.041 -0.3817 -0.6400 -0.0199
   64SAPC   H4S 5174   4.288   4.817   7.073 -0.1543  0.3023  0.7692
   64SAPC   C25 5175   4.146   4.723   7.209  0.1383 -0.1297 -0.0828
   64SAPC   H5R 5176   4.067   4.646   7.202 -3.5658  3.4184 -2.4352
   64SAPC   C26 5177   4.187   4.777   7.326  0.2311 -0.2017 -0.1318
   64SAPC   H6R 5178   4.152   4.733   7.421 -2.4676  0.2430 -0.8474
   64SAPC   C27 5179   4.286   4.891   7.340  0.9238 -0.0633  0.5196
   64SAPC   H7R 5180   4.332   4.919   7.243  0.6645 -0.9017  0.1467
   64SAPC   H7S 5181   4.371   4.853   7.401 -0.1662 -0.9817  1.5211
   64SAPC   C28 5182   4.204   5.001   7.401  0.6195  0.3649 -0.3204
   64SAPC   H8R 5183   4.161   5.078   7.335 -0.7041  0.3121  0.4526
   64SAPC   C29 5184   4.172   5.009   7.532  0.0200 -0.5595  0.2547
   64SAPC   H9R 5185   4.114   5.096   7.565 -0.9548 -1.6204  1.4761
   64SAPC  C210 5186   4.218   4.916   7.645  0.3241  0.3605 -0.1883
   64SAPC  H10R 5187   4.223   4.808   7.617  0.4958 -0.0649  1.4041
   64SAPC  H10S 5188   4.133   4.911   7.717  1.6841 -1.8462  1.3902
   64SAPC  C211 5189   4.352   4.958   7.702  0.4332 -0.4170  0.4148
   64SAPC  H11R 5190   4.446   4.914   7.668  0.7593  0.7171 -0.2099
   64SAPC  C212 5191   4.363   5.049   7.798  0.0519 -0.3178 -0.3113
   64SAPC  H12R 5192   4.459   5.072   7.847  0.2236  0.9026 -1.1775
   64SAPC  C213 5193   4.252   5.116   7.864  0.7586  0.2593 -0.0443
   64SAPC  H13R 5194   4.247   5.089   7.971  0.1547  1.1163  0.1518
   64SAPC  H13S 5195   4.155   5.074   7.830 -0.0162  2.3822 -0.6150
   64SAPC  C214 5196   4.240   5.257   7.834  0.0802 -0.2890 -0.0690
   64SAPC  H14R 5197   4.298   5.292   7.747 -0.4762 -1.0913 -0.7742
   64SAPC  C215 5198   4.182   5.355   7.912 -0.3299 -0.3773  0.4302
   64SAPC  H15R 5199   4.177   5.458   7.874 -0.9210 -0.9751 -1.2030
   64SAPC  C216 5200   4.103   5.349   8.041  0.3373  0.5674 -0.1973
   64SAPC  H16R 5201   4.112   5.440   8.104 -2.0184  0.8755 -0.2266
   64SAPC  H16S 5202   4.136   5.264   8.105 -2.5313 -0.0549  0.6061
   64SAPC  C217 5203   3.949   5.337   8.002  0.0102  0.0006 -0.2503
   64SAPC  H17R 5204   3.936   5.239   7.951  1.1887 -0.5739  0.5120
   64SAPC  H17S 5205   3.942   5.398   7.909 -0.2519  0.0017 -0.2300
   64SAPC  C218 5206   3.852   5.367   8.111 -0.0738 -0.3396 -1.1182
   64SAPC  H18R 5207   3.752   5.361   8.061 -1.1237  1.2101  0.6692
   64SAPC  H18S 5208   3.861   5.469   8.153 -0.9427 -0.8962  0.5043
   64SAPC  C219 5209   3.851   5.264   8.226 -1.1834 -0.5757  0.6200
   64SAPC  H19R 5210   3.954   5.257   8.266  0.0889  4.5507 -1.0386
   64SAPC  H19S 5211   3.831   5.159   8.194 -2.0077 -0.2000 -0.1546
   64SAPC  C220 5212   3.761   5.309   8.341 -0.1160 -0.2655 -0.2112
   64SAPC  H20R 5213   3.789   5.253   8.433 -2.6728  0.0802  0.8631
   64SAPC  H20S 5214   3.654   5.293   8.317  0.0656  0.7439 -1.8388
   64SAPC  H20T 5215   3.774   5.416   8.366  0.5258  0.0174 -1.6742
   64SAPC   C33 5216   3.683   4.795   6.712  0.3024  0.4302  0.1141
   64SAPC   H3X 5217   3.592   4.747   6.752 -0.6610 -0.9520 -3.4045
   64SAPC   H3Y 5218   3.631   4.879   6.662 -2.1020  0.1603  2.0107
   64SAPC   C34 5219   3.775   4.861   6.824 -0.0871  0.5526  0.1057
   64SAPC   H4X 5220   3.839   4.939   6.777  0.0947  1.0704  1.1974
   64SAPC   H4Y 5221   3.828   4.775   6.870  0.0310  0.3218 -0.4540
   64SAPC   C35 5222   3.691   4.929   6.929 -0.7315  0.1981 -0.0397
   64SAPC   H5X 5223   3.634   4.852   6.985  1.3925 -0.7898  0.8844
   64SAPC   H5Y 5224   3.610   4.995   6.891 -1.2130  0.1628  0.9035
   64SAPC   C36 5225   3.764   5.012   7.036 -0.6381 -0.7677 -0.7507
   64SAPC   H6X 5226   3.694   5.081   7.088  0.3483  0.5355 -1.1114
   64SAPC   H6Y 5227   3.834   5.077   6.979 -1.3653  1.3239  0.6192
   64SAPC   C37 5228   3.839   4.916   7.136 -0.3865  0.3596  0.2052
   64SAPC   H7X 5229   3.925   4.972   7.178 -0.8704  0.0577  1.6530
   64SAPC   H7Y 5230   3.888   4.834   7.078  2.0818 -1.3173  4.2681
   64SAPC   C38 5231   3.748   4.860   7.237 -0.4808  0.1073 -0.7999
   64SAPC   H8X 5232   3.782   4.762   7.275 -0.9782  1.1740  2.7841
   64SAPC   H8Y 5233   3.651   4.834   7.189  0.0601 -1.5978 -1.0446
   64SAPC   C39 5234   3.733   4.959   7.354 -0.0257 -0.0893 -0.1274
   64SAPC   H9X 5235   3.662   5.034   7.315 -0.6631 -0.0056  1.1423
   64SAPC   H9Y 5236   3.835   4.995   7.380 -0.2989  2.0262 -1.7422
   64SAPC  C310 5237   3.668   4.897   7.482 -0.2590 -0.1094  0.3452
   64SAPC  H10X 5238   3.732   4.815   7.520 -0.2132 -0.3663 -0.2673
   64SAPC  H10Y 5239   3.568   4.862   7.448 -0.1439 -0.0737 -0.0358
   64SAPC  C311 5240   3.631   4.986   7.605  0.2018  0.1352  0.1253
   64SAPC  H11X 5241   3.579   4.922   7.679  3.3315 -0.0687  2.3493
   64SAPC  H11Y 5242   3.564   5.061   7.558 -0.2380 -0.6689 -0.5538
   64SAPC  C312 5243   3.747   5.066   7.667 -0.6007 -0.0984 -1.2211
   64SAPC  H12X 5244   3.703   5.154   7.720 -0.4647 -1.9154  2.2005
   64SAPC  H12Y 5245   3.806   5.115   7.587 -0.8907 -0.0521 -1.4073
   64SAPC  C313 5246   3.844   4.992   7.769 -0.3129  0.3850  0.8688
   64SAPC  H13X 5247   3.940   5.047   7.772 -0.3504  0.4409  1.0964
   64SAPC  H13Y 5248   3.879   4.896   7.724  2.8415  1.0855  1.6117
   64SAPC  C314 5249   3.790   4.941   7.909 -0.0926 -0.0990  0.5923
   64SAPC  H14X 5250   3.742   4.846   7.878  0.8144  0.6130 -3.7394
   64SAPC  H14Y 5251   3.715   5.013   7.948 -0.8911 -0.8292  0.4305
   64SAPC  C315 5252   3.896   4.925   8.015 -0.2565  0.3559 -0.3431
   64SAPC  H15X 5253   3.910   5.031   8.046  0.9005  0.1780 -0.2079
   64SAPC  H15Y 5254   3.991   4.878   7.982  0.0077 -0.1549  1.0892
   64SAPC  C316 5255   3.838   4.850   8.138  1.2019 -0.5420  1.0060
   64SAPC  H16X 5256   3.791   4.757   8.099 -0.3804 -0.3527  2.3754
   64SAPC  H16Y 5257   3.766   4.921   8.183  1.7739  0.7650 -0.0757
   64SAPC  C317 5258   3.942   4.818   8.243 -0.7553 -0.6063  0.2456
   64SAPC  H17X 5259   4.038   4.789   8.196  0.4794  0.1613  2.1634
   64SAPC  H17Y 5260   3.902   4.732   8.300 -1.7547  0.3657  1.0620
   64SAPC  C318 5261   3.964   4.914   8.363 -0.1078 -1.0808  0.4822
   64SAPC  H18X 5262   3.874   4.965   8.405  0.2589  1.1616 -1.2382
   64SAPC  H18Y 5263   4.026   4.999   8.328  1.0520 -1.9182  0.4563
   64SAPC  H18Z 5264   4.034   4.881   8.442  0.1642  1.4216  1.4030
   65SAPC     N 5265   3.106   0.118   6.086 -0.2341  0.1077 -1.0329
   65SAPC   C12 5266   3.200   0.178   6.178  0.3979 -0.3094 -1.1460
   65SAPC  H12A 5267   3.210   0.123   6.270  1.4067  2.2223  0.3622
   65SAPC  H12B 5268   3.163   0.272   6.216 -3.8976 -2.1747 -0.1663
   65SAPC   C13 5269   3.058   0.220   5.980  0.4281  0.1178 -0.1881
   65SAPC  H13A 5270   3.129   0.237   5.901  0.4241  1.4544  0.0774
   65SAPC  H13B 5271   2.971   0.184   5.926  0.5244 -1.2913  0.5518
   65SAPC  H13C 5272   3.041   0.314   6.031  1.2785 -0.2954  0.9036
   65SAPC   C14 5273   3.166   0.003   6.014 -0.4319 -0.2459 -0.2868
   65SAPC  H14A 5274   3.194  -0.073   6.086  1.3442  1.2019  0.6384
   65SAPC  H14B 5275   3.101  -0.041   5.940 -0.6982 -0.0401 -0.1731
   65SAPC  H14C 5276   3.261   0.025   5.966  0.4890 -0.3787  1.3999
   65SAPC   C15 5277   2.982   0.063   6.156 -0.1753 -0.8080  0.2541
   65SAPC  H15A 5278   2.937   0.135   6.222 -1.6205 -0.9057 -0.5991
   65SAPC  H15B 5279   2.912   0.027   6.082 -1.2484  0.8636  0.4250
   65SAPC  H15C 5280   3.026  -0.014   6.219  3.1261 -1.3052 -2.3468
   65SAPC   C11 5281   3.341   0.209   6.132 -0.2083 -0.1138 -0.7636
   65SAPC  H11A 5282   3.370   0.287   6.205 -0.6876  0.0582 -0.7515
   65SAPC  H11B 5283   3.338   0.260   6.033  0.9856  1.5162 -0.0061
   65SAPC     P 5284   3.459  -0.006   6.239 -0.1207  0.0926 -0.3782
   65SAPC   O13 5285   3.345  -0.052   6.318  0.5360 -0.3775 -0.5421
   65SAPC   O14 5286   3.532  -0.112   6.172  0.1782  0.0538  0.4946
   65SAPC   O12 5287   3.427   0.096   6.125 -0.5396 -0.2895  0.1218
   65SAPC   O11 5288   3.561   0.072   6.331 -0.1349 -0.4161  0.7159
   65SAPC    C1 5289   3.531   0.073   6.470  0.2855 -0.0099  0.3766
   65SAPC    HA 5290   3.470  -0.013   6.506 -2.2306  2.0071  1.2346
   65SAPC    HB 5291   3.624   0.070   6.531 -0.4597  0.4614  1.5767
   65SAPC    C2 5292   3.459   0.199   6.531  0.0386 -0.0041  0.2242
   65SAPC    HS 5293   3.363   0.217   6.478 -0.9034  1.2812  2.2387
   65SAPC   O21 5294   3.543   0.315   6.517  0.2324 -0.5272  0.2925
   65SAPC   C21 5295   3.488   0.435   6.541  0.2038  0.8051 -0.5728
   65SAPC   O22 5296   3.368   0.451   6.575  0.5283  0.2701 -0.2177
   65SAPC   C22 5297   3.586   0.552   6.542  0.1998  0.6697 -0.9266
   65SAPC   H2R 5298   3.558   0.619   6.457  0.3512  0.9314 -0.7695
   65SAPC   H2S 5299   3.552   0.602   6.635 -0.6100 -0.7499 -0.4330
   65SAPC    C3 5300   3.419   0.181   6.683  0.2545 -0.1285  0.3129
   65SAPC    HX 5301   3.396   0.073   6.696 -0.1052  0.1580  2.4510
   65SAPC    HY 5302   3.324   0.234   6.707 -0.2269 -1.5366  1.6412
   65SAPC   O31 5303   3.516   0.240   6.769  0.6871 -0.2536  0.4508
   65SAPC   C31 5304   3.589   0.148   6.837 -1.7240  0.5446  1.2091
   65SAPC   O32 5305   3.578   0.024   6.816 -0.3120 -0.1467 -0.6034
   65SAPC   C32 5306   3.699   0.209   6.928  0.5171 -0.1978 -0.5022
   65SAPC   H2X 5307   3.724   0.314   6.899 -0.9196  0.4828  0.5527
   65SAPC   H2Y 5308   3.782   0.136   6.918 -1.4937 -2.3940 -2.4068
   65SAPC   C23 5309   3.731   0.499   6.543 -0.0919 -0.1448 -0.1986
   65SAPC   H3R 5310   3.738   0.435   6.451  0.5138 -0.3503 -0.0142
   65SAPC   H3S 5311   3.744   0.426   6.626  1.1522 -0.5612 -0.7264
   65SAPC   C24 5312   3.837   0.612   6.542 -0.3741 -0.2519  0.0584
   65SAPC   H4R 5313   3.817   0.665   6.447  1.4456  1.3253  0.4960
   65SAPC   H4S 5314   3.940   0.580   6.515 -0.0685  1.2994 -0.7103
   65SAPC   C25 5315   3.844   0.706   6.661 -0.1275 -0.4125 -0.0092
   65SAPC   H5R 5316   3.810   0.806   6.630 -0.8758 -0.3834  0.8916
   65SAPC   C26 5317   3.877   0.671   6.788  0.3025  0.2286 -0.4705
   65SAPC   H6R 5318   3.880   0.744   6.870  0.5362 -2.4995  2.1322
   65SAPC   C27 5319   3.934   0.540   6.822  0.7404  0.2944  0.0053
   65SAPC   H7R 5320   3.940   0.475   6.732 -0.8052 -0.6731  0.5554
   65SAPC   H7S 5321   3.859   0.495   6.891 -0.3693  0.6429 -0.9370
   65SAPC   C28 5322   4.066   0.558   6.891  0.1049 -0.2606  0.0552
   65SAPC   H8R 5323   4.133   0.618   6.827  1.0306 -2.0279 -0.6877
   65SAPC   C29 5324   4.110   0.493   6.998  0.1459  0.2100 -0.2258
   65SAPC   H9R 5325   4.211   0.522   7.030 -0.0831 -0.6121  1.3270
   65SAPC  C210 5326   4.034   0.386   7.081 -0.8522  0.2072  0.0004
   65SAPC  H10R 5327   3.930   0.414   7.106 -0.8313 -0.4541  0.9155
   65SAPC  H10S 5328   4.071   0.380   7.186 -2.4408  1.1905  0.6487
   65SAPC  C211 5329   4.049   0.248   7.023  0.3042 -0.0600 -0.1481
   65SAPC  H11R 5330   4.061   0.232   6.915  0.3076 -0.6917 -0.0609
   65SAPC  C212 5331   4.048   0.132   7.091  0.0515  0.4528  0.1542
   65SAPC  H12R 5332   4.058   0.040   7.031  1.5771  1.0105 -0.4822
   65SAPC  C213 5333   4.042   0.112   7.240  0.0053 -0.5266  1.2141
   65SAPC  H13R 5334   4.125   0.171   7.283  0.1327  0.6275 -0.5335
   65SAPC  H13S 5335   4.061   0.003   7.247 -0.1270 -0.8176 -1.8759
   65SAPC  C214 5336   3.911   0.145   7.306  0.3307 -0.7067 -1.2223
   65SAPC  H14R 5337   3.821   0.104   7.258 -0.2602  0.1067 -0.8224
   65SAPC  C215 5338   3.891   0.220   7.415  0.7666 -0.0235  0.8237
   65SAPC  H15R 5339   3.788   0.225   7.452  0.4430  1.5745 -0.2039
   65SAPC  C216 5340   3.991   0.282   7.504  0.3138 -0.5673  0.0795
   65SAPC  H16R 5341   3.998   0.392   7.497 -0.8537 -0.5667 -1.6154
   65SAPC  H16S 5342   4.085   0.227   7.483  0.2318 -0.9583  0.7059
   65SAPC  C217 5343   3.949   0.245   7.654 -0.8626 -0.1646  0.0025
   65SAPC  H17R 5344   3.924   0.139   7.674 -2.8023  0.1005 -0.7297
   65SAPC  H17S 5345   3.854   0.296   7.681 -0.8679 -1.0604  1.8371
   65SAPC  C218 5346   4.050   0.298   7.764 -0.6663  0.8266 -0.1748
   65SAPC  H18R 5347   4.023   0.406   7.770  0.7026  1.1171  1.3787
   65SAPC  H18S 5348   4.156   0.299   7.733  0.0244  1.2206  2.0545
   65SAPC  C219 5349   4.034   0.235   7.900  0.0468  0.0636  0.0550
   65SAPC  H19R 5350   4.040   0.124   7.894  0.3048  0.0959 -0.3068
   65SAPC  H19S 5351   3.935   0.250   7.949 -0.5979 -3.0887 -0.0768
   65SAPC  C220 5352   4.136   0.296   7.998  0.1360  0.2686  0.1661
   65SAPC  H20R 5353   4.133   0.243   8.095 -0.7683 -0.3671 -0.1974
   65SAPC  H20S 5354   4.118   0.405   8.013 -2.3271 -0.2548  1.5804
   65SAPC  H20T 5355   4.238   0.276   7.959 -0.9050  1.4636 -3.5990
   65SAPC   C33 5356   3.668   0.228   7.083 -0.3275 -1.4195 -1.0665
   65SAPC   H3X 5357   3.754   0.284   7.125 -0.9581  0.5240 -2.1930
   65SAPC   H3Y 5358   3.661   0.133   7.140  2.7234 -1.0276  0.1409
   65SAPC   C34 5359   3.549   0.317   7.112  1.0870  0.3233  0.4641
   65SAPC   H4X 5360   3.455   0.263   7.088  0.4475  0.6503  2.0800
   65SAPC   H4Y 5361   3.554   0.405   7.044  0.6987  1.1314  1.4562
   65SAPC   C35 5362   3.525   0.362   7.256  0.2192  0.1890 -0.8217
   65SAPC   H5X 5363   3.605   0.430   7.293  0.6023 -0.8082  0.2304
   65SAPC   H5Y 5364   3.530   0.274   7.323  1.7150 -1.3967 -2.9066
   65SAPC   C36 5365   3.386   0.431   7.283  0.1807  0.3805  0.1752
   65SAPC   H6X 5366   3.365   0.414   7.391 -2.3396 -0.1044 -0.3312
   65SAPC   H6Y 5367   3.299   0.381   7.236  0.4170 -0.3141  0.4589
   65SAPC   C37 5368   3.376   0.587   7.266  0.0630  1.1400 -0.4823
   65SAPC   H7X 5369   3.424   0.601   7.166  1.0117 -1.5577 -0.4951
   65SAPC   H7Y 5370   3.449   0.635   7.335  0.1942  0.0018  0.1992
   65SAPC   C38 5371   3.242   0.651   7.278 -0.0051  0.4182 -0.0173
   65SAPC   H8X 5372   3.169   0.611   7.204 -0.7639 -0.3030  1.0729
   65SAPC   H8Y 5373   3.257   0.758   7.253 -0.2023 -0.1135 -2.6442
   65SAPC   C39 5374   3.176   0.636   7.415 -0.1825  0.1067  0.1270
   65SAPC   H9X 5375   3.160   0.528   7.431 -0.5584  0.2554  0.7832
   65SAPC   H9Y 5376   3.080   0.690   7.423  0.2836  1.4681 -2.4933
   65SAPC  C310 5377   3.262   0.671   7.540  0.2045  0.0520 -0.2946
   65SAPC  H10X 5378   3.298   0.773   7.519  1.8249 -0.6402 -1.0653
   65SAPC  H10Y 5379   3.346   0.598   7.553 -1.8299 -2.5283 -0.7527
   65SAPC  C311 5380   3.196   0.685   7.681  0.9466 -0.1639  0.2936
   65SAPC  H11X 5381   3.112   0.612   7.687 -1.8693  2.8525  0.0725
   65SAPC  H11Y 5382   3.146   0.784   7.689  0.4941 -0.4395  0.9706
   65SAPC  C312 5383   3.288   0.671   7.803  0.3648 -0.2554  0.2346
   65SAPC  H12X 5384   3.359   0.756   7.813 -3.0442  2.7534  1.3443
   65SAPC  H12Y 5385   3.353   0.582   7.795  1.8266  0.7209  0.8814
   65SAPC  C313 5386   3.209   0.677   7.935  0.6104  0.4977 -0.7356
   65SAPC  H13X 5387   3.125   0.606   7.936  1.2806 -0.3101 -0.8305
   65SAPC  H13Y 5388   3.164   0.776   7.956 -1.6976 -0.6670  0.0904
   65SAPC  C314 5389   3.302   0.636   8.054  0.2954  0.3922  0.1549
   65SAPC  H14X 5390   3.410   0.655   8.034  0.2657  0.9314  0.4896
   65SAPC  H14Y 5391   3.304   0.526   8.062  1.8737  0.4585  1.1667
   65SAPC  C315 5392   3.254   0.686   8.191  0.6618  0.1359  0.2615
   65SAPC  H15X 5393   3.145   0.668   8.204  0.6953 -0.6831 -0.5461
   65SAPC  H15Y 5394   3.266   0.797   8.194  1.5774  0.0505 -0.1302
   65SAPC  C316 5395   3.322   0.623   8.311 -0.6091  0.5946 -0.7054
   65SAPC  H16X 5396   3.430   0.620   8.286 -0.5780 -2.4127 -0.5604
   65SAPC  H16Y 5397   3.288   0.517   8.314  0.7183  0.1255 -1.3919
   65SAPC  C317 5398   3.300   0.695   8.450 -0.8567 -0.1674  0.3076
   65SAPC  H17X 5399   3.360   0.789   8.450 -0.6001 -0.3123 -0.8729
   65SAPC  H17Y 5400   3.339   0.617   8.518  0.2531  0.3627  0.2968
   65SAPC  C318 5401   3.153   0.725   8.474  0.5739 -0.4484  0.1961
   65SAPC  H18X 5402   3.130   0.786   8.384 -0.1495 -1.7208 -0.5169
   65SAPC  H18Y 5403   3.136   0.775   8.572 -0.3295  0.5672 -0.4614
   65SAPC  H18Z 5404   3.097   0.629   8.474  3.9348 -2.5713  0.8522
   66SAPC     N 5405   0.868   6.186   6.280 -0.3267 -0.1047 -0.0076
   66SAPC   C12 5406   0.967   6.301   6.312 -0.0010 -0.6115 -0.2154
   66SAPC  H12A 5407   1.007   6.290   6.412  0.3698 -0.5301 -0.3526
   66SAPC  H12B 5408   0.911   6.393   6.313  1.0488  0.0668 -1.1797
   66SAPC   C13 5409   0.823   6.178   6.132 -0.7460 -0.3985  0.3605
   66SAPC  H13A 5410   0.899   6.146   6.063 -1.6124  1.4785 -1.5855
   66SAPC  H13B 5411   0.741   6.108   6.120 -1.4478  0.3822  0.5259
   66SAPC  H13C 5412   0.784   6.275   6.105 -1.1532 -0.2419  1.4652
   66SAPC   C14 5413   0.936   6.059   6.313 -0.4824  0.1789  0.2969
   66SAPC  H14A 5414   1.025   6.039   6.256  0.9727  0.5355  2.3268
   66SAPC  H14B 5415   0.983   6.063   6.410 -0.4210  0.5842  0.2504
   66SAPC  H14C 5416   0.871   5.974   6.301  0.8239 -0.6556 -1.0799
   66SAPC   C15 5417   0.748   6.209   6.372 -0.5540  0.1861  0.8671
   66SAPC  H15A 5418   0.772   6.217   6.477 -1.1566 -0.1225  1.0316
   66SAPC  H15B 5419   0.695   6.298   6.341 -2.0358 -1.0682 -0.3654
   66SAPC  H15C 5420   0.678   6.128   6.355  3.3807 -3.3813 -0.2523
   66SAPC   C11 5421   1.085   6.323   6.213 -0.1489 -0.1457 -0.1099
   66SAPC  H11A 5422   1.152   6.234   6.209 -0.4349 -0.3180 -2.3238
   66SAPC  H11B 5423   1.151   6.403   6.254  0.0240 -0.6926  0.7047
   66SAPC     P 5424   0.985   6.495   6.037 -0.1965 -0.3002 -0.1101
   66SAPC   O13 5425   1.090   6.596   6.026  0.3557 -0.0824 -0.5303
   66SAPC   O14 5426   0.916   6.477   5.913  0.1576 -0.6699  0.1775
   66SAPC   O12 5427   1.044   6.356   6.075  0.3563 -0.2594 -0.5686
   66SAPC   O11 5428   0.884   6.534   6.143  0.1625  0.0970  0.4638
   66SAPC    C1 5429   0.819   6.664   6.136 -0.2741 -0.5641  0.7910
   66SAPC    HA 5430   0.880   6.755   6.153 -2.5044  1.1796 -0.1648
   66SAPC    HB 5431   0.774   6.680   6.036 -0.6998 -1.1716  0.8821
   66SAPC    C2 5432   0.705   6.672   6.244  0.1682 -0.3836  0.5841
   66SAPC    HS 5433   0.662   6.775   6.243  0.3429 -0.3080  0.7607
   66SAPC   O21 5434   0.755   6.635   6.368 -0.3502 -0.0420 -0.6535
   66SAPC   C21 5435   0.852   6.719   6.414 -0.9872  0.7078  0.2498
   66SAPC   O22 5436   0.883   6.830   6.373  0.4743  0.3263  0.2800
   66SAPC   C22 5437   0.943   6.642   6.519 -0.0254 -0.9453  0.3711
   66SAPC   H2R 5438   0.930   6.533   6.508 -1.4529 -0.8528  0.9071
   66SAPC   H2S 5439   1.050   6.661   6.493 -0.2852 -0.0506 -0.1004
   66SAPC    C3 5440   0.584   6.579   6.215  0.0274  0.0695  0.0311
   66SAPC    HX 5441   0.626   6.477   6.207  0.9610  0.5077 -0.7890
   66SAPC    HY 5442   0.537   6.602   6.117 -1.7591  0.4005  0.9207
   66SAPC   O31 5443   0.477   6.604   6.313 -0.6886 -0.4832  0.0660
   66SAPC   C31 5444   0.480   6.530   6.426  0.8025 -0.3116 -0.0006
   66SAPC   O32 5445   0.540   6.426   6.441 -0.9387 -0.6874 -0.3223
   66SAPC   C32 5446   0.369   6.573   6.523  0.1368 -0.5276  0.4466
   66SAPC   H2X 5447   0.277   6.533   6.475  2.1337 -0.8385 -3.5709
   66SAPC   H2Y 5448   0.357   6.683   6.532 -1.2868 -0.5128 -1.0880
   66SAPC   C23 5449   0.920   6.671   6.666  0.0867  0.4012 -0.9989
   66SAPC   H3R 5450   0.819   6.631   6.686  0.8704 -1.4782 -0.5520
   66SAPC   H3S 5451   0.924   6.778   6.696  0.4368  0.3135 -0.7202
   66SAPC   C24 5452   1.026   6.603   6.752 -0.4720 -0.3808 -0.6734
   66SAPC   H4R 5453   1.121   6.659   6.736  0.4355 -1.0331  2.0082
   66SAPC   H4S 5454   1.041   6.502   6.709  0.2401  0.0317 -1.4429
   66SAPC   C25 5455   1.012   6.600   6.904  0.5165  0.3635  0.5291
   66SAPC   H5R 5456   1.036   6.697   6.950 -0.7089  1.1013 -0.3093
   66SAPC   C26 5457   0.961   6.496   6.972 -0.3003 -1.3427 -0.3622
   66SAPC   H6R 5458   0.946   6.511   7.080  2.3994 -1.8621  0.1574
   66SAPC   C27 5459   0.915   6.361   6.921 -1.1627 -0.8216 -0.0650
   66SAPC   H7R 5460   0.909   6.361   6.810 -4.1749  0.3783  0.0079
   66SAPC   H7S 5461   0.808   6.348   6.949 -1.6049  0.2895 -1.1189
   66SAPC   C28 5462   1.007   6.251   6.964  1.1735 -0.5987 -0.0168
   66SAPC   H8R 5463   1.096   6.232   6.903  0.1567 -0.1325 -1.6909
   66SAPC   C29 5464   0.980   6.171   7.070 -0.2925  0.3440 -0.4130
   66SAPC   H9R 5465   1.040   6.087   7.107  0.7420  1.9310  1.7459
   66SAPC  C210 5466   0.855   6.184   7.160 -0.0780 -0.6861  1.0232
   66SAPC  H10R 5467   0.777   6.258   7.132  0.6715  0.4900  1.9843
   66SAPC  H10S 5468   0.882   6.212   7.264 -1.1072 -1.6843  1.5875
   66SAPC  C211 5469   0.778   6.054   7.162 -0.5651 -0.1721 -0.1657
   66SAPC  H11R 5470   0.739   6.028   7.063 -3.5280  0.0951  0.8225
   66SAPC  C212 5471   0.765   5.955   7.256  0.1637  0.4440 -0.3297
   66SAPC  H12R 5472   0.703   5.869   7.229  0.8790 -0.7058  1.5530
   66SAPC  C213 5473   0.822   5.961   7.395 -0.2885 -0.1632  0.1668
   66SAPC  H13R 5474   0.760   6.031   7.456 -0.3336  1.5910 -1.7725
   66SAPC  H13S 5475   0.921   6.013   7.388 -0.7763  0.5581 -2.6353
   66SAPC  C214 5476   0.860   5.838   7.462  0.1517  0.6771  0.2103
   66SAPC  H14R 5477   0.793   5.815   7.546  1.1090 -0.5991  0.6606
   66SAPC  C215 5478   0.954   5.745   7.418  0.5799 -0.3493 -0.5296
   66SAPC  H15R 5479   0.962   5.650   7.473 -1.4748  0.5399  1.4638
   66SAPC  C216 5480   1.040   5.760   7.296 -0.6647 -0.0037 -0.2886
   66SAPC  H16R 5481   1.138   5.719   7.329 -0.4455  2.6619  2.8796
   66SAPC  H16S 5482   1.056   5.866   7.267 -2.0467 -0.1626 -1.7849
   66SAPC  C217 5483   0.981   5.676   7.184  0.8659  0.4782 -0.1438
   66SAPC  H17R 5484   0.894   5.721   7.131 -0.7003 -1.0713  0.9456
   66SAPC  H17S 5485   0.951   5.574   7.219  0.5689  0.5725 -0.1164
   66SAPC  C218 5486   1.088   5.653   7.079  0.2683 -0.1709 -0.2738
   66SAPC  H18R 5487   1.047   5.577   7.009  1.1427 -1.4209  0.5269
   66SAPC  H18S 5488   1.181   5.608   7.121  1.5435  4.0165  1.9959
   66SAPC  C219 5489   1.132   5.776   7.000  0.2540  0.1686 -0.7634
   66SAPC  H19R 5490   1.224   5.757   6.939 -0.4543 -0.2281 -1.7380
   66SAPC  H19S 5491   1.169   5.856   7.068 -0.0229 -1.7711  1.8193
   66SAPC  C220 5492   1.020   5.834   6.917  0.1855 -0.3564 -0.1986
   66SAPC  H20R 5493   0.926   5.854   6.972  1.0647  0.3885  1.0982
   66SAPC  H20S 5494   0.997   5.767   6.831 -0.8639  0.9411 -0.9696
   66SAPC  H20T 5495   1.050   5.932   6.873 -0.0005  0.7007  1.9445
   66SAPC   C33 5496   0.387   6.504   6.660 -0.6694  0.9911  0.3548
   66SAPC   H3X 5497   0.394   6.393   6.653 -0.8595  1.0421 -0.9098
   66SAPC   H3Y 5498   0.304   6.539   6.725  0.9680  0.8861  2.6584
   66SAPC   C34 5499   0.514   6.568   6.720  0.0185 -0.2275  0.8761
   66SAPC   H4X 5500   0.495   6.677   6.730 -1.3783 -0.2754 -0.9111
   66SAPC   H4Y 5501   0.594   6.558   6.643 -0.2215  2.7643  0.1070
   66SAPC   C35 5502   0.579   6.511   6.850  0.4623  0.4866 -0.0452
   66SAPC   H5X 5503   0.675   6.564   6.869  1.0875 -0.5798 -0.1851
   66SAPC   H5Y 5504   0.608   6.404   6.846  1.5712  0.7413  0.6072
   66SAPC   C36 5505   0.494   6.541   6.971  0.8217 -0.4055 -0.6828
   66SAPC   H6X 5506   0.410   6.468   6.975  0.6134 -0.1176  1.2582
   66SAPC   H6Y 5507   0.455   6.645   6.971  0.6329 -0.4760 -0.7775
   66SAPC   C37 5508   0.569   6.506   7.095 -0.0690  1.2580 -0.4418
   66SAPC   H7X 5509   0.671   6.550   7.090  0.8857 -0.6072  1.1149
   66SAPC   H7Y 5510   0.588   6.398   7.112  0.3721  1.3707 -0.2038
   66SAPC   C38 5511   0.502   6.562   7.223  1.0956 -1.1230  0.1126
   66SAPC   H8X 5512   0.394   6.537   7.219  0.8810 -0.1416 -0.5795
   66SAPC   H8Y 5513   0.513   6.672   7.213  0.4666 -0.9711  0.9879
   66SAPC   C39 5514   0.570   6.518   7.348 -0.1158 -0.5001  0.7207
   66SAPC   H9X 5515   0.681   6.518   7.338  0.1199  5.4599 -0.0230
   66SAPC   H9Y 5516   0.534   6.415   7.370 -0.9580 -0.8764 -2.1005
   66SAPC  C310 5517   0.555   6.618   7.474 -0.6248  0.0082  0.6755
   66SAPC  H10X 5518   0.450   6.654   7.483 -0.9266 -1.0861  1.7730
   66SAPC  H10Y 5519   0.624   6.703   7.457 -0.4532 -0.0652  1.0019
   66SAPC  C311 5520   0.573   6.547   7.614 -0.1135  0.2737  0.2516
   66SAPC  H11X 5521   0.605   6.628   7.683  2.8016  0.1524 -0.8270
   66SAPC  H11Y 5522   0.668   6.491   7.607  0.8836  1.6524  1.9856
   66SAPC  C312 5523   0.462   6.462   7.670 -0.9126 -0.0632  0.1345
   66SAPC  H12X 5524   0.462   6.370   7.608  0.6631 -0.7324  1.0409
   66SAPC  H12Y 5525   0.366   6.516   7.659 -0.8595  0.2023  0.8943
   66SAPC  C313 5526   0.494   6.432   7.817  0.4684 -0.1990 -0.0093
   66SAPC  H13X 5527   0.543   6.519   7.865  2.0330 -1.3944  0.6367
   66SAPC  H13Y 5528   0.572   6.354   7.830  2.3062  1.8111  1.9141
   66SAPC  C314 5529   0.369   6.391   7.897 -0.3972  0.1082 -0.7311
   66SAPC  H14X 5530   0.305   6.314   7.848 -0.8157  0.6278 -1.0090
   66SAPC  H14Y 5531   0.296   6.473   7.913  1.2944  1.7338 -1.0410
   66SAPC  C315 5532   0.418   6.345   8.034 -0.6138  0.4896  0.2270
   66SAPC  H15X 5533   0.503   6.409   8.064  0.5445 -0.2272 -1.3624
   66SAPC  H15Y 5534   0.457   6.242   8.018 -0.8805  0.4001  0.1464
   66SAPC  C316 5535   0.310   6.335   8.148  0.3546  0.9183 -0.0586
   66SAPC  H16X 5536   0.249   6.250   8.113  3.4291 -0.7621 -1.8254
   66SAPC  H16Y 5537   0.247   6.426   8.157 -1.9754 -0.5707 -0.4866
   66SAPC  C317 5538   0.357   6.289   8.289  0.2265 -0.1842  0.6852
   66SAPC  H17X 5539   0.367   6.179   8.294  0.4902 -0.1218  1.9701
   66SAPC  H17Y 5540   0.269   6.317   8.351  1.1259  0.1702  1.8427
   66SAPC  C318 5541   0.481   6.352   8.342 -0.1570  0.2620 -0.6423
   66SAPC  H18X 5542   0.468   6.462   8.348 -0.1789  0.1994  2.9418
   66SAPC  H18Y 5543   0.563   6.318   8.276  0.7096 -0.8751  0.9517
   66SAPC  H18Z 5544   0.504   6.315   8.445  1.0537 -0.3937 -1.1397
   67SAPC     N 5545   2.933   1.042   6.042  0.0334 -0.2585 -0.4707
   67SAPC   C12 5546   2.923   0.947   6.160  0.1375 -0.4656  0.3732
   67SAPC  H12A 5547   3.021   0.940   6.205 -0.2959 -2.9675  1.0713
   67SAPC  H12B 5548   2.906   0.848   6.121  1.0949  0.0695 -1.5410
   67SAPC   C13 5549   2.799   1.058   5.982  1.0259 -0.2012 -0.1490
   67SAPC  H13A 5550   2.731   1.100   6.054  0.7455  1.6705 -1.4350
   67SAPC  H13B 5551   2.801   1.104   5.884  1.1138 -0.8214 -0.4497
   67SAPC  H13C 5552   2.741   0.966   5.975 -2.6231  1.8666  0.2571
   67SAPC   C14 5553   2.992   1.176   6.081 -0.1954 -0.7371 -0.3201
   67SAPC  H14A 5554   2.943   1.217   6.168  0.2843  0.6963 -0.7075
   67SAPC  H14B 5555   3.098   1.165   6.099 -0.1591 -0.6296 -0.4721
   67SAPC  H14C 5556   2.977   1.241   5.997  0.1309 -0.3521 -0.0786
   67SAPC   C15 5557   3.020   0.989   5.937  0.1007 -0.1841  0.2248
   67SAPC  H15A 5558   2.975   0.904   5.887 -1.0416  1.0646 -0.9687
   67SAPC  H15B 5559   3.040   1.070   5.868 -0.5017  1.4659  1.9174
   67SAPC  H15C 5560   3.114   0.961   5.983 -0.4710  0.4277  1.8226
   67SAPC   C11 5561   2.830   0.985   6.277  0.1059 -0.6222 -0.4973
   67SAPC  H11A 5562   2.824   0.899   6.347 -2.7563 -0.6332 -0.6584
   67SAPC  H11B 5563   2.726   0.989   6.238  0.0446  3.0853 -0.2763
   67SAPC     P 5564   2.948   1.136   6.457  0.0157  0.2141 -0.1267
   67SAPC   O13 5565   3.088   1.100   6.427 -0.0924  0.5481  0.1818
   67SAPC   O14 5566   2.927   1.271   6.505  0.1465 -0.1988 -0.1357
   67SAPC   O12 5567   2.868   1.107   6.331  0.5088  0.1126  0.4384
   67SAPC   O11 5568   2.900   1.035   6.566 -0.2752 -0.2154  0.0723
   67SAPC    C1 5569   2.764   1.008   6.584 -0.0396  0.1263  0.2963
   67SAPC    HA 5570   2.697   1.050   6.506 -0.4037  2.8195  1.9224
   67SAPC    HB 5571   2.761   0.898   6.569  0.9975  0.1612 -0.2980
   67SAPC    C2 5572   2.713   1.050   6.726  0.0593  0.4510  0.1231
   67SAPC    HS 5573   2.694   1.160   6.725  0.2091  0.4784  0.1427
   67SAPC   O21 5574   2.794   1.000   6.839  0.2093 -0.3871  0.3248
   67SAPC   C21 5575   2.896   1.084   6.871  0.1077 -0.0722 -0.0460
   67SAPC   O22 5576   2.900   1.200   6.833  0.0085  0.2696 -0.0166
   67SAPC   C22 5577   2.999   1.021   6.976 -0.0460 -0.0229 -0.7936
   67SAPC   H2R 5578   2.937   0.960   7.046 -0.3673 -0.7620 -1.6960
   67SAPC   H2S 5579   3.052   0.948   6.911  1.0456  0.7700 -0.8201
   67SAPC    C3 5580   2.567   0.990   6.739  0.4119 -0.4120 -0.1752
   67SAPC    HX 5581   2.572   0.885   6.702  1.2501 -0.5928  0.4066
   67SAPC    HY 5582   2.493   1.030   6.666 -1.6284 -2.5604  0.6147
   67SAPC   O31 5583   2.511   0.999   6.874  0.1707 -0.0429  0.3027
   67SAPC   C31 5584   2.485   1.117   6.920 -0.2413 -0.1907  0.0141
   67SAPC   O32 5585   2.503   1.225   6.863  0.0519  0.2228  0.1711
   67SAPC   C32 5586   2.432   1.099   7.064 -0.0797 -0.1248  0.0888
   67SAPC   H2X 5587   2.506   1.039   7.121 -1.1154 -1.0573  0.4995
   67SAPC   H2Y 5588   2.336   1.044   7.051  0.7418 -0.9287 -3.6624
   67SAPC   C23 5589   3.086   1.121   7.045 -0.0028  0.1746 -0.0352
   67SAPC   H3R 5590   3.016   1.172   7.115 -0.3072  0.7080 -0.7169
   67SAPC   H3S 5591   3.113   1.195   6.967  1.0364  0.0420  0.1844
   67SAPC   C24 5592   3.214   1.058   7.102  1.3744 -0.3192  0.5175
   67SAPC   H4R 5593   3.272   1.014   7.018  0.6779 -1.0215  0.3861
   67SAPC   H4S 5594   3.184   0.982   7.178 -3.1732  1.1931  0.5591
   67SAPC   C25 5595   3.281   1.171   7.168  0.5313 -0.4672 -0.5625
   67SAPC   H5R 5596   3.299   1.261   7.108  0.0111 -0.1428 -0.2466
   67SAPC   C26 5597   3.316   1.174   7.297 -0.0827 -0.1509 -0.5005
   67SAPC   H6R 5598   3.369   1.260   7.340  0.7869 -2.1707  2.8463
   67SAPC   C27 5599   3.289   1.068   7.402 -0.3154  0.7968  0.7752
   67SAPC   H7R 5600   3.237   0.977   7.367  0.8302  0.6447 -0.6291
   67SAPC   H7S 5601   3.230   1.113   7.485 -0.7915 -1.4162  1.7126
   67SAPC   C28 5602   3.407   1.000   7.462 -1.1297 -0.1977 -0.0501
   67SAPC   H8R 5603   3.460   0.935   7.391  0.9227 -1.1951  2.2749
   67SAPC   C29 5604   3.468   1.023   7.586  0.1806  0.5160  0.9121
   67SAPC   H9R 5605   3.568   0.979   7.603 -0.2304 -0.7202  0.2630
   67SAPC  C210 5606   3.416   1.104   7.694 -0.6808 -1.1864  0.0171
   67SAPC  H10R 5607   3.365   1.189   7.642 -2.2403 -2.7152 -1.0731
   67SAPC  H10S 5608   3.502   1.150   7.747  0.3738 -2.4778 -0.5112
   67SAPC  C211 5609   3.306   1.048   7.778 -0.4938 -0.0926  0.2753
   67SAPC  H11R 5610   3.221   1.005   7.723 -1.3266  1.8085  0.0124
   67SAPC  C212 5611   3.306   1.037   7.912  0.2017  0.1041 -0.7471
   67SAPC  H12R 5612   3.216   1.007   7.968 -0.5432  1.5262 -1.1327
   67SAPC  C213 5613   3.414   1.086   8.001 -0.6470 -1.0070 -0.4506
   67SAPC  H13R 5614   3.402   1.196   8.016  1.6214 -0.8716  0.8342
   67SAPC  H13S 5615   3.516   1.056   7.966  0.2121  0.1693  0.9317
   67SAPC  C214 5616   3.400   1.031   8.145  0.0183  0.1670 -0.2025
   67SAPC  H14R 5617   3.458   0.940   8.166  0.1522  0.5782  1.3453
   67SAPC  C215 5618   3.319   1.078   8.241 -0.1861 -0.0583 -0.0463
   67SAPC  H15R 5619   3.317   1.019   8.334  1.3599  0.2937  0.2311
   67SAPC  C216 5620   3.218   1.192   8.231 -0.0547 -0.0068 -0.0964
   67SAPC  H16R 5621   3.202   1.225   8.126  1.4808 -0.6162 -0.5499
   67SAPC  H16S 5622   3.247   1.284   8.285  0.8850 -0.9262  1.0220
   67SAPC  C217 5623   3.088   1.149   8.296 -0.5696 -0.0181  0.2953
   67SAPC  H17R 5624   3.112   1.085   8.383  1.4744  2.5576  1.7848
   67SAPC  H17S 5625   3.024   1.103   8.218 -0.7796  1.3774 -0.3902
   67SAPC  C218 5626   3.016   1.265   8.353 -0.0738 -0.2462  0.0162
   67SAPC  H18R 5627   3.004   1.328   8.262 -2.3549  1.0492  1.1206
   67SAPC  H18S 5628   3.084   1.321   8.422  0.9939 -0.1941 -1.0450
   67SAPC  C219 5629   2.880   1.230   8.404 -0.7979 -0.0387  0.1899
   67SAPC  H19R 5630   2.887   1.156   8.486  0.2757 -1.8266 -1.4615
   67SAPC  H19S 5631   2.828   1.189   8.315 -1.5828  1.3252 -0.0182
   67SAPC  C220 5632   2.797   1.357   8.450  0.3809  0.1027 -0.1491
   67SAPC  H20R 5633   2.847   1.415   8.530 -1.5967  1.5869  0.0864
   67SAPC  H20S 5634   2.698   1.326   8.490  0.3287  0.9034  0.3653
   67SAPC  H20T 5635   2.781   1.431   8.369  2.4179  1.8718  0.9821
   67SAPC   C33 5636   2.407   1.238   7.137 -0.1625 -0.3495 -0.6052
   67SAPC   H3X 5637   2.343   1.294   7.065  0.8764  1.3043 -0.3063
   67SAPC   H3Y 5638   2.503   1.293   7.130 -0.6158  0.7444  1.1399
   67SAPC   C34 5639   2.358   1.236   7.284 -0.4020  0.8554 -0.1078
   67SAPC   H4X 5640   2.260   1.185   7.293  1.1207 -2.2579  0.2346
   67SAPC   H4Y 5641   2.363   1.341   7.321  0.3575  1.2438 -1.2587
   67SAPC   C35 5642   2.453   1.160   7.374  0.2572  0.5641  0.5285
   67SAPC   H5X 5643   2.535   1.235   7.385 -0.2121  0.9042  1.9086
   67SAPC   H5Y 5644   2.486   1.068   7.321 -1.4582  0.2989 -0.1423
   67SAPC   C36 5645   2.392   1.136   7.509 -0.5741  0.8210  0.0091
   67SAPC   H6X 5646   2.308   1.066   7.493 -1.3152  0.7978  3.2943
   67SAPC   H6Y 5647   2.345   1.233   7.534 -0.5563  1.8390 -3.4335
   67SAPC   C37 5648   2.485   1.076   7.617 -0.3650 -0.2817 -0.3125
   67SAPC   H7X 5649   2.567   1.139   7.658 -1.5514 -0.5026  2.6300
   67SAPC   H7Y 5650   2.516   0.983   7.565  1.7938  0.3203 -0.1996
   67SAPC   C38 5651   2.400   1.043   7.749  0.2460  0.1494 -0.1746
   67SAPC   H8X 5652   2.299   1.018   7.710  0.2424  0.1957 -0.1933
   67SAPC   H8Y 5653   2.390   1.136   7.808  1.9997  1.0045 -1.1704
   67SAPC   C39 5654   2.435   0.918   7.823 -0.3314  0.3939 -0.9444
   67SAPC   H9X 5655   2.537   0.930   7.865 -0.5405  0.3138 -0.4081
   67SAPC   H9Y 5656   2.451   0.828   7.759  3.3818  0.0591  0.2246
   67SAPC  C310 5657   2.328   0.892   7.937 -0.3957 -0.4873 -0.1562
   67SAPC  H10X 5658   2.222   0.900   7.904 -0.0124  0.3305 -1.2447
   67SAPC  H10Y 5659   2.351   0.961   8.021 -0.2969  1.8055 -1.9700
   67SAPC  C311 5660   2.338   0.746   7.993 -0.1367  0.6511  0.4740
   67SAPC  H11X 5661   2.424   0.737   8.062  1.5472  3.2031 -1.1424
   67SAPC  H11Y 5662   2.341   0.675   7.908 -0.6940 -0.8742  1.6741
   67SAPC  C312 5663   2.211   0.716   8.073 -0.2590 -0.0249 -0.1921
   67SAPC  H12X 5664   2.225   0.606   8.085  1.9918  0.2581  0.2501
   67SAPC  H12Y 5665   2.127   0.751   8.010  0.5393  3.6459  0.5597
   67SAPC  C313 5666   2.197   0.784   8.212  0.9420  0.4131  0.2098
   67SAPC  H13X 5667   2.182   0.891   8.189  0.2134  0.0674 -1.0715
   67SAPC  H13Y 5668   2.290   0.766   8.270  2.2366  1.5378 -1.4072
   67SAPC  C314 5669   2.066   0.743   8.296 -0.1865  0.5197  0.0714
   67SAPC  H14X 5670   2.059   0.633   8.298  1.0589  0.3624 -1.5776
   67SAPC  H14Y 5671   1.977   0.781   8.242  0.6613  0.4942 -1.4224
   67SAPC  C315 5672   2.068   0.786   8.444 -0.3958  0.1478  0.0954
   67SAPC  H15X 5673   2.063   0.897   8.451 -0.6176  0.3527 -2.3105
   67SAPC  H15Y 5674   2.165   0.759   8.491  0.0997  0.1876 -0.8881
   67SAPC  C316 5675   1.957   0.725   8.526  0.6261 -0.3766  0.3250
   67SAPC  H16X 5676   1.859   0.700   8.481  0.4159 -0.4813  0.8368
   67SAPC  H16Y 5677   1.930   0.803   8.600  0.8033 -0.2497  0.2579
   67SAPC  C317 5678   2.002   0.605   8.616  0.2527 -0.1781 -0.3753
   67SAPC  H17X 5679   2.092   0.633   8.676  1.4873 -1.2506 -1.6654
   67SAPC  H17Y 5680   2.026   0.518   8.551  0.2240 -0.2096 -0.3438
   67SAPC  C318 5681   1.895   0.559   8.718 -0.1953  0.0973  0.1864
   67SAPC  H18X 5682   1.807   0.527   8.659  1.1318 -2.5256 -0.5203
   67SAPC  H18Y 5683   1.867   0.628   8.801  0.6169  0.3658  0.2497
   67SAPC  H18Z 5684   1.929   0.468   8.772  0.0595  0.4559  0.6392
   68SAPC     N 5685   1.359   0.594   6.080  0.1272  0.0238  0.4080
   68SAPC   C12 5686   1.345   0.533   6.225  0.1421  0.3088 -0.2977
   68SAPC  H12A 5687   1.372   0.429   6.209  0.7725  0.8389 -3.4095
   68SAPC  H12B 5688   1.245   0.531   6.266  0.3957 -1.0922  0.3453
   68SAPC   C13 5689   1.356   0.746   6.100  0.0879  1.0000  0.0127
   68SAPC  H13A 5690   1.271   0.785   6.153  0.4284 -0.9873  2.1928
   68SAPC  H13B 5691   1.441   0.762   6.165  0.5044 -3.0299  0.7632
   68SAPC  H13C 5692   1.371   0.797   6.006  0.2752  0.7370 -0.1039
   68SAPC   C14 5693   1.479   0.564   6.003 -0.1788  0.5262  0.9886
   68SAPC  H14A 5694   1.563   0.613   6.048 -0.9371  0.3843  2.6266
   68SAPC  H14B 5695   1.500   0.458   5.994  0.9336  0.8284 -0.3468
   68SAPC  H14C 5696   1.476   0.600   5.901  0.3770 -2.1333 -0.0557
   68SAPC   C15 5697   1.236   0.554   6.004  0.0969  0.7434 -0.6407
   68SAPC  H15A 5698   1.228   0.447   5.990  1.0247  0.7064 -0.9962
   68SAPC  H15B 5699   1.146   0.591   6.049 -0.2302 -0.3500 -0.3734
   68SAPC  H15C 5700   1.248   0.593   5.904  0.0004  0.7498 -0.6491
   68SAPC   C11 5701   1.439   0.592   6.328 -1.0725  0.2471 -1.2134
   68SAPC  H11A 5702   1.420   0.532   6.419 -1.3106 -2.7465 -3.0881
   68SAPC  H11B 5703   1.417   0.699   6.346  0.2392  0.4822 -0.9024
   68SAPC     P 5704   1.687   0.680   6.267  0.6085 -0.1452 -0.0420
   68SAPC   O13 5705   1.701   0.711   6.122 -0.2409 -0.0833  0.1166
   68SAPC   O14 5706   1.668   0.799   6.354 -0.2768 -0.1104  0.1226
   68SAPC   O12 5707   1.577   0.565   6.282  0.0185  0.0058 -0.1357
   68SAPC   O11 5708   1.824   0.621   6.308  0.7949  0.2804  0.1116
   68SAPC    C1 5709   1.839   0.508   6.401  0.1376 -0.1201  0.0211
   68SAPC    HA 5710   1.748   0.447   6.416  0.2634 -0.2906  0.0977
   68SAPC    HB 5711   1.914   0.434   6.366  0.3367 -0.6637  1.5081
   68SAPC    C2 5712   1.887   0.559   6.535 -0.2431 -0.6845 -0.2935
   68SAPC    HS 5713   1.885   0.476   6.610  1.4007 -0.5135 -0.0308
   68SAPC   O21 5714   1.803   0.665   6.577 -0.5350  0.2055 -1.1212
   68SAPC   C21 5715   1.683   0.629   6.620 -0.3477 -0.0610 -0.4312
   68SAPC   O22 5716   1.655   0.512   6.652  0.4587  0.4063 -0.1563
   68SAPC   C22 5717   1.596   0.751   6.649 -0.6410 -0.4180 -0.1959
   68SAPC   H2R 5718   1.649   0.842   6.615  1.0582 -0.9138  1.0108
   68SAPC   H2S 5719   1.505   0.735   6.586 -0.0022 -4.5684 -0.3459
   68SAPC    C3 5720   2.030   0.609   6.517 -0.3732 -0.5375  0.3772
   68SAPC    HX 5721   2.032   0.703   6.457  0.7770 -1.3790 -0.9469
   68SAPC    HY 5722   2.087   0.540   6.452 -0.1655 -1.1175  1.1581
   68SAPC   O31 5723   2.094   0.625   6.649 -0.2502  0.0898 -0.2076
   68SAPC   C31 5724   2.211   0.697   6.647 -0.2449  0.5626  0.4176
   68SAPC   O32 5725   2.251   0.747   6.547  0.0575 -0.1474  0.3807
   68SAPC   C32 5726   2.285   0.670   6.772 -0.8370  0.6012 -0.4537
   68SAPC   H2X 5727   2.380   0.728   6.779  0.0593 -0.7952 -0.5947
   68SAPC   H2Y 5728   2.312   0.563   6.783  0.8020  0.9174 -1.1418
   68SAPC   C23 5729   1.551   0.744   6.796  0.1122  0.0638  0.2026
   68SAPC   H3R 5730   1.526   0.639   6.824  2.7389 -0.2439  1.8444
   68SAPC   H3S 5731   1.462   0.808   6.808 -0.4110  0.0156 -2.7628
   68SAPC   C24 5732   1.646   0.810   6.893 -0.0203  0.1470  0.4827
   68SAPC   H4R 5733   1.593   0.808   6.991  1.9871 -2.0473  1.6172
   68SAPC   H4S 5734   1.655   0.918   6.869 -0.3783  0.5380  1.9822
   68SAPC   C25 5735   1.789   0.758   6.907 -0.5429  0.3921  0.0732
   68SAPC   H5R 5736   1.871   0.805   6.851  0.3924 -2.6598 -1.3330
   68SAPC   C26 5737   1.825   0.674   7.007 -0.5534  0.1564  0.1044
   68SAPC   H6R 5738   1.932   0.646   7.011 -0.3551  0.1363 -2.8468
   68SAPC   C27 5739   1.733   0.611   7.105 -0.7497 -0.6257  0.5443
   68SAPC   H7R 5740   1.721   0.502   7.088  0.7283 -0.6703 -0.3992
   68SAPC   H7S 5741   1.635   0.662   7.105  0.0072  0.9132 -0.3921
   68SAPC   C28 5742   1.787   0.635   7.242 -0.3405 -1.0353  0.8253
   68SAPC   H8R 5743   1.793   0.737   7.281 -3.0541 -0.4499 -0.1142
   68SAPC   C29 5744   1.837   0.552   7.330  0.6082  0.4049  0.2912
   68SAPC   H9R 5745   1.869   0.578   7.432  1.9906 -3.2036  0.9422
   68SAPC  C210 5746   1.842   0.397   7.321 -0.1656  0.8809 -0.3818
   68SAPC  H10R 5747   1.815   0.356   7.221  0.1777  2.5787 -1.2186
   68SAPC  H10S 5748   1.769   0.364   7.397 -0.6060 -1.3013 -1.6871
   68SAPC  C211 5749   1.983   0.353   7.349  0.3983  0.1160 -0.0191
   68SAPC  H11R 5750   2.043   0.374   7.259  0.5546 -1.7211 -0.3830
   68SAPC  C212 5751   2.036   0.292   7.457 -0.1616 -0.1036  0.0537
   68SAPC  H12R 5752   2.143   0.269   7.458 -0.2456 -0.4789  0.4638
   68SAPC  C213 5753   1.954   0.252   7.574  0.0055  0.5410 -0.1330
   68SAPC  H13R 5754   1.854   0.300   7.573 -0.5299 -0.5560 -1.2125
   68SAPC  H13S 5755   1.999   0.295   7.666 -0.8907 -0.7924  0.9830
   68SAPC  C214 5756   1.936   0.101   7.585 -0.4169  0.4333 -0.1259
   68SAPC  H14R 5757   1.876   0.055   7.505  1.5790  1.1676 -2.1313
   68SAPC  C215 5758   1.978   0.027   7.688 -0.4803  0.2251  0.2141
   68SAPC  H15R 5759   1.987  -0.081   7.675  1.1976  0.4874 -1.0622
   68SAPC  C216 5760   2.056   0.064   7.812  0.1391 -0.6442  0.8019
   68SAPC  H16R 5761   2.133   0.139   7.781  0.8236 -1.3936  0.6509
   68SAPC  H16S 5762   2.115  -0.024   7.846  1.6652 -0.7441 -1.8414
   68SAPC  C217 5763   1.966   0.101   7.929  0.0858 -0.0788 -0.6947
   68SAPC  H17R 5764   1.892   0.020   7.947 -0.0203  0.2636  0.5156
   68SAPC  H17S 5765   1.915   0.196   7.903 -0.0032  0.0287 -0.1489
   68SAPC  C218 5766   2.034   0.141   8.063  0.0676  0.4463 -0.0303
   68SAPC  H18R 5767   2.108   0.063   8.090  1.8444  1.6464 -1.2111
   68SAPC  H18S 5768   1.951   0.148   8.136 -0.4823  1.7342 -0.7440
   68SAPC  C219 5769   2.114   0.271   8.066 -0.2359 -0.1841 -0.0669
   68SAPC  H19R 5770   2.045   0.347   8.023 -0.9289 -1.9990 -2.4462
   68SAPC  H19S 5771   2.201   0.265   7.997 -1.2189  2.1273 -1.6125
   68SAPC  C220 5772   2.162   0.309   8.203  0.3603 -0.3575 -0.0198
   68SAPC  H20R 5773   2.206   0.411   8.210  0.8742 -0.6810  2.6014
   68SAPC  H20S 5774   2.245   0.245   8.240  0.4105 -0.6659 -0.6601
   68SAPC  H20T 5775   2.069   0.305   8.265 -0.8245 -2.8731 -1.8218
   68SAPC   C33 5776   2.216   0.702   6.908 -0.8125  0.1196 -0.3084
   68SAPC   H3X 5777   2.129   0.633   6.917 -2.0357  1.2814 -2.4706
   68SAPC   H3Y 5778   2.181   0.808   6.903 -2.2362 -0.3942 -2.4396
   68SAPC   C34 5779   2.307   0.687   7.035  0.2458  0.3587  0.1057
   68SAPC   H4X 5780   2.373   0.776   7.037  0.4464  0.2202 -0.3119
   68SAPC   H4Y 5781   2.371   0.597   7.027  1.1985  0.8576  1.6885
   68SAPC   C35 5782   2.228   0.674   7.162  0.1588  0.6752  0.2741
   68SAPC   H5X 5783   2.139   0.607   7.155  1.9336 -1.8428  0.1826
   68SAPC   H5Y 5784   2.183   0.774   7.179  0.9410  0.8083  1.6909
   68SAPC   C36 5785   2.311   0.637   7.282 -0.2662 -0.2078 -0.2184
   68SAPC   H6X 5786   2.417   0.631   7.248  0.9064 -1.0876  3.2087
   68SAPC   H6Y 5787   2.275   0.543   7.328  0.1528  0.4783  1.5915
   68SAPC   C37 5788   2.305   0.735   7.401  0.2008 -0.0552 -0.0799
   68SAPC   H7X 5789   2.346   0.833   7.369  0.5774 -0.4239 -0.7608
   68SAPC   H7Y 5790   2.375   0.700   7.479  1.1912  0.9597 -0.4807
   68SAPC   C38 5791   2.159   0.744   7.462 -0.0900 -0.2053 -0.2380
   68SAPC   H8X 5792   2.080   0.693   7.404  0.4956 -0.0543 -1.1881
   68SAPC   H8Y 5793   2.133   0.852   7.463 -0.0383 -0.1667 -1.6357
   68SAPC   C39 5794   2.149   0.685   7.601  0.4603  0.9313 -0.6019
   68SAPC   H9X 5795   2.235   0.719   7.663 -0.5029 -0.9368  1.9214
   68SAPC   H9Y 5796   2.161   0.575   7.591  3.3429  1.2086 -1.2879
   68SAPC  C310 5797   2.015   0.712   7.675  0.3040 -0.0278  0.2422
   68SAPC  H10X 5798   1.946   0.699   7.589 -0.2039  0.7792  0.5184
   68SAPC  H10Y 5799   2.017   0.812   7.722  0.0619 -0.6693  1.6799
   68SAPC  C311 5800   1.998   0.603   7.781  0.4893  0.1118 -0.3313
   68SAPC  H11X 5801   2.084   0.615   7.850 -0.0875 -0.6427  0.5513
   68SAPC  H11Y 5802   2.007   0.498   7.746 -0.8409 -0.3368  0.5823
   68SAPC  C312 5803   1.878   0.634   7.875 -0.0833 -0.7091  0.1764
   68SAPC  H12X 5804   1.798   0.644   7.799  1.1334  2.4080 -0.8671
   68SAPC  H12Y 5805   1.893   0.725   7.937  0.4129 -0.9162  0.3611
   68SAPC  C313 5806   1.838   0.519   7.975 -0.8977 -0.3566  1.0306
   68SAPC  H13X 5807   1.920   0.522   8.050  1.3633 -0.2573 -1.3177
   68SAPC  H13Y 5808   1.855   0.418   7.933 -0.5791 -0.1189  0.5835
   68SAPC  C314 5809   1.692   0.540   8.006 -0.1107 -0.2763 -0.6020
   68SAPC  H14X 5810   1.625   0.521   7.920  0.3599 -2.0198 -0.6220
   68SAPC  H14Y 5811   1.685   0.642   8.049 -1.9282 -0.4989 -0.3054
   68SAPC  C315 5812   1.654   0.435   8.119  0.2073 -0.0386  0.0917
   68SAPC  H15X 5813   1.630   0.340   8.065 -4.6627  0.7673  0.3823
   68SAPC  H15Y 5814   1.550   0.460   8.150  0.1064  0.9437 -0.9736
   68SAPC  C316 5815   1.745   0.406   8.237 -0.2054 -0.4628  0.3497
   68SAPC  H16X 5816   1.754   0.504   8.288 -2.3256  0.5806 -1.1583
   68SAPC  H16Y 5817   1.842   0.382   8.189  1.3055  0.6013  2.6633
   68SAPC  C317 5818   1.683   0.301   8.334  0.8110 -0.4986  0.5275
   68SAPC  H17X 5819   1.665   0.207   8.277 -0.2149  1.2923 -2.3300
   68SAPC  H17Y 5820   1.585   0.332   8.376  0.5950 -1.6386  0.8978
   68SAPC  C318 5821   1.782   0.270   8.441 -0.8587 -0.1149 -0.6912
   68SAPC  H18X 5822   1.855   0.351   8.457 -0.1649 -0.7388 -0.6258
   68SAPC  H18Y 5823   1.843   0.186   8.402 -1.0658  0.3135 -1.9712
   68SAPC  H18Z 5824   1.742   0.239   8.540 -0.0273  1.0157  0.0243
   69SLPC     N 5825   5.955   5.606  11.339  0.1680  0.5083  0.1381
   69SLPC   C13 5826   5.956   5.491  11.435  0.1924  0.2265 -0.2533
   69SLPC  H13A 5827   5.901   5.403  11.403 -0.9357  0.8764 -0.1304
   69SLPC  H13B 5828   6.056   5.451  11.426  0.3171  0.8090 -1.7183
   69SLPC  H13C 5829   5.931   5.507  11.539  0.1829  1.5620 -0.4507
   69SLPC   C14 5830   6.004   5.541  11.215 -0.2306 -0.1617 -0.2946
   69SLPC  H14A 5831   6.100   5.492  11.217  0.3544  0.5281 -4.0642
   69SLPC  H14B 5832   5.937   5.460  11.187  0.6357  0.2350 -4.0986
   69SLPC  H14C 5833   6.017   5.603  11.128  0.8604 -0.5963 -0.4556
   69SLPC   C15 5834   6.056   5.707  11.379  0.2045 -0.0082 -0.2589
   69SLPC  H15A 5835   6.067   5.775  11.297  0.1991  1.0567  0.5974
   69SLPC  H15B 5836   6.024   5.772  11.460 -1.5973  0.0303 -0.9542
   69SLPC  H15C 5837   6.154   5.669  11.404  0.2294 -1.3086 -2.1828
   69SLPC   C12 5838   5.815   5.668  11.335  0.5995 -0.0185  0.1468
   69SLPC  H12A 5839   5.789   5.717  11.428  0.9938  0.0013  0.2474
   69SLPC  H12B 5840   5.739   5.592  11.321  1.5669 -1.1454  0.8347
   69SLPC   C11 5841   5.801   5.773  11.218 -0.4650 -0.5510  0.1993
   69SLPC  H11A 5842   5.879   5.852  11.219  1.2175 -2.0191 -2.1622
   69SLPC  H11B 5843   5.708   5.832  11.234 -0.3981 -0.6143  0.8400
   69SLPC     P 5844   5.679   5.623  11.027 -0.0499 -0.3595  0.5313
   69SLPC   O13 5845   5.726   5.513  10.940 -0.4987 -0.3586  0.0321
   69SLPC   O14 5846   5.583   5.587  11.135 -0.1009 -0.5671  0.0559
   69SLPC   O12 5847   5.802   5.714  11.088  0.5760 -0.2676 -0.5655
   69SLPC   O11 5848   5.592   5.715  10.934  0.2301  0.0049  0.1607
   69SLPC    C1 5849   5.650   5.820  10.862 -0.0792 -0.0298 -0.7335
   69SLPC    HA 5850   5.681   5.903  10.929  1.6195 -1.4590  0.3367
   69SLPC    HB 5851   5.739   5.795  10.800  1.0693  1.1104  0.3901
   69SLPC    C2 5852   5.545   5.889  10.767 -0.3361 -0.0106  0.0586
   69SLPC    HS 5853   5.464   5.930  10.831  0.8381  0.5090  1.2626
   69SLPC   O21 5854   5.496   5.793  10.673 -0.2545 -0.5271 -0.0470
   69SLPC   C21 5855   5.379   5.819  10.621 -0.3504  0.4396 -0.1551
   69SLPC   O22 5856   5.309   5.913  10.657  0.8135  0.3708 -0.1032
   69SLPC   C22 5857   5.349   5.727  10.507 -0.5687  0.4250  0.5028
   69SLPC   H2R 5858   5.444   5.697  10.457 -0.3046  2.2668 -0.1617
   69SLPC   H2S 5859   5.317   5.633  10.557  3.7436  0.0049  2.9861
   69SLPC    C3 5860   5.614   6.012  10.687 -0.0689  0.0034 -0.5770
   69SLPC    HX 5861   5.610   6.086  10.769 -3.4945  0.6469 -1.1416
   69SLPC    HY 5862   5.540   6.042  10.609 -1.0823 -2.2348 -0.5603
   69SLPC   O31 5863   5.747   5.993  10.627 -0.3956 -0.1489  0.0263
   69SLPC   C31 5864   5.803   6.098  10.569 -0.9433 -0.0892 -0.1985
   69SLPC   O32 5865   5.758   6.211  10.582  0.3354 -0.4136  0.6683
   69SLPC   C32 5866   5.931   6.057  10.500  0.3267 -0.4714 -0.3312
   69SLPC   H2X 5867   5.921   5.963  10.442 -0.3368 -1.2634  1.0157
   69SLPC   H2Y 5868   5.994   6.036  10.589 -0.4492  0.8134  0.5546
   69SLPC   C23 5869   5.255   5.780  10.396  0.3910 -0.6269 -0.4373
   69SLPC   H3R 5870   5.156   5.771  10.446  1.3582  0.0128  1.6946
   69SLPC   H3S 5871   5.238   5.703  10.318 -1.4614  0.7728 -1.4998
   69SLPC   C24 5872   5.300   5.910  10.339 -0.3169 -0.2204 -0.2383
   69SLPC   H4R 5873   5.409   5.903  10.319 -0.1074 -0.5669  0.9306
   69SLPC   H4S 5874   5.285   5.995  10.409  1.6668  1.8808 -2.1908
   69SLPC   C25 5875   5.213   5.960  10.223  0.6846 -0.1209 -0.5911
   69SLPC   H5R 5876   5.231   6.064  10.190  0.2040  0.4773  0.9541
   69SLPC   H5S 5877   5.107   5.964  10.256  1.2033  0.9833  1.0335
   69SLPC   C26 5878   5.256   5.879  10.102  0.3733  0.1693  1.0463
   69SLPC   H6R 5879   5.164   5.877  10.039  1.6589 -1.3646 -0.9026
   69SLPC   H6S 5880   5.267   5.770  10.122 -0.6950  0.0593  1.1110
   69SLPC   C27 5881   5.375   5.937  10.022 -0.5887  0.3534 -0.1521
   69SLPC   H7R 5882   5.455   5.957  10.097  0.9589  0.5792 -1.7878
   69SLPC   H7S 5883   5.356   6.042   9.991 -2.1002  0.3721  0.7781
   69SLPC   C28 5884   5.421   5.847   9.904  0.4234 -0.0318  0.7280
   69SLPC   H8R 5885   5.423   5.743   9.944 -1.8499 -1.4940 -2.5299
   69SLPC   H8S 5886   5.521   5.882   9.870  1.2603 -1.8839  1.1711
   69SLPC   C29 5887   5.318   5.859   9.794 -0.7240  0.9135  0.2749
   69SLPC   H9R 5888   5.212   5.855   9.824 -0.5347  1.2017  1.0012
   69SLPC  C210 5889   5.337   5.884   9.665 -0.4446 -0.1519  0.5266
   69SLPC  H10R 5890   5.247   5.882   9.601 -1.1901  1.9214  1.3998
   69SLPC  C211 5891   5.459   5.910   9.571  0.1746  0.2934  0.2115
   69SLPC  H11R 5892   5.479   5.815   9.518 -1.7880  0.9309 -1.8089
   69SLPC  H11S 5893   5.554   5.924   9.627  1.6689  0.5180 -2.2549
   69SLPC  C212 5894   5.453   6.014   9.469  0.3123  0.6034 -0.0066
   69SLPC  H12R 5895   5.350   6.052   9.459 -0.5513 -2.0387 -2.1723
   69SLPC  C213 5896   5.560   6.055   9.395 -0.5769  0.2278 -0.1784
   69SLPC  H13R 5897   5.539   6.140   9.328  1.0414  1.5818  0.9401
   69SLPC  C214 5898   5.694   5.994   9.396 -0.3161 -1.1835 -0.1748
   69SLPC  H14R 5899   5.718   5.961   9.499  0.3757  0.6717  0.2944
   69SLPC  H14S 5900   5.768   6.072   9.367 -2.1991  0.5638 -0.5951
   69SLPC  C215 5901   5.703   5.862   9.313 -0.4862  0.0210 -0.3745
   69SLPC  H15R 5902   5.633   5.789   9.358  0.7886 -0.4697  0.8744
   69SLPC  H15S 5903   5.804   5.821   9.337 -1.1734 -1.6612 -0.1865
   69SLPC  C216 5904   5.687   5.860   9.162 -0.1924  0.1416 -0.3875
   69SLPC  H16R 5905   5.615   5.941   9.141 -1.5707 -0.5232  1.4953
   69SLPC  H16S 5906   5.626   5.773   9.130  3.3066 -2.6545 -0.1558
   69SLPC  C217 5907   5.822   5.882   9.086  0.0785  0.2504  0.1307
   69SLPC  H17R 5908   5.867   5.782   9.068 -0.5536 -0.0007 -0.0950
   69SLPC  H17S 5909   5.888   5.942   9.152  0.6919 -0.7730  0.4607
   69SLPC  C218 5910   5.810   5.949   8.947 -0.0690  0.1799  0.2732
   69SLPC  H18R 5911   5.912   5.978   8.912  1.3710 -0.7991  3.2633
   69SLPC  H18S 5912   5.757   6.045   8.961 -0.9841 -0.3185  0.2844
   69SLPC  H18T 5913   5.763   5.882   8.872 -0.3222  0.6738 -0.0142
   69SLPC   C33 5914   5.990   6.160  10.409 -0.8679  0.4587  0.3448
   69SLPC   H3X 5915   6.055   6.233  10.462  0.0474  0.9196 -1.3299
   69SLPC   H3Y 5916   5.914   6.221  10.356  0.8025  0.1678 -2.6026
   69SLPC   C34 5917   6.082   6.101  10.304  0.4218  0.4227 -0.4151
   69SLPC   H4X 5918   6.026   6.015  10.261  0.8072  0.0451 -0.1683
   69SLPC   H4Y 5919   6.167   6.046  10.351  0.0807  1.4786  1.5173
   69SLPC   C35 5920   6.138   6.212  10.212  0.0337 -0.7156  0.3293
   69SLPC   H5X 5921   6.188   6.280  10.284 -2.0077  0.1837  0.9722
   69SLPC   H5Y 5922   6.063   6.271  10.154 -0.1605 -1.4046 -0.1319
   69SLPC   C36 5923   6.239   6.161  10.102  1.3887  0.5471  0.4332
   69SLPC   H6X 5924   6.173   6.142  10.014 -0.2865 -1.4620  2.0040
   69SLPC   H6Y 5925   6.287   6.065  10.131  0.4146  0.0017  0.2851
   69SLPC   C37 5926   6.352   6.257  10.052 -0.0992  0.6829 -0.1704
   69SLPC   H7X 5927   6.427   6.252  10.133  1.0881 -3.4654 -1.3157
   69SLPC   H7Y 5928   6.302   6.357  10.054 -1.0503  0.2540 -1.2393
   69SLPC   C38 5929   6.430   6.219   9.924  0.4782 -0.2836 -0.3156
   69SLPC   H8X 5930   6.466   6.115   9.939  1.7509  0.1928  0.0265
   69SLPC   H8Y 5931   6.517   6.287   9.917  0.5363 -0.1409  1.3237
   69SLPC   C39 5932   6.344   6.231   9.800 -0.1650 -0.3897 -0.0012
   69SLPC   H9X 5933   6.328   6.339   9.776 -1.7668 -0.2384  1.5155
   69SLPC   H9Y 5934   6.240   6.191   9.804 -0.2420 -0.1565  0.3848
   69SLPC  C310 5935   6.405   6.166   9.677 -0.0745 -0.0190 -0.0639
   69SLPC  H10X 5936   6.513   6.144   9.688 -0.1109 -1.1987 -1.6787
   69SLPC  H10Y 5937   6.389   6.227   9.586 -1.4585 -1.8850 -1.1656
   69SLPC  C311 5938   6.350   6.031   9.656  0.3293  0.0283  0.1512
   69SLPC  H11X 5939   6.239   6.028   9.659  0.3602 -0.9361  1.1043
   69SLPC  H11Y 5940   6.386   5.949   9.722 -0.9348 -0.7353 -0.0826
   69SLPC  C312 5941   6.408   5.979   9.522 -0.7732  0.0188  0.3172
   69SLPC  H12X 5942   6.519   5.973   9.512 -1.0667 -1.5735 -3.7018
   69SLPC  H12Y 5943   6.389   6.056   9.445  2.4406 -0.2477 -0.8944
   69SLPC  C313 5944   6.347   5.849   9.469  0.1760  0.5012  0.3978
   69SLPC  H13X 5945   6.243   5.875   9.441 -0.2407 -0.9340  0.5323
   69SLPC  H13Y 5946   6.363   5.766   9.541 -0.2012  0.9466  1.0095
   69SLPC  C314 5947   6.398   5.814   9.330  0.3734 -0.4936 -0.3073
   69SLPC  H14X 5948   6.497   5.861   9.309  0.0932 -0.4669 -1.6410
   69SLPC  H14Y 5949   6.340   5.869   9.253  2.1711  0.2165 -1.2201
   69SLPC  C315 5950   6.419   5.670   9.301 -0.3885 -0.2073  0.0475
   69SLPC  H15X 5951   6.337   5.606   9.340 -1.7802  0.8219 -1.0511
   69SLPC  H15Y 5952   6.509   5.640   9.358 -1.0193  2.7445  2.8336
   69SLPC  C316 5953   6.427   5.640   9.147  0.0108  0.1753  0.1439
   69SLPC  H16X 5954   6.496   5.712   9.099 -0.4560 -0.5950 -1.7726
   69SLPC  H16Y 5955   6.329   5.653   9.097  1.1179  2.0771 -1.6986
   69SLPC  C317 5956   6.446   5.493   9.117  0.1226  0.2197 -0.5403
   69SLPC  H17X 5957   6.406   5.480   9.015 -0.3197  3.8135 -0.9438
   69SLPC  H17Y 5958   6.392   5.428   9.189  1.6407  1.5236  1.9540
   69SLPC  C318 5959   6.601   5.465   9.132 -0.3765  0.7129  0.0109
   69SLPC  H18X 5960   6.614   5.384   9.057 -0.1153 -0.8825  1.7089
   69SLPC  H18Y 5961   6.630   5.432   9.234  0.9441  0.2793 -0.4832
   69SLPC  H18Z 5962   6.656   5.559   9.107 -1.6545  1.4975  0.0703
   70SLPC     N 5963   6.112   2.691  11.300  1.2134 -0.4220 -1.1623
   70SLPC   C13 5964   6.163   2.612  11.422 -0.5825  0.1902 -0.3874
   70SLPC  H13A 5965   6.268   2.588  11.418  0.2036  2.5001  2.4312
   70SLPC  H13B 5966   6.157   2.667  11.516  1.6518 -2.0268  1.1767
   70SLPC  H13C 5967   6.106   2.526  11.451  1.8353 -1.0329  1.0935
   70SLPC   C14 5968   6.203   2.816  11.300  0.2625  0.3197  0.5640
   70SLPC  H14A 5969   6.306   2.791  11.281  0.5927  0.9402  1.4734
   70SLPC  H14B 5970   6.171   2.882  11.220 -1.0401  1.0638  1.6539
   70SLPC  H14C 5971   6.196   2.872  11.392  2.1082 -1.9662  2.2159
   70SLPC   C15 5972   5.976   2.730  11.330  0.2455 -0.0305  0.2928
   70SLPC  H15A 5973   5.946   2.817  11.272 -0.0427 -0.1471  0.2663
   70SLPC  H15B 5974   5.908   2.647  11.323 -0.7801  0.6185  2.0523
   70SLPC  H15C 5975   5.967   2.772  11.429 -0.6384  2.3059 -0.7068
   70SLPC   C12 5976   6.122   2.606  11.168  0.9223  0.1787 -0.3267
   70SLPC  H12A 5977   6.082   2.507  11.189  1.1682  0.3714  1.1519
   70SLPC  H12B 5978   6.228   2.602  11.149  1.1145  2.7894 -0.0970
   70SLPC   C11 5979   6.062   2.660  11.036 -0.7145  0.8625  0.1292
   70SLPC  H11A 5980   5.954   2.673  11.058 -0.4855  1.2473  1.1084
   70SLPC  H11B 5981   6.067   2.578  10.962 -1.8901 -0.6913  1.6971
   70SLPC     P 5982   6.219   2.808  10.890  0.0422 -0.4404 -0.1302
   70SLPC   O13 5983   6.202   2.942  10.825  0.1338  0.2813 -0.4470
   70SLPC   O14 5984   6.353   2.770  10.943 -0.4456  0.2782 -0.2821
   70SLPC   O12 5985   6.116   2.789  11.000  0.4511 -0.1425 -0.0246
   70SLPC   O11 5986   6.178   2.704  10.783  0.2636 -0.3103  0.5074
   70SLPC    C1 5987   6.058   2.705  10.704 -0.0343 -0.0361 -0.0325
   70SLPC    HA 5988   5.998   2.612  10.714 -1.5780  0.7447 -1.4419
   70SLPC    HB 5989   5.986   2.782  10.739  0.5649  0.3998  0.2623
   70SLPC    C2 5990   6.093   2.740  10.555  0.3204  0.1427 -0.6761
   70SLPC    HS 5991   6.166   2.661  10.529  0.8511  0.1235  0.7369
   70SLPC   O21 5992   6.141   2.874  10.556  0.4923 -0.4556  0.0425
   70SLPC   C21 5993   6.263   2.886  10.491 -0.0355 -0.7076 -0.3648
   70SLPC   O22 5994   6.324   2.794  10.444  0.4515  0.0529 -0.0686
   70SLPC   C22 5995   6.313   3.026  10.497  0.6458  0.4850  0.3901
   70SLPC   H2R 5996   6.271   3.074  10.588  0.4573  0.9891  0.0455
   70SLPC   H2S 5997   6.423   3.016  10.504  0.7226 -0.4949 -1.5187
   70SLPC    C3 5998   5.966   2.730  10.466  0.0713 -0.4917  1.2784
   70SLPC    HX 5999   5.871   2.756  10.517 -1.4685 -3.8138  0.4121
   70SLPC    HY 6000   5.961   2.621  10.442  2.4700 -0.8888  2.2226
   70SLPC   O31 6001   5.982   2.800  10.337  0.4545  0.5077 -0.0563
   70SLPC   C31 6002   5.930   2.924  10.331 -0.2545 -0.2420 -0.1572
   70SLPC   O32 6003   5.888   2.985  10.427  0.1787 -0.3751 -0.3181
   70SLPC   C32 6004   5.904   2.963  10.183 -0.2587  0.8394  0.6269
   70SLPC   H2X 6005   5.794   2.962  10.174 -0.1588 -1.4436 -0.9352
   70SLPC   H2Y 6006   5.941   2.887  10.112  0.6984  1.6453  0.2379
   70SLPC   C23 6007   6.277   3.106  10.372  0.1301  0.1384 -0.2192
   70SLPC   H3R 6008   6.167   3.119  10.373  0.2660  1.4908  1.3590
   70SLPC   H3S 6009   6.314   3.044  10.288  0.4498 -1.7586  1.2625
   70SLPC   C24 6010   6.354   3.239  10.355 -0.0313  0.7661 -0.2477
   70SLPC   H4R 6011   6.462   3.221  10.369 -0.4817 -1.0714  1.4651
   70SLPC   H4S 6012   6.320   3.295  10.445  2.0486  2.1053 -0.2427
   70SLPC   C25 6013   6.318   3.312  10.222  0.4783 -0.0773 -0.9175
   70SLPC   H5R 6014   6.361   3.414  10.225  0.3556 -0.0324  1.9312
   70SLPC   H5S 6015   6.207   3.308  10.219  0.4814 -0.4253 -0.6610
   70SLPC   C26 6016   6.377   3.244  10.104 -0.1546 -0.4098 -0.7810
   70SLPC   H6R 6017   6.350   3.137  10.094 -0.1870 -0.4809 -0.0405
   70SLPC   H6S 6018   6.488   3.242  10.105 -0.0011  2.9533 -0.5776
   70SLPC   C27 6019   6.329   3.311   9.968  0.3038 -0.2592  0.5730
   70SLPC   H7R 6020   6.318   3.421   9.984  1.0680 -0.0916 -0.0554
   70SLPC   H7S 6021   6.226   3.273   9.951 -0.0212  0.7905  0.0652
   70SLPC   C28 6022   6.407   3.276   9.838  0.2732 -0.6755 -0.2629
   70SLPC   H8R 6023   6.398   3.165   9.830 -1.4201 -0.5049 -1.0602
   70SLPC   H8S 6024   6.517   3.296   9.839  0.6557 -1.8927  4.4690
   70SLPC   C29 6025   6.337   3.339   9.721  0.5019  0.0904 -0.7905
   70SLPC   H9R 6026   6.314   3.445   9.739  1.0500 -0.2214  2.3520
   70SLPC  C210 6027   6.307   3.293   9.602 -0.3219 -0.4696 -0.0488
   70SLPC  H10R 6028   6.256   3.365   9.536 -0.3089  1.8225  2.2652
   70SLPC  C211 6029   6.332   3.154   9.562 -0.2839 -0.4293  0.2602
   70SLPC  H11R 6030   6.328   3.086   9.650 -0.9690 -0.3596  0.2927
   70SLPC  H11S 6031   6.438   3.144   9.530 -0.8394 -0.0593 -1.8767
   70SLPC  C212 6032   6.238   3.095   9.454 -0.8176  0.2942  0.2925
   70SLPC  H12R 6033   6.140   3.077   9.499 -0.3863  0.4763  1.3363
   70SLPC  C213 6034   6.244   3.104   9.321 -0.2152  0.0441  0.3137
   70SLPC  H13R 6035   6.176   3.051   9.253  1.5818 -0.4289 -1.2132
   70SLPC  C214 6036   6.359   3.163   9.256 -0.2690  0.0127  0.5094
   70SLPC  H14R 6037   6.405   3.252   9.304  1.6849 -1.0056  0.6195
   70SLPC  H14S 6038   6.339   3.200   9.153  3.0053  1.6759  0.3419
   70SLPC  C215 6039   6.475   3.067   9.246  0.0250  0.8416  0.3529
   70SLPC  H15R 6040   6.450   2.979   9.182 -1.4948  0.7505  1.0317
   70SLPC  H15S 6041   6.504   3.024   9.344 -1.8204  0.0383  0.5895
   70SLPC  C216 6042   6.610   3.121   9.181  0.1642  0.4201  0.3565
   70SLPC  H16R 6043   6.700   3.060   9.205 -2.0411 -2.7157  1.3289
   70SLPC  H16S 6044   6.621   3.225   9.220 -1.3057  0.8106 -0.2385
   70SLPC  C217 6045   6.602   3.148   9.032 -0.2570  0.4116  0.0015
   70SLPC  H17R 6046   6.514   3.213   9.014  1.0422  1.3352 -3.8281
   70SLPC  H17S 6047   6.593   3.056   8.969  1.2253  1.1788 -1.3911
   70SLPC  C218 6048   6.723   3.221   8.969 -0.0480  0.9422 -0.8802
   70SLPC  H18R 6049   6.806   3.152   8.945 -1.2755 -1.1506  0.6340
   70SLPC  H18S 6050   6.761   3.298   9.040 -0.1966  1.0059 -0.8705
   70SLPC  H18T 6051   6.691   3.265   8.872  1.0454  1.0416 -1.2088
   70SLPC   C33 6052   5.955   3.097  10.144  0.3513  0.4635 -0.4735
   70SLPC   H3X 6053   6.066   3.096  10.137  0.3212  1.2623 -1.2085
   70SLPC   H3Y 6054   5.926   3.172  10.221  1.1501  1.4911 -1.1518
   70SLPC   C34 6055   5.890   3.134  10.013  0.7093  0.4395 -0.9260
   70SLPC   H4X 6056   5.895   3.244  10.000  0.5112  0.3895 -1.4426
   70SLPC   H4Y 6057   5.779   3.123  10.011  0.6040  0.2554  1.6222
   70SLPC   C35 6058   5.953   3.073   9.890  0.2526 -0.3979  0.9160
   70SLPC   H5X 6059   5.957   2.962   9.888 -0.5578 -0.4409 -1.1168
   70SLPC   H5Y 6060   6.060   3.100   9.893 -0.2646  2.0508 -0.4280
   70SLPC   C36 6061   5.897   3.142   9.761  0.4963  0.0422 -0.2285
   70SLPC   H6X 6062   5.974   3.139   9.682  0.9678  1.3913  0.1603
   70SLPC   H6Y 6063   5.875   3.249   9.777  0.1917 -0.0190 -0.2166
   70SLPC   C37 6064   5.774   3.064   9.698  0.2037  0.3823  0.1804
   70SLPC   H7X 6065   5.682   3.078   9.759 -2.0110 -2.1500 -2.3174
   70SLPC   H7Y 6066   5.800   2.957   9.681  0.9720  0.4990  0.5746
   70SLPC   C38 6067   5.732   3.129   9.563  0.4645  0.0812 -0.0407
   70SLPC   H8X 6068   5.716   3.238   9.575  0.2155 -0.0261  0.6480
   70SLPC   H8Y 6069   5.636   3.082   9.533  0.8524 -0.3720 -0.6185
   70SLPC   C39 6070   5.829   3.099   9.446  0.1516  0.1102 -0.5350
   70SLPC   H9X 6071   5.846   2.989   9.442  0.3356  0.0718  0.8446
   70SLPC   H9Y 6072   5.926   3.153   9.447 -0.9075  2.0792  0.7950
   70SLPC  C310 6073   5.771   3.131   9.306  0.3448  0.5551 -0.1021
   70SLPC  H10X 6074   5.752   3.240   9.302  2.6224  1.0592  1.1938
   70SLPC  H10Y 6075   5.669   3.088   9.294  0.4805 -0.6111  2.3157
   70SLPC  C311 6076   5.857   3.090   9.190  0.2287  0.9345 -0.2533
   70SLPC  H11X 6077   5.849   2.979   9.193  0.1040  0.9627  1.2674
   70SLPC  H11Y 6078   5.962   3.112   9.218  0.1546 -2.1662  3.1684
   70SLPC  C312 6079   5.832   3.136   9.046 -0.4249 -0.5313 -0.5262
   70SLPC  H12X 6080   5.919   3.111   8.982 -1.2391 -0.2273 -1.8062
   70SLPC  H12Y 6081   5.824   3.247   9.046  1.8785 -0.3014 -2.0026
   70SLPC  C313 6082   5.706   3.089   8.962 -0.1062  0.2699  0.2511
   70SLPC  H13X 6083   5.608   3.108   9.012  0.0641 -0.4549  0.8787
   70SLPC  H13Y 6084   5.719   2.981   8.944 -0.5978  0.4737 -1.5226
   70SLPC  C314 6085   5.705   3.161   8.824  0.0388 -0.0166 -1.0114
   70SLPC  H14X 6086   5.802   3.139   8.774  1.0633  0.4833  0.6525
   70SLPC  H14Y 6087   5.691   3.270   8.841 -2.1616 -0.4186  0.0816
   70SLPC  C315 6088   5.595   3.127   8.725  0.3831  0.6652  0.7652
   70SLPC  H15X 6089   5.501   3.118   8.784 -0.1850 -3.0221 -0.4594
   70SLPC  H15Y 6090   5.603   3.029   8.673  0.1159  2.2304 -2.4680
   70SLPC  C316 6091   5.584   3.214   8.602  0.4973  0.5997  0.4785
   70SLPC  H16X 6092   5.686   3.221   8.559 -0.5282  0.9587 -2.0893
   70SLPC  H16Y 6093   5.558   3.317   8.636 -0.7323  1.8488 -3.7007
   70SLPC  C317 6094   5.472   3.181   8.496 -0.3990  0.2285  0.6608
   70SLPC  H17X 6095   5.373   3.207   8.539 -1.5913 -2.0790 -0.4976
   70SLPC  H17Y 6096   5.472   3.070   8.484 -2.5794  0.1567  0.7930
   70SLPC  C318 6097   5.489   3.260   8.367  0.2716 -0.3393  0.6076
   70SLPC  H18X 6098   5.460   3.365   8.387  0.6788  0.2000 -1.3782
   70SLPC  H18Y 6099   5.409   3.226   8.298 -0.2995  1.5370  0.2853
   70SLPC  H18Z 6100   5.585   3.248   8.312  1.1750  0.2241  2.0092
   71SLPC     N 6101   6.495   2.496  10.774 -0.3517  0.3429  0.4707
   71SLPC   C13 6102   6.418   2.545  10.657 -0.1727 -0.1989 -0.2498
   71SLPC  H13A 6103   6.364   2.627  10.702 -0.2629 -0.9195  1.0066
   71SLPC  H13B 6104   6.487   2.578  10.581  1.8495  1.9743  2.3165
   71SLPC  H13C 6105   6.343   2.476  10.620  0.7886 -1.4732  0.0836
   71SLPC   C14 6106   6.607   2.591  10.805 -0.3330  0.4971 -0.6703
   71SLPC  H14A 6107   6.655   2.570  10.899  0.8429  2.4898 -0.7647
   71SLPC  H14B 6108   6.681   2.616  10.730  1.7526 -0.0591  1.1105
   71SLPC  H14C 6109   6.567   2.690  10.822  1.1194  0.7352  1.8164
   71SLPC   C15 6110   6.562   2.365  10.727  0.9099 -0.4290  0.5133
   71SLPC  H15A 6111   6.602   2.376  10.628  0.1996  0.2454  0.2905
   71SLPC  H15B 6112   6.633   2.332  10.802  0.9396 -0.8806  0.2862
   71SLPC  H15C 6113   6.480   2.294  10.724  0.3583  0.1937 -2.7538
   71SLPC   C12 6114   6.405   2.482  10.897  0.1406  0.1836 -0.6232
   71SLPC  H12A 6115   6.382   2.582  10.931  0.2363  0.2103 -0.6363
   71SLPC  H12B 6116   6.471   2.436  10.970  0.6858  2.1884  0.2184
   71SLPC   C11 6117   6.282   2.402  10.884  0.4693  0.1676  0.0074
   71SLPC  H11A 6118   6.207   2.451  10.818  1.1114 -0.7241 -1.4262
   71SLPC  H11B 6119   6.231   2.409  10.983 -0.8644  0.8580 -0.6990
   71SLPC     P 6120   6.233   2.193  10.718  0.0634 -0.0421 -0.0727
   71SLPC   O13 6121   6.325   2.092  10.655  0.1646 -0.0965  0.2312
   71SLPC   O14 6122   6.104   2.140  10.759  0.2332  0.2507  0.3863
   71SLPC   O12 6123   6.305   2.271  10.842  0.7478  0.3279  0.3142
   71SLPC   O11 6124   6.218   2.311  10.605  0.4451 -0.0702  0.4619
   71SLPC    C1 6125   6.086   2.344  10.563 -0.5938 -0.8255  0.3917
   71SLPC    HA 6126   6.008   2.356  10.641 -2.8808 -1.4152 -1.6571
   71SLPC    HB 6127   6.090   2.447  10.520  1.2530 -0.3112  1.6650
   71SLPC    C2 6128   6.022   2.246  10.460  0.9804  0.0806  0.0155
   71SLPC    HS 6129   6.008   2.154  10.521  0.1771 -0.8417 -1.5226
   71SLPC   O21 6130   6.112   2.225  10.353 -0.7746 -0.3325  0.1400
   71SLPC   C21 6131   6.101   2.109  10.293  0.1519 -0.6647  0.3672
   71SLPC   O22 6132   6.048   2.009  10.336  0.5256  0.1732  0.5213
   71SLPC   C22 6133   6.176   2.116  10.159 -0.3052 -0.2635 -0.1439
   71SLPC   H2R 6134   6.105   2.112  10.073  1.5976  1.2352 -1.9184
   71SLPC   H2S 6135   6.234   2.211  10.166 -0.1974 -0.2951 -0.5293
   71SLPC    C3 6136   5.875   2.288  10.413 -0.3908 -0.4988  0.6930
   71SLPC    HX 6137   5.822   2.307  10.509 -0.6362  1.5827  0.2021
   71SLPC    HY 6138   5.828   2.209  10.351  0.8180 -1.2065  0.6538
   71SLPC   O31 6139   5.877   2.411  10.331  0.5411 -0.0034 -0.0882
   71SLPC   C31 6140   5.884   2.395  10.202  0.8382 -0.1819 -0.1053
   71SLPC   O32 6141   5.886   2.295  10.135  0.2791  0.2683 -0.1070
   71SLPC   C32 6142   5.881   2.529  10.135 -0.0994  0.2083  0.3682
   71SLPC   H2X 6143   5.976   2.585  10.151 -1.3483  2.1257  1.4902
   71SLPC   H2Y 6144   5.808   2.591  10.191  0.7133  0.3065  1.3510
   71SLPC   C23 6145   6.271   1.997  10.151  0.3047 -0.2493 -0.2343
   71SLPC   H3R 6146   6.233   1.893  10.161  0.8569 -0.3405  1.1951
   71SLPC   H3S 6147   6.347   2.015  10.231  0.6240 -0.8484 -0.3951
   71SLPC   C24 6148   6.349   2.002  10.026  0.0669  0.7584 -0.3028
   71SLPC   H4R 6149   6.430   1.926  10.030  0.0232  0.6269 -1.4429
   71SLPC   H4S 6150   6.408   2.096  10.028  1.4546  0.0192  3.9455
   71SLPC   C25 6151   6.272   1.974   9.901 -0.9361  0.3687 -0.1826
   71SLPC   H5R 6152   6.195   2.052   9.886 -1.2660 -0.0716 -0.8148
   71SLPC   H5S 6153   6.222   1.875   9.912  1.8623 -1.1144  0.3704
   71SLPC   C26 6154   6.367   1.974   9.782 -0.6257 -0.5743  0.1604
   71SLPC   H6R 6155   6.414   1.874   9.770  1.2353  0.1639  0.9336
   71SLPC   H6S 6156   6.449   2.049   9.786 -0.5227 -0.5644 -1.4729
   71SLPC   C27 6157   6.294   2.012   9.650  0.6998 -0.1359 -0.0100
   71SLPC   H7R 6158   6.372   2.042   9.576  2.8954 -0.2534  2.1316
   71SLPC   H7S 6159   6.235   2.104   9.669 -1.5050 -1.3271 -0.6752
   71SLPC   C28 6160   6.194   1.910   9.602  0.0661  0.0089  0.4747
   71SLPC   H8R 6161   6.107   1.950   9.545 -0.8379  0.0143  1.8062
   71SLPC   H8S 6162   6.147   1.859   9.689  0.0721  0.7911  0.9488
   71SLPC   C29 6163   6.278   1.811   9.517 -0.0197 -0.2948  0.0688
   71SLPC   H9R 6164   6.313   1.729   9.581  1.8590  0.5965  0.2543
   71SLPC  C210 6165   6.287   1.819   9.379 -0.5142 -0.4597 -0.0041
   71SLPC  H10R 6166   6.349   1.751   9.318  2.0988  0.2385  1.7293
   71SLPC  C211 6167   6.221   1.925   9.295 -0.3830  1.0217 -0.9443
   71SLPC  H11R 6168   6.210   2.014   9.361  1.6460  1.5451 -1.2629
   71SLPC  H11S 6169   6.116   1.899   9.268 -0.1470  0.2753 -1.1509
   71SLPC  C212 6170   6.286   1.954   9.164 -0.9326  0.1473  0.5637
   71SLPC  H12R 6171   6.223   1.923   9.079 -0.2121  0.1223  0.0309
   71SLPC  C213 6172   6.401   2.029   9.144 -0.2828  0.1337  0.1148
   71SLPC  H13R 6173   6.443   2.057   9.046  0.1502  2.0035  0.7831
   71SLPC  C214 6174   6.489   2.087   9.250 -0.4419  0.9195 -0.0662
   71SLPC  H14R 6175   6.490   2.029   9.345 -0.2659  0.1229 -0.5456
   71SLPC  H14S 6176   6.443   2.185   9.276  0.9574  2.9347 -4.2467
   71SLPC  C215 6177   6.639   2.097   9.205  0.1132 -0.4301  0.2387
   71SLPC  H15R 6178   6.677   2.011   9.147  1.4895  0.3908 -0.1302
   71SLPC  H15S 6179   6.697   2.104   9.300 -0.4194  0.8340  0.4955
   71SLPC  C216 6180   6.658   2.235   9.124  0.7688 -0.4473 -0.9447
   71SLPC  H16R 6181   6.626   2.319   9.188  0.3149  1.2879 -3.3304
   71SLPC  H16S 6182   6.597   2.240   9.031 -2.0463 -0.1856  0.8156
   71SLPC  C217 6183   6.800   2.256   9.071  0.5562 -0.1821  0.9416
   71SLPC  H17R 6184   6.831   2.165   9.014  1.1097  0.5688  0.0283
   71SLPC  H17S 6185   6.859   2.268   9.164 -1.0721 -0.9402  2.1345
   71SLPC  C218 6186   6.809   2.370   8.971 -0.4326  0.4483  0.2646
   71SLPC  H18R 6187   6.795   2.464   9.029 -0.2145  1.4268 -1.2050
   71SLPC  H18S 6188   6.735   2.366   8.888  2.1628  1.3177 -2.2627
   71SLPC  H18T 6189   6.909   2.389   8.926 -0.8794 -0.3083 -1.1195
   71SLPC   C33 6190   5.851   2.517   9.983 -0.4938  0.1245  0.1592
   71SLPC   H3X 6191   5.766   2.448   9.967  0.8878 -1.3268 -1.4381
   71SLPC   H3Y 6192   5.940   2.469   9.937  0.6321  1.3654  0.9500
   71SLPC   C34 6193   5.823   2.655   9.922 -1.3255  0.6539  0.1587
   71SLPC   H4X 6194   5.898   2.730   9.954  0.0542 -0.6510  0.0677
   71SLPC   H4Y 6195   5.724   2.682   9.965 -1.1099 -0.8742  1.7794
   71SLPC   C35 6196   5.795   2.662   9.764 -0.1576 -0.1113 -0.9018
   71SLPC   H5X 6197   5.754   2.761   9.733 -1.3864 -0.6476 -1.0464
   71SLPC   H5Y 6198   5.711   2.591   9.747  0.8906 -1.2898 -1.2276
   71SLPC   C36 6199   5.924   2.644   9.683  1.0509  0.5842 -0.4618
   71SLPC   H6X 6200   5.968   2.551   9.726 -2.4512 -0.1186  2.1168
   71SLPC   H6Y 6201   5.999   2.725   9.696  0.4236  1.1320 -0.1869
   71SLPC   C37 6202   5.889   2.615   9.536  0.0378 -0.2498 -0.3440
   71SLPC   H7X 6203   5.793   2.670   9.522 -0.4742 -1.1794 -0.5766
   71SLPC   H7Y 6204   5.880   2.506   9.520  0.5297 -0.3643  0.1460
   71SLPC   C38 6205   5.997   2.663   9.431 -0.3038  0.3348 -0.3749
   71SLPC   H8X 6206   6.082   2.591   9.434 -2.6718 -2.6263  1.5805
   71SLPC   H8Y 6207   6.020   2.767   9.462 -1.5292  0.2386  0.9262
   71SLPC   C39 6208   5.943   2.683   9.292 -0.3341 -0.6663  0.5301
   71SLPC   H9X 6209   5.843   2.730   9.301 -0.2813 -0.7644  1.7503
   71SLPC   H9Y 6210   5.937   2.586   9.238 -1.1988 -0.0441 -0.5239
   71SLPC  C310 6211   6.029   2.777   9.203  0.2504 -0.9165  0.6165
   71SLPC  H10X 6212   6.128   2.726   9.205 -0.7053 -2.9676 -0.9297
   71SLPC  H10Y 6213   6.033   2.876   9.253 -2.3387 -0.0516 -0.7305
   71SLPC  C311 6214   5.977   2.775   9.056 -0.3719 -0.0833  0.1909
   71SLPC  H11X 6215   5.907   2.860   9.040 -1.1873 -1.2112 -3.0762
   71SLPC  H11Y 6216   5.918   2.681   9.047  2.0706 -1.8642  1.4914
   71SLPC  C312 6217   6.095   2.780   8.956  0.2121  0.5239  0.3813
   71SLPC  H12X 6218   6.181   2.724   8.999  1.1305  1.3936 -0.2755
   71SLPC  H12Y 6219   6.134   2.884   8.952 -0.3091  0.6962 -0.8567
   71SLPC  C313 6220   6.065   2.733   8.810  0.3563 -0.4974 -0.8286
   71SLPC  H13X 6221   6.032   2.627   8.814  0.3859 -0.5221 -1.2242
   71SLPC  H13Y 6222   6.160   2.722   8.754  1.6470  0.4238  1.0656
   71SLPC  C314 6223   5.971   2.826   8.731  0.3771  0.8091  0.4880
   71SLPC  H14X 6224   5.865   2.809   8.758  0.6156 -0.8171  0.4625
   71SLPC  H14Y 6225   5.968   2.777   8.631  1.2400  0.1599  0.7615
   71SLPC  C315 6226   6.025   2.973   8.723 -0.5653 -1.0482  0.3828
   71SLPC  H15X 6227   5.995   3.015   8.822 -2.9915  1.2668 -1.2085
   71SLPC  H15Y 6228   5.972   3.039   8.651  1.7880 -1.0284 -1.4524
   71SLPC  C316 6229   6.175   2.991   8.683 -0.8616  0.0801 -0.4403
   71SLPC  H16X 6230   6.201   2.924   8.598 -0.4677 -0.2022 -0.1023
   71SLPC  H16Y 6231   6.232   2.942   8.766 -0.5091  0.2867 -0.5565
   71SLPC  C317 6232   6.232   3.135   8.665  0.7629 -0.4988  0.1037
   71SLPC  H17X 6233   6.181   3.197   8.743 -0.8809 -0.8699 -0.6188
   71SLPC  H17Y 6234   6.194   3.179   8.571  4.9092  2.4866 -0.4512
   71SLPC  C318 6235   6.384   3.134   8.676  0.8357 -0.0003 -0.0277
   71SLPC  H18X 6236   6.424   3.235   8.652 -1.4627  1.8809  3.1713
   71SLPC  H18Y 6237   6.422   3.059   8.603 -0.9568  0.4253 -1.4830
   71SLPC  H18Z 6238   6.425   3.106   8.775  0.8635 -0.0453 -0.0512
   72SLPC     N 6239   0.603   0.847  10.593 -0.4024 -0.3953 -0.4684
   72SLPC   C13 6240   0.466   0.904  10.602  0.0467 -0.4633  0.3076
   72SLPC  H13A 6241   0.443   0.913  10.496  1.3286 -0.7913 -0.0077
   72SLPC  H13B 6242   0.390   0.848  10.655  0.1122  0.0383  0.9409
   72SLPC  H13C 6243   0.459   0.999  10.653 -0.3789  0.2914 -1.0731
   72SLPC   C14 6244   0.687   0.961  10.550 -0.1937  0.2788  0.3213
   72SLPC  H14A 6245   0.789   0.932  10.531  0.2341  1.2754  0.9748
   72SLPC  H14B 6246   0.654   1.014  10.462  1.0531 -0.6336 -0.7232
   72SLPC  H14C 6247   0.697   1.039  10.625 -0.4999  1.3456 -0.7161
   72SLPC   C15 6248   0.609   0.741  10.487  0.2684  0.0855  0.5431
   72SLPC  H15A 6249   0.711   0.707  10.492  0.7498  0.4008 -3.5765
   72SLPC  H15B 6250   0.540   0.660  10.510  2.8542 -2.2039  0.7422
   72SLPC  H15C 6251   0.589   0.784  10.391  0.1715 -0.1150  0.4729
   72SLPC   C12 6252   0.649   0.799  10.731 -0.0360 -0.1259  0.6125
   72SLPC  H12A 6253   0.568   0.749  10.783  0.6325  0.7446  2.5910
   72SLPC  H12B 6254   0.668   0.882  10.797  2.5923  0.1394 -0.3746
   72SLPC   C11 6255   0.777   0.712  10.727 -0.4074  0.3082  0.7676
   72SLPC  H11A 6256   0.759   0.618  10.669  1.1609  0.3970  0.0895
   72SLPC  H11B 6257   0.811   0.681  10.828 -0.1922 -1.4403  0.2039
   72SLPC     P 6258   1.023   0.712  10.660 -0.0836  0.1221 -0.2022
   72SLPC   O13 6259   1.112   0.823  10.709 -0.4373 -0.6305 -0.1665
   72SLPC   O14 6260   1.022   0.582  10.731 -0.2979 -0.0092  0.1967
   72SLPC   O12 6261   0.882   0.779  10.653 -0.3795 -0.1187  0.7711
   72SLPC   O11 6262   1.059   0.681  10.507 -0.3383  0.2905  0.5380
   72SLPC    C1 6263   1.035   0.783  10.405 -0.2045  0.9186  0.1991
   72SLPC    HA 6264   0.938   0.835  10.425 -0.4372  0.2364  0.9060
   72SLPC    HB 6265   1.116   0.859  10.406  2.2252 -1.5143 -0.3890
   72SLPC    C2 6266   1.019   0.729  10.254  0.1728  0.2113 -0.1239
   72SLPC    HS 6267   0.930   0.663  10.252  0.1666  0.2282 -0.4823
   72SLPC   O21 6268   1.146   0.666  10.214 -0.4306 -0.7950  0.3874
   72SLPC   C21 6269   1.154   0.541  10.249  0.3517  0.4718  0.0122
   72SLPC   O22 6270   1.065   0.474  10.299  0.2067  0.4074 -0.1659
   72SLPC   C22 6271   1.291   0.483  10.194  0.4192 -0.6782  0.3897
   72SLPC   H2R 6272   1.327   0.546  10.110  0.6729 -2.2003 -0.7057
   72SLPC   H2S 6273   1.367   0.475  10.274 -1.3448 -0.1849  2.2159
   72SLPC    C3 6274   0.977   0.840  10.149 -0.4285 -0.3184 -0.6126
   72SLPC    HX 6275   1.030   0.937  10.164  0.4839 -1.0895  1.5696
   72SLPC    HY 6276   0.871   0.861  10.173  0.3000  0.9661  1.7647
   72SLPC   O31 6277   0.999   0.799  10.007 -0.0659  0.1208 -0.3245
   72SLPC   C31 6278   0.900   0.717   9.967  0.5469  0.2605 -0.0845
   72SLPC   O32 6279   0.805   0.678  10.034 -0.2603 -0.0668  0.2767
   72SLPC   C32 6280   0.926   0.681   9.820  0.2889 -0.6710 -0.1855
   72SLPC   H2X 6281   1.036   0.677   9.809  0.3931  0.1393  0.4617
   72SLPC   H2Y 6282   0.891   0.765   9.755 -0.5108 -2.1447 -1.7225
   72SLPC   C23 6283   1.265   0.344  10.131  0.1538  0.2278  1.2592
   72SLPC   H3R 6284   1.217   0.275  10.204 -0.9045  0.3189  0.6795
   72SLPC   H3S 6285   1.370   0.314  10.110  0.4947  3.2844 -2.6089
   72SLPC   C24 6286   1.186   0.350  10.003  0.5563 -0.1244  0.5114
   72SLPC   H4R 6287   1.237   0.408   9.923 -0.0347  1.5742  1.3196
   72SLPC   H4S 6288   1.085   0.394  10.022  0.8832  1.4037 -1.0267
   72SLPC   C25 6289   1.156   0.204   9.953 -0.1104 -0.3365 -0.2201
   72SLPC   H5R 6290   1.087   0.160  10.029 -2.1273  0.7024 -1.3425
   72SLPC   H5S 6291   1.253   0.151   9.943 -0.9834 -2.0074 -0.1634
   72SLPC   C26 6292   1.083   0.188   9.817  0.3967  0.6607 -0.1823
   72SLPC   H6R 6293   1.111   0.277   9.757  0.5744 -0.9008 -2.5385
   72SLPC   H6S 6294   0.972   0.189   9.829  0.1636  2.8286 -1.8975
   72SLPC   C27 6295   1.136   0.067   9.740 -0.1932 -0.8903  0.4246
   72SLPC   H7R 6296   1.112  -0.025   9.798 -0.4298 -0.5183  0.9225
   72SLPC   H7S 6297   1.246   0.081   9.731 -0.4443  0.0515 -5.6058
   72SLPC   C28 6298   1.094   0.046   9.592 -0.4650  0.3664  0.1423
   72SLPC   H8R 6299   0.985   0.024   9.583 -0.4145 -0.0544  0.4972
   72SLPC   H8S 6300   1.141  -0.049   9.557 -0.3244  1.1943 -2.0369
   72SLPC   C29 6301   1.141   0.161   9.502 -0.0756 -0.1779  0.8864
   72SLPC   H9R 6302   1.116   0.261   9.539  0.8979  0.8680 -1.1333
   72SLPC  C210 6303   1.212   0.162   9.386 -0.0504 -0.1026  0.1246
   72SLPC  H10R 6304   1.224   0.257   9.332 -0.3975  0.1908  0.5557
   72SLPC  C211 6305   1.249   0.030   9.330  0.2301  0.0114 -0.5463
   72SLPC  H11R 6306   1.154  -0.027   9.328  1.3921 -2.0351 -0.4605
   72SLPC  H11S 6307   1.320  -0.028   9.393  0.5983  0.0711 -0.9011
   72SLPC  C212 6308   1.305   0.021   9.192 -0.6746 -0.4513 -0.0810
   72SLPC  H12R 6309   1.412   0.044   9.184 -0.6754 -0.6492 -0.7458
   72SLPC  C213 6310   1.249  -0.031   9.087  0.3091 -0.9070  0.3306
   72SLPC  H13R 6311   1.298  -0.030   8.988 -1.5475 -3.6524 -0.7121
   72SLPC  C214 6312   1.107  -0.085   9.064 -0.0590 -0.1406 -0.2754
   72SLPC  H14R 6313   1.084  -0.154   9.147  0.5337  0.1112  0.1011
   72SLPC  H14S 6314   1.104  -0.159   8.981 -0.7730 -0.4120 -0.0185
   72SLPC  C215 6315   0.997   0.015   9.076 -0.6339 -0.1664  0.6436
   72SLPC  H15R 6316   1.013   0.081   9.164  1.5764  0.0910  0.0954
   72SLPC  H15S 6317   0.899  -0.036   9.090 -0.8186  0.1391  0.4704
   72SLPC  C216 6318   0.995   0.097   8.954 -0.0458 -0.3587 -0.1526
   72SLPC  H16R 6319   0.996   0.038   8.860 -0.6093 -0.8772  0.1538
   72SLPC  H16S 6320   1.087   0.158   8.950  1.2114 -2.0232  1.6432
   72SLPC  C217 6321   0.871   0.191   8.941 -0.0069 -0.2205  0.8226
   72SLPC  H17R 6322   0.874   0.271   9.019 -1.0751  0.4350  0.2021
   72SLPC  H17S 6323   0.773   0.139   8.940 -0.0208 -0.1840  0.4663
   72SLPC  C218 6324   0.889   0.270   8.806  0.1190  0.0556  0.3942
   72SLPC  H18R 6325   0.818   0.356   8.813 -1.7454 -1.5649  2.7813
   72SLPC  H18S 6326   0.861   0.188   8.736  0.0688 -0.5788  1.1530
   72SLPC  H18T 6327   0.990   0.311   8.783 -1.0958  2.1933 -1.5466
   72SLPC   C33 6328   0.847   0.550   9.794 -1.1447  0.0362  0.4485
   72SLPC   H3X 6329   0.736   0.554   9.792 -1.1829  0.0122  1.8405
   72SLPC   H3Y 6330   0.879   0.474   9.868 -3.4035 -0.0811  1.3750
   72SLPC   C34 6331   0.888   0.473   9.666  0.5328 -0.3498 -0.7261
   72SLPC   H4X 6332   0.845   0.371   9.675  0.9070 -0.3724  1.1920
   72SLPC   H4Y 6333   0.995   0.444   9.655  0.6809  0.1057 -0.4959
   72SLPC   C35 6334   0.853   0.535   9.533  0.3166 -0.1579 -0.3035
   72SLPC   H5X 6335   0.907   0.632   9.526 -1.3673  0.7350 -1.8352
   72SLPC   H5Y 6336   0.744   0.556   9.525  0.8695  2.5268 -2.0891
   72SLPC   C36 6337   0.900   0.451   9.413 -0.7528  0.0705  0.0688
   72SLPC   H6X 6338   0.834   0.362   9.413  0.7299 -1.0870 -0.5954
   72SLPC   H6Y 6339   1.004   0.411   9.411  0.2380  2.4278 -3.5344
   72SLPC   C37 6340   0.868   0.515   9.279  0.2660  0.1303  0.2064
   72SLPC   H7X 6341   0.932   0.469   9.201 -0.8019 -1.2709  0.1239
   72SLPC   H7Y 6342   0.891   0.624   9.289  2.9370 -0.3411 -0.1379
   72SLPC   C38 6343   0.722   0.505   9.235 -0.5828 -0.2829 -0.5445
   72SLPC   H8X 6344   0.669   0.566   9.311 -0.1133  0.9807 -1.1921
   72SLPC   H8Y 6345   0.685   0.400   9.230  0.4132 -0.6524 -0.4463
   72SLPC   C39 6346   0.699   0.586   9.107  0.3715  0.1463 -0.2054
   72SLPC   H9X 6347   0.720   0.519   9.020  1.3325 -0.4669  0.4849
   72SLPC   H9Y 6348   0.773   0.667   9.094 -0.9576  1.4239 -0.1440
   72SLPC  C310 6349   0.557   0.656   9.086 -0.1891 -0.1296 -0.1633
   72SLPC  H10X 6350   0.528   0.736   9.158  0.6421 -1.4702  1.7566
   72SLPC  H10Y 6351   0.479   0.579   9.106 -0.0903 -0.5255 -1.2354
   72SLPC  C311 6352   0.543   0.734   8.958  0.6741 -0.1767 -0.1660
   72SLPC  H11X 6353   0.585   0.836   8.967  0.9288 -0.1677 -1.3858
   72SLPC  H11Y 6354   0.434   0.754   8.963  0.6254 -0.0248 -1.6282
   72SLPC  C312 6355   0.589   0.657   8.837  0.4757 -0.4123  0.7110
   72SLPC  H12X 6356   0.533   0.561   8.834  0.6029 -0.4882  0.7414
   72SLPC  H12Y 6357   0.697   0.632   8.844  0.4535 -1.3113 -1.3642
   72SLPC  C313 6358   0.554   0.727   8.708 -1.1413 -0.0514  0.0566
   72SLPC  H13X 6359   0.603   0.825   8.688 -1.8784  0.1315 -0.9294
   72SLPC  H13Y 6360   0.449   0.763   8.717 -0.7570  1.1344 -0.0439
   72SLPC  C314 6361   0.571   0.633   8.587  0.0122 -0.2019  0.0939
   72SLPC  H14X 6362   0.548   0.695   8.497  0.5134 -2.2894 -1.5433
   72SLPC  H14Y 6363   0.494   0.553   8.582 -0.2526  0.0657 -0.1432
   72SLPC  C315 6364   0.714   0.576   8.569 -0.1902 -0.0360  0.4690
   72SLPC  H15X 6365   0.704   0.483   8.628 -3.7585  0.2308  0.4835
   72SLPC  H15Y 6366   0.790   0.632   8.628  0.2690  1.3347 -1.3258
   72SLPC  C316 6367   0.768   0.545   8.430  0.2706  0.5078  0.1490
   72SLPC  H16X 6368   0.784   0.639   8.372 -2.7023  0.6997 -0.4989
   72SLPC  H16Y 6369   0.696   0.492   8.364  1.6528 -1.3226  0.0101
   72SLPC  C317 6370   0.902   0.471   8.445 -0.1880  0.2572  0.3952
   72SLPC  H17X 6371   0.886   0.387   8.516 -0.5703  2.2332  2.8330
   72SLPC  H17Y 6372   0.973   0.540   8.495 -0.6933  1.0560  0.0327
   72SLPC  C318 6373   0.966   0.434   8.313  0.8419  0.3268  0.0961
   72SLPC  H18X 6374   0.913   0.354   8.257  2.7335  0.1131 -1.4915
   72SLPC  H18Y 6375   1.065   0.392   8.343  1.0929 -0.4152 -1.6556
   72SLPC  H18Z 6376   0.978   0.522   8.246 -2.1890  2.1377  1.7153
   73SLPC     N 6377   0.469   6.506  11.006 -0.8008 -0.1246  0.3554
   73SLPC   C13 6378   0.535   6.598  11.100 -0.0102 -0.4420 -0.4106
   73SLPC  H13A 6379   0.610   6.660  11.053 -0.9947 -0.1262 -1.6142
   73SLPC  H13B 6380   0.457   6.655  11.147 -0.6139 -0.8246 -0.9418
   73SLPC  H13C 6381   0.577   6.535  11.177 -1.9860 -1.9978 -0.5293
   73SLPC   C14 6382   0.379   6.576  10.910 -0.3008  0.6074 -0.0541
   73SLPC  H14A 6383   0.334   6.505  10.843 -1.9147 -0.4873  2.0452
   73SLPC  H14B 6384   0.318   6.648  10.962  0.4440  0.9259  0.3992
   73SLPC  H14C 6385   0.433   6.640  10.842 -2.1941  1.0095 -1.2573
   73SLPC   C15 6386   0.378   6.414  11.084 -0.4680 -1.0939 -0.2273
   73SLPC  H15A 6387   0.321   6.353  11.015  0.2137 -0.5550 -1.2908
   73SLPC  H15B 6388   0.433   6.351  11.152 -0.0236  0.3338  0.7831
   73SLPC  H15C 6389   0.321   6.472  11.155  2.4258  1.0213  0.5617
   73SLPC   C12 6390   0.572   6.418  10.928  0.3876 -0.0340 -0.1273
   73SLPC  H12A 6391   0.643   6.487  10.886 -0.9954  0.9195 -0.9921
   73SLPC  H12B 6392   0.533   6.368  10.841  0.8442  0.0614 -0.3893
   73SLPC   C11 6393   0.648   6.304  11.010  0.1952 -0.8232  0.1959
   73SLPC  H11A 6394   0.680   6.345  11.109  0.9708 -0.4895 -0.1806
   73SLPC  H11B 6395   0.739   6.280  10.950 -0.6586 -1.2060 -0.9857
   73SLPC     P 6396   0.499   6.109  10.916 -0.7173  0.1952  0.0686
   73SLPC   O13 6397   0.545   5.967  10.936  0.2790  0.1684  0.3120
   73SLPC   O14 6398   0.353   6.116  10.913 -0.6800 -0.9962 -0.7157
   73SLPC   O12 6399   0.568   6.192  11.029 -0.2371 -0.1663 -1.0166
   73SLPC   O11 6400   0.571   6.154  10.781 -0.0602 -0.0466  0.0078
   73SLPC    C1 6401   0.688   6.081  10.750 -0.0808 -0.0929  0.0531
   73SLPC    HA 6402   0.768   6.098  10.825 -0.4859 -0.8593  0.6740
   73SLPC    HB 6403   0.663   5.975  10.729 -0.1421  0.1652 -1.2237
   73SLPC    C2 6404   0.759   6.137  10.626  1.0924 -0.1579  0.6005
   73SLPC    HS 6405   0.791   6.240  10.657  0.9024  0.1747 -0.2780
   73SLPC   O21 6406   0.661   6.140  10.520 -0.0048 -0.2538 -0.4144
   73SLPC   C21 6407   0.700   6.201  10.407  0.4112  0.7641  0.2226
   73SLPC   O22 6408   0.800   6.271  10.391 -0.5932  1.0589  0.1676
   73SLPC   C22 6409   0.590   6.185  10.303  0.3254  0.9652  0.9694
   73SLPC   H2R 6410   0.507   6.126  10.347  0.1273  0.1995 -0.3809
   73SLPC   H2S 6411   0.558   6.287  10.271  0.5485  0.7108 -0.0760
   73SLPC    C3 6412   0.896   6.062  10.606  0.4041 -0.4737 -0.0360
   73SLPC    HX 6413   0.936   6.051  10.709  1.1893  0.3382 -0.2427
   73SLPC    HY 6414   0.963   6.132  10.550  1.1202  0.4928  1.9381
   73SLPC   O31 6415   0.885   5.936  10.537 -0.0870  0.4513  0.0545
   73SLPC   C31 6416   0.987   5.857  10.538 -0.3922  0.2193 -0.8362
   73SLPC   O32 6417   1.096   5.879  10.592  0.1948 -0.0279 -0.0549
   73SLPC   C32 6418   0.954   5.720  10.473 -0.0243  0.2396 -0.4239
   73SLPC   H2X 6419   0.846   5.717  10.451 -0.6882  0.4864  2.3468
   73SLPC   H2Y 6420   0.982   5.639  10.544  1.9831  0.3549 -1.0130
   73SLPC   C23 6421   0.635   6.127  10.166  0.1635 -0.5077 -0.0527
   73SLPC   H3R 6422   0.647   6.021  10.196 -1.2280 -0.2632  1.4980
   73SLPC   H3S 6423   0.733   6.165  10.129  0.0402 -0.0811  0.0552
   73SLPC   C24 6424   0.540   6.143  10.048  0.4261 -0.2616 -0.3755
   73SLPC   H4R 6425   0.495   6.244  10.047 -1.8545 -1.2055 -1.3841
   73SLPC   H4S 6426   0.460   6.066  10.055  1.0711 -1.0689 -1.5382
   73SLPC   C25 6427   0.606   6.106   9.915  0.5262  0.1625 -0.6307
   73SLPC   H5R 6428   0.622   6.000   9.944 -0.3052  0.3173  0.4637
   73SLPC   H5S 6429   0.710   6.146   9.907  0.8901 -0.8938 -1.3912
   73SLPC   C26 6430   0.522   6.123   9.788  0.4884 -0.0437  0.1880
   73SLPC   H6R 6431   0.483   6.227   9.786  1.2943  0.2712  0.4127
   73SLPC   H6S 6432   0.434   6.056   9.803 -0.5754  1.0547 -0.9359
   73SLPC   C27 6433   0.591   6.079   9.658 -0.5025  0.5179  0.5338
   73SLPC   H7R 6434   0.618   5.972   9.669  2.1357  0.9734 -0.6575
   73SLPC   H7S 6435   0.687   6.133   9.641  0.1665 -0.7529  0.2001
   73SLPC   C28 6436   0.494   6.099   9.537 -0.2110  0.3590  0.0378
   73SLPC   H8R 6437   0.406   6.034   9.557  1.6084 -2.6571 -1.0548
   73SLPC   H8S 6438   0.533   6.052   9.444 -1.5279 -0.4759 -0.1303
   73SLPC   C29 6439   0.461   6.243   9.493  0.4697  0.4610 -0.5036
   73SLPC   H9R 6440   0.550   6.305   9.473 -1.2209  1.9201 -4.2843
   73SLPC  C210 6441   0.339   6.299   9.508  0.0895  0.7538  0.4609
   73SLPC  H10R 6442   0.323   6.405   9.483  0.8401  1.0511  1.1918
   73SLPC  C211 6443   0.207   6.234   9.549 -0.6052 -0.0549 -0.4693
   73SLPC  H11R 6444   0.143   6.311   9.596 -0.0068 -0.5043  1.1720
   73SLPC  H11S 6445   0.223   6.164   9.634  0.0576 -1.3097 -1.5898
   73SLPC  C212 6446   0.143   6.145   9.443  0.4400 -0.8193 -0.5562
   73SLPC  H12R 6447   0.203   6.055   9.422  0.4708 -0.8637 -0.2889
   73SLPC  C213 6448   0.026   6.160   9.375  0.2608  0.2714  0.1362
   73SLPC  H13R 6449   0.007   6.088   9.294 -0.9873 -0.6087  1.1466
   73SLPC  C214 6450  -0.079   6.270   9.404  0.1673 -0.2625  0.3587
   73SLPC  H14R 6451  -0.063   6.335   9.492  1.0388  0.5785 -0.4030
   73SLPC  H14S 6452  -0.178   6.221   9.411  0.0876 -0.5565 -2.0947
   73SLPC  C215 6453  -0.072   6.371   9.286 -0.7210 -0.4482  0.0879
   73SLPC  H15R 6454  -0.156   6.444   9.294  1.5960  2.4153  0.0884
   73SLPC  H15S 6455  -0.081   6.323   9.186  0.4588 -0.9492  0.2155
   73SLPC  C216 6456   0.051   6.467   9.293 -0.5189  0.4795 -0.1782
   73SLPC  H16R 6457   0.143   6.405   9.289 -1.4593 -0.9278 -0.7595
   73SLPC  H16S 6458   0.044   6.530   9.384 -2.0773  0.2776 -0.1278
   73SLPC  C217 6459   0.050   6.562   9.169  0.0632  0.4403  0.1438
   73SLPC  H17R 6460  -0.052   6.604   9.165  0.2009  0.7883  0.2231
   73SLPC  H17S 6461   0.071   6.496   9.082  0.9470  2.3047 -1.1402
   73SLPC  C218 6462   0.151   6.675   9.187 -0.1997  0.6772  0.3568
   73SLPC  H18R 6463   0.253   6.633   9.201 -0.1755 -0.4353 -2.4758
   73SLPC  H18S 6464   0.133   6.729   9.282  0.7131  0.5698  0.6001
   73SLPC  H18T 6465   0.158   6.746   9.101 -0.5242  0.3717  0.0738
   73SLPC   C33 6466   1.032   5.697  10.336 -0.1092 -0.3964 -0.4565
   73SLPC   H3X 6467   1.014   5.593  10.301 -2.1356 -0.4913  0.7218
   73SLPC   H3Y 6468   1.137   5.724  10.360 -1.0329  0.6174  3.0659
   73SLPC   C34 6469   0.978   5.785  10.229  0.0469  0.5966 -0.6034
   73SLPC   H4X 6470   0.991   5.895  10.236 -0.3113  0.7774 -2.2411
   73SLPC   H4Y 6471   0.868   5.767  10.228  0.2668 -0.9432 -2.6983
   73SLPC   C35 6472   1.033   5.749  10.086  0.0461 -0.1081  0.3860
   73SLPC   H5X 6473   1.001   5.645  10.061  1.0751 -0.1584 -0.8098
   73SLPC   H5Y 6474   1.144   5.752  10.078 -0.0440  0.2179 -0.9116
   73SLPC   C36 6475   0.968   5.832   9.975  0.0856 -0.4603 -0.8006
   73SLPC   H6X 6476   0.976   5.940   9.998  0.2865 -0.9796  1.8900
   73SLPC   H6Y 6477   0.858   5.814   9.971  0.2911 -1.6416 -1.8135
   73SLPC   C37 6478   1.024   5.798   9.834  0.0230 -0.6931  0.4694
   73SLPC   H7X 6479   0.991   5.698   9.798 -0.9613 -0.5656  0.9816
   73SLPC   H7Y 6480   1.135   5.801   9.837  0.0186  0.9126 -0.1940
   73SLPC   C38 6481   0.990   5.898   9.720 -0.6956  0.2509  0.5890
   73SLPC   H8X 6482   1.062   5.982   9.718 -0.9110  0.4241 -0.0674
   73SLPC   H8Y 6483   0.885   5.932   9.733 -0.1315  2.5470 -0.4181
   73SLPC   C39 6484   1.000   5.821   9.588  0.2002 -0.3777  0.3170
   73SLPC   H9X 6485   0.930   5.735   9.587 -2.4914  1.6341 -2.0805
   73SLPC   H9Y 6486   1.104   5.788   9.566  0.1468  0.7297 -1.9371
   73SLPC  C310 6487   0.951   5.898   9.461 -0.0652 -0.5226 -0.3429
   73SLPC  H10X 6488   0.995   6.000   9.463 -2.0335  0.3777  0.2702
   73SLPC  H10Y 6489   0.840   5.897   9.462 -0.0853 -2.4908 -0.2581
   73SLPC  C311 6490   0.984   5.822   9.332  0.6681 -0.2935  0.7032
   73SLPC  H11X 6491   0.974   5.712   9.343  0.8740 -0.5826 -1.6636
   73SLPC  H11Y 6492   1.091   5.849   9.314 -0.4871  4.3386 -0.6067
   73SLPC  C312 6493   0.898   5.882   9.215 -0.0777  0.1962 -0.3812
   73SLPC  H12X 6494   0.939   5.984   9.202  0.2002  0.0688 -0.5126
   73SLPC  H12Y 6495   0.787   5.887   9.222 -0.0599  0.0994  0.0080
   73SLPC  C313 6496   0.926   5.801   9.088 -0.1978  0.1341  0.6350
   73SLPC  H13X 6497   0.883   5.699   9.086 -0.1905  0.1072  1.4430
   73SLPC  H13Y 6498   1.037   5.799   9.076 -0.4266  0.5374 -2.3460
   73SLPC  C314 6499   0.877   5.873   8.954  0.2094  0.4982  1.2238
   73SLPC  H14X 6500   0.956   5.859   8.877 -1.1190  1.2495 -0.3638
   73SLPC  H14Y 6501   0.875   5.982   8.977  1.0890  0.6045  0.8333
   73SLPC  C315 6502   0.745   5.843   8.898  0.0135 -0.2476 -0.0077
   73SLPC  H15X 6503   0.679   5.851   8.987  0.0849  2.9336 -0.1364
   73SLPC  H15Y 6504   0.749   5.747   8.842  1.2188 -0.1881 -0.0518
   73SLPC  C316 6505   0.702   5.951   8.800 -0.0076  0.3007 -0.1795
   73SLPC  H16X 6506   0.770   5.960   8.713  1.7111 -1.9242  0.8201
   73SLPC  H16Y 6507   0.701   6.049   8.852 -2.1261 -0.6069  1.6707
   73SLPC  C317 6508   0.552   5.936   8.751 -0.2647 -0.9330 -0.6355
   73SLPC  H17X 6509   0.491   5.942   8.844  0.7703 -1.8103  0.1286
   73SLPC  H17Y 6510   0.544   5.837   8.702 -1.9535 -0.3168 -1.6976
   73SLPC  C318 6511   0.509   6.038   8.653  0.2090 -0.7365  0.3101
   73SLPC  H18X 6512   0.566   6.037   8.558  0.2851  0.2814  0.3365
   73SLPC  H18Y 6513   0.536   6.140   8.687 -2.3112 -0.0186  0.3543
   73SLPC  H18Z 6514   0.403   6.031   8.621  0.6021 -2.0690 -0.7938
   74SLPC     N 6515   1.871   0.512  10.757  0.0153  0.1481  0.1756
   74SLPC   C13 6516   1.962   0.607  10.828 -0.1624  0.1574 -0.4247
   74SLPC  H13A 6517   2.050   0.552  10.856 -0.8514 -0.5071  0.4806
   74SLPC  H13B 6518   1.996   0.689  10.766 -0.3756  0.0187 -0.7294
   74SLPC  H13C 6519   1.909   0.642  10.916 -1.4444  0.2418 -1.1922
   74SLPC   C14 6520   1.759   0.591  10.714  0.0618  0.2415 -0.1832
   74SLPC  H14A 6521   1.721   0.659  10.788  1.3783  0.2105  0.5419
   74SLPC  H14B 6522   1.793   0.663  10.640  0.4701  1.3748  1.0705
   74SLPC  H14C 6523   1.670   0.533  10.692  0.2639 -1.7000  3.4048
   74SLPC   C15 6524   1.826   0.401  10.848 -0.3882 -1.1224  0.2266
   74SLPC  H15A 6525   1.764   0.326  10.802 -0.2618  0.1467 -2.1916
   74SLPC  H15B 6526   1.916   0.357  10.888  1.1409  0.2045 -1.5387
   74SLPC  H15C 6527   1.772   0.436  10.935 -3.3246 -1.2118 -1.4502
   74SLPC   C12 6528   1.937   0.457  10.638  0.3299  0.4405 -0.4844
   74SLPC  H12A 6529   2.028   0.415  10.677  0.4190  1.8610  0.9150
   74SLPC  H12B 6530   1.961   0.541  10.575 -0.2534 -0.2664 -1.6813
   74SLPC   C11 6531   1.868   0.344  10.558 -0.4280  0.4860 -0.5115
   74SLPC  H11A 6532   1.939   0.317  10.478 -1.1890  0.1685 -1.0911
   74SLPC  H11B 6533   1.775   0.372  10.503 -0.6407 -0.6685 -0.7574
   74SLPC     P 6534   1.978   0.125  10.668  0.4998 -0.3596 -0.2570
   74SLPC   O13 6535   2.094   0.197  10.730  0.1463 -0.3635  0.0388
   74SLPC   O14 6536   1.932   0.008  10.748  0.0657  0.3186  0.3393
   74SLPC   O12 6537   1.849   0.228  10.648  0.4156 -0.4343  0.2481
   74SLPC   O11 6538   2.014   0.085  10.516 -0.5593 -0.6994  0.7598
   74SLPC    C1 6539   1.932   0.005  10.425  0.5479 -0.5547  0.2938
   74SLPC    HA 6540   1.947  -0.106  10.427 -1.5480 -0.9665 -2.0463
   74SLPC    HB 6541   1.825   0.028  10.441 -0.4157 -3.0051 -1.8948
   74SLPC    C2 6542   1.978   0.040  10.276  0.3632 -0.2586 -0.8598
   74SLPC    HS 6543   2.076  -0.008  10.256  0.9374 -0.0104  1.1629
   74SLPC   O21 6544   1.984   0.186  10.260  0.4925  0.2211  0.2979
   74SLPC   C21 6545   2.100   0.241  10.266  0.9799 -0.3306  0.2996
   74SLPC   O22 6546   2.202   0.192  10.312  0.1188  0.8876  0.4144
   74SLPC   C22 6547   2.095   0.386  10.226  0.1451  0.3439  0.1097
   74SLPC   H2R 6548   2.014   0.431  10.286  1.2723  0.2084  1.8114
   74SLPC   H2S 6549   2.193   0.432  10.250  1.0403 -1.3387 -0.1579
   74SLPC    C3 6550   1.882  -0.020  10.168 -0.4196  0.1311  0.2396
   74SLPC    HX 6551   1.775   0.004  10.190 -0.8194 -0.0931 -1.3474
   74SLPC    HY 6552   1.898  -0.129  10.188  1.0959  0.0324 -1.2764
   74SLPC   O31 6553   1.907   0.020  10.032 -0.2420  0.0619 -0.7380
   74SLPC   C31 6554   1.991  -0.051   9.964 -0.6009 -0.5641 -0.0928
   74SLPC   O32 6555   2.057  -0.148  10.003  0.5930  0.2916  0.6512
   74SLPC   C32 6556   2.005   0.002   9.819  0.3176  0.2622 -0.1590
   74SLPC   H2X 6557   2.106   0.047   9.816  0.2477  0.6012  1.6392
   74SLPC   H2Y 6558   1.919   0.071   9.804  1.9402  2.1536 -1.2746
   74SLPC   C23 6559   2.068   0.409  10.075  0.1552  0.5551  0.7494
   74SLPC   H3R 6560   2.073   0.520  10.067  1.4009  0.6845  2.6369
   74SLPC   H3S 6561   1.969   0.368  10.047  0.2487  0.9320 -0.2029
   74SLPC   C24 6562   2.178   0.355   9.980 -0.3514  0.0492  0.1075
   74SLPC   H4R 6563   2.160   0.386   9.875 -0.9814 -2.7866 -0.6937
   74SLPC   H4S 6564   2.170   0.244   9.984  0.6619 -0.0081  1.3654
   74SLPC   C25 6565   2.325   0.374  10.043  0.0513  0.3349 -0.5114
   74SLPC   H5R 6566   2.322   0.297  10.124 -2.0634  1.5272  0.6453
   74SLPC   H5S 6567   2.334   0.471  10.096 -2.8516 -0.8054  2.4338
   74SLPC   C26 6568   2.445   0.327   9.957 -0.1357 -0.4210  0.3045
   74SLPC   H6R 6569   2.410   0.228   9.920 -0.6299  0.3533 -1.4215
   74SLPC   H6S 6570   2.537   0.307  10.015 -0.1405  0.4227  0.6078
   74SLPC   C27 6571   2.476   0.429   9.843 -0.2620 -0.1801 -0.7986
   74SLPC   H7R 6572   2.506   0.516   9.905 -0.0417 -0.2433 -0.8141
   74SLPC   H7S 6573   2.380   0.449   9.792 -0.2308  2.9584  0.1767
   74SLPC   C28 6574   2.575   0.392   9.736  0.1039 -0.4374  0.0073
   74SLPC   H8R 6575   2.676   0.372   9.777 -0.0577 -1.1409  0.0701
   74SLPC   H8S 6576   2.589   0.482   9.672 -0.1768 -0.2421  0.2230
   74SLPC   C29 6577   2.543   0.266   9.657  0.9890 -0.2489 -0.5976
   74SLPC   H9R 6578   2.547   0.180   9.726  2.9115  1.6330  1.8276
   74SLPC  C210 6579   2.511   0.252   9.526  0.2747 -0.1187  0.8800
   74SLPC  H10R 6580   2.508   0.155   9.475 -0.7111  1.7708 -3.0867
   74SLPC  C211 6581   2.507   0.358   9.425  0.1458 -0.1833 -0.1118
   74SLPC  H11R 6582   2.609   0.357   9.381  0.9764 -0.7008  1.7484
   74SLPC  H11S 6583   2.489   0.459   9.468 -1.6866 -0.7651  0.5650
   74SLPC  C212 6584   2.395   0.333   9.324  0.1595  0.3471 -0.1062
   74SLPC  H12R 6585   2.303   0.393   9.330  0.0792  0.1800  0.3688
   74SLPC  C213 6586   2.400   0.241   9.228 -0.8850  0.6581  0.2569
   74SLPC  H13R 6587   2.315   0.231   9.160 -0.5077 -4.0784  0.1646
   74SLPC  C214 6588   2.502   0.139   9.201 -0.1653 -0.6977  0.0167
   74SLPC  H14R 6589   2.456   0.042   9.229  2.0439 -1.6962  0.4048
   74SLPC  H14S 6590   2.599   0.141   9.256 -0.4463 -0.1424  0.5067
   74SLPC  C215 6591   2.528   0.130   9.054 -0.5968 -0.1128  0.3746
   74SLPC  H15R 6592   2.566   0.226   9.013 -0.2009 -0.1633  0.6146
   74SLPC  H15S 6593   2.434   0.107   9.000 -1.0024  1.6064  0.2846
   74SLPC  C216 6594   2.637   0.023   9.014 -0.7302 -0.8856  0.2559
   74SLPC  H16R 6595   2.623  -0.077   9.061  2.2755 -1.5758 -0.1329
   74SLPC  H16S 6596   2.726   0.059   9.070 -1.0348  0.4116 -0.0737
   74SLPC  C217 6597   2.660   0.008   8.866  0.3120  0.1952  0.5471
   74SLPC  H17R 6598   2.562   0.006   8.814  0.8682  0.9041 -0.5816
   74SLPC  H17S 6599   2.714  -0.089   8.854  0.5574  0.5129 -1.1328
   74SLPC  C218 6600   2.740   0.113   8.797 -0.4704 -0.0150  0.2506
   74SLPC  H18R 6601   2.750   0.101   8.687 -2.5590  1.7874 -0.2049
   74SLPC  H18S 6602   2.838   0.113   8.848 -0.1899 -3.7511 -0.0638
   74SLPC  H18T 6603   2.697   0.213   8.821  2.5309  1.2927  0.5525
   74SLPC   C33 6604   2.004  -0.120   9.720  0.6198  0.6313 -0.6229
   74SLPC   H3X 6605   1.909  -0.178   9.729  1.9935 -1.6502  0.2201
   74SLPC   H3Y 6606   2.092  -0.184   9.744 -0.1236 -0.5575 -0.9618
   74SLPC   C34 6607   2.024  -0.078   9.576  0.6613 -0.1277  0.1818
   74SLPC   H4X 6608   2.128  -0.044   9.561 -0.1346  2.3603 -0.1909
   74SLPC   H4Y 6609   1.957   0.006   9.547 -0.0292 -0.9775 -0.7836
   74SLPC   C35 6610   1.987  -0.204   9.490 -0.2489 -0.1562 -0.0798
   74SLPC   H5X 6611   1.899  -0.262   9.527 -1.9748  1.7414 -0.9893
   74SLPC   H5Y 6612   2.080  -0.263   9.497 -0.7440 -0.9252  0.1396
   74SLPC   C36 6613   1.980  -0.164   9.342 -0.5695  0.2861 -0.0087
   74SLPC   H6X 6614   2.071  -0.110   9.308 -0.2645  0.1955  0.6498
   74SLPC   H6Y 6615   1.894  -0.095   9.348  0.7127  1.8378  1.6427
   74SLPC   C37 6616   1.942  -0.283   9.249 -0.3453 -0.3472 -0.5645
   74SLPC   H7X 6617   1.875  -0.341   9.316  1.2994  0.2146  1.6876
   74SLPC   H7Y 6618   2.032  -0.347   9.241  1.0887  1.2223  1.7882
   74SLPC   C38 6619   1.874  -0.240   9.119  0.0609  0.7686 -0.1641
   74SLPC   H8X 6620   1.950  -0.197   9.050 -0.8411 -0.1685 -1.8113
   74SLPC   H8Y 6621   1.800  -0.162   9.148 -0.0265  0.1020  1.5004
   74SLPC   C39 6622   1.810  -0.361   9.050 -0.3545 -0.7821 -0.0032
   74SLPC   H9X 6623   1.722  -0.385   9.114 -0.7008  2.9942  1.1481
   74SLPC   H9Y 6624   1.879  -0.447   9.036 -2.9175 -3.0309  0.4370
   74SLPC  C310 6625   1.749  -0.307   8.922  0.0886  0.3607  0.2854
   74SLPC  H10X 6626   1.823  -0.252   8.859 -0.1856  1.9268  1.2646
   74SLPC  H10Y 6627   1.658  -0.246   8.942 -0.7614 -1.2587  1.5202
   74SLPC  C311 6628   1.701  -0.421   8.838  0.2167  0.1152 -0.1380
   74SLPC  H11X 6629   1.638  -0.497   8.889  1.7426 -2.1475 -1.4492
   74SLPC  H11Y 6630   1.782  -0.481   8.791  0.2284  0.3039 -0.3624
   74SLPC  C312 6631   1.602  -0.368   8.732 -0.2898 -0.6000 -0.3813
   74SLPC  H12X 6632   1.670  -0.321   8.659 -0.3425 -0.4250 -0.3180
   74SLPC  H12Y 6633   1.536  -0.290   8.776  0.5855  0.2702 -0.6001
   74SLPC  C313 6634   1.516  -0.473   8.665  0.4420  0.5771  1.0678
   74SLPC  H13X 6635   1.455  -0.529   8.741  0.1041 -3.1958 -1.6706
   74SLPC  H13Y 6636   1.589  -0.544   8.621 -0.3204 -0.2104  1.0268
   74SLPC  C314 6637   1.427  -0.412   8.555 -0.1722  0.0263 -0.0808
   74SLPC  H14X 6638   1.476  -0.330   8.499 -0.2585 -0.4179 -0.8237
   74SLPC  H14Y 6639   1.330  -0.376   8.594 -0.6613  0.1307 -1.3411
   74SLPC  C315 6640   1.389  -0.515   8.454 -0.0399  0.4796  0.5615
   74SLPC  H15X 6641   1.349  -0.604   8.507  1.5003 -0.4587  0.2079
   74SLPC  H15Y 6642   1.483  -0.548   8.404  0.2112 -0.7590  1.7974
   74SLPC  C316 6643   1.279  -0.483   8.347  0.6202 -0.5538 -0.3331
   74SLPC  H16X 6644   1.241  -0.580   8.309 -0.3380  1.0120 -3.7842
   74SLPC  H16Y 6645   1.323  -0.425   8.264  1.8305  0.5541  1.0392
   74SLPC  C317 6646   1.150  -0.409   8.389 -1.2137  0.4626 -0.3383
   74SLPC  H17X 6647   1.075  -0.402   8.308 -1.1501  0.0268 -0.4404
   74SLPC  H17Y 6648   1.178  -0.308   8.426 -0.2835 -0.0137  0.3068
   74SLPC  C318 6649   1.083  -0.491   8.497 -0.8024  0.1120 -0.1854
   74SLPC  H18X 6650   0.979  -0.465   8.524 -0.0863  1.1921  1.7604
   74SLPC  H18Y 6651   1.144  -0.495   8.590 -0.6798 -0.3522 -0.2830
   74SLPC  H18Z 6652   1.062  -0.599   8.480  0.6374 -0.6736  2.3446
   75SLPC     N 6653   6.376   2.989   6.283  0.2997  0.3261  0.2944
   75SLPC   C13 6654   6.504   2.989   6.217 -0.4769  0.3525  0.0222
   75SLPC  H13A 6655   6.490   3.023   6.115 -0.4081 -2.3162 -0.9561
   75SLPC  H13B 6656   6.576   3.055   6.264 -1.0920  1.7849 -0.9757
   75SLPC  H13C 6657   6.557   2.895   6.208 -0.5020  0.4911 -2.0073
   75SLPC   C14 6658   6.296   2.886   6.212 -0.1670 -0.4955  0.2198
   75SLPC  H14A 6659   6.197   2.889   6.254  0.4055  0.5091  1.5726
   75SLPC  H14B 6660   6.264   2.910   6.112 -2.9063  1.2677  1.4043
   75SLPC  H14C 6661   6.344   2.789   6.212  0.4642 -0.1884  0.5378
   75SLPC   C15 6662   6.308   3.126   6.279  0.2650 -0.4343 -0.4884
   75SLPC  H15A 6663   6.210   3.131   6.325  0.7798  2.1808  0.4949
   75SLPC  H15B 6664   6.359   3.202   6.337 -0.5308 -0.3368  0.0979
   75SLPC  H15C 6665   6.294   3.164   6.179 -0.1844  0.2661 -0.1670
   75SLPC   C12 6666   6.396   2.948   6.430 -0.6133 -0.5349  0.5914
   75SLPC  H12A 6667   6.454   3.019   6.487  0.8388 -0.4375 -0.9142
   75SLPC  H12B 6668   6.465   2.865   6.426  1.2643  0.9830 -0.8242
   75SLPC   C11 6669   6.277   2.899   6.516 -0.3300 -0.5060  0.6557
   75SLPC  H11A 6670   6.180   2.953   6.503  0.2819  0.4502 -0.0878
   75SLPC  H11B 6671   6.315   2.912   6.619 -2.6054  2.0750  1.3002
   75SLPC     P 6672   6.351   2.641   6.495  0.3485  0.0609 -0.1414
   75SLPC   O13 6673   6.276   2.517   6.470 -0.1219  0.1488 -0.3001
   75SLPC   O14 6674   6.473   2.663   6.417 -0.0453 -0.0948  0.8010
   75SLPC   O12 6675   6.255   2.765   6.473 -0.2550  0.1351 -0.3158
   75SLPC   O11 6676   6.391   2.645   6.649  0.0708  0.1376  0.5804
   75SLPC    C1 6677   6.291   2.646   6.747  0.3867  0.7723 -0.7018
   75SLPC    HA 6678   6.250   2.748   6.761  1.4094  1.2165 -0.8437
   75SLPC    HB 6679   6.211   2.573   6.721  1.2725 -0.5742  0.2110
   75SLPC    C2 6680   6.351   2.590   6.880  0.8186  0.5857 -0.5177
   75SLPC    HS 6681   6.271   2.585   6.957 -1.7294 -1.0580 -3.0840
   75SLPC   O21 6682   6.475   2.657   6.914 -0.1237  0.6759  0.2612
   75SLPC   C21 6683   6.455   2.770   6.975 -0.2514  0.6458 -0.0290
   75SLPC   O22 6684   6.348   2.826   6.992  0.6420  0.1594 -0.7761
   75SLPC   C22 6685   6.591   2.826   7.041  0.3566  0.1373 -0.0568
   75SLPC   H2R 6686   6.659   2.739   7.051  1.0302  0.8806  2.6363
   75SLPC   H2S 6687   6.626   2.915   6.983 -0.2280  1.4819  1.5615
   75SLPC    C3 6688   6.373   2.434   6.865 -0.7363  0.3164 -0.0865
   75SLPC    HX 6689   6.462   2.423   6.800 -0.8186 -1.3673  0.0514
   75SLPC    HY 6690   6.285   2.392   6.812  0.4537 -1.5421 -0.6897
   75SLPC   O31 6691   6.377   2.370   6.998 -0.5166  0.2645  0.3647
   75SLPC   C31 6692   6.483   2.289   7.025 -0.4770 -0.3441  1.1406
   75SLPC   O32 6693   6.570   2.249   6.948 -0.6312  0.1208  0.5441
   75SLPC   C32 6694   6.481   2.269   7.176  0.6395 -0.0917  0.1022
   75SLPC   H2X 6695   6.404   2.192   7.199  1.0366 -0.3313  0.6777
   75SLPC   H2Y 6696   6.435   2.361   7.216  0.1649 -0.7209  1.0560
   75SLPC   C23 6697   6.572   2.861   7.192  0.3480  0.7424  0.9122
   75SLPC   H3R 6698   6.496   2.940   7.212  1.1352  1.3028  1.8025
   75SLPC   H3S 6699   6.675   2.881   7.229  2.9466 -2.6022 -3.5796
   75SLPC   C24 6700   6.519   2.741   7.278 -0.2708 -0.1589  0.5073
   75SLPC   H4R 6701   6.593   2.659   7.270  0.3022  0.1423  2.3576
   75SLPC   H4S 6702   6.422   2.703   7.239  0.6206 -0.7663 -1.2393
   75SLPC   C25 6703   6.520   2.784   7.425 -0.0645  0.0980  0.1156
   75SLPC   H5R 6704   6.493   2.891   7.437  0.9371  0.3613  0.0827
   75SLPC   H5S 6705   6.615   2.771   7.481  0.3314  0.2042 -0.5258
   75SLPC   C26 6706   6.405   2.712   7.498 -1.3198  0.0773 -0.7585
   75SLPC   H6R 6707   6.324   2.684   7.427 -0.3848  0.1606 -1.8732
   75SLPC   H6S 6708   6.363   2.776   7.579  0.8003 -0.7578  1.1219
   75SLPC   C27 6709   6.457   2.584   7.568 -0.3326 -0.0022  0.5047
   75SLPC   H7R 6710   6.548   2.606   7.628 -0.4359  0.5071  0.4804
   75SLPC   H7S 6711   6.491   2.522   7.483 -1.1960 -2.2337  1.7000
   75SLPC   C28 6712   6.355   2.494   7.642  0.4977  0.5568  0.6910
   75SLPC   H8R 6713   6.409   2.400   7.666  0.4725  0.1830 -0.6094
   75SLPC   H8S 6714   6.271   2.479   7.571  2.0519  1.8489 -1.5402
   75SLPC   C29 6715   6.305   2.557   7.769 -0.2254 -0.3798 -0.0257
   75SLPC   H9R 6716   6.220   2.624   7.749 -0.4544 -0.1347  1.6168
   75SLPC  C210 6717   6.352   2.555   7.894 -0.8798 -1.1333  0.0284
   75SLPC  H10R 6718   6.294   2.604   7.974  0.8660  2.8106 -0.8470
   75SLPC  C211 6719   6.477   2.476   7.916  0.3004  0.8241 -0.1722
   75SLPC  H11R 6720   6.529   2.530   7.998 -0.7415 -0.7799  1.6448
   75SLPC  H11S 6721   6.546   2.481   7.830  0.3789 -3.6085 -0.6139
   75SLPC  C212 6722   6.451   2.337   7.955  0.3848  0.5000 -0.3154
   75SLPC  H12R 6723   6.416   2.274   7.872 -1.4254  2.0231 -0.7527
   75SLPC  C213 6724   6.471   2.284   8.076 -0.7161 -0.2096 -0.6029
   75SLPC  H13R 6725   6.432   2.184   8.098 -1.3402  0.1824  0.0869
   75SLPC  C214 6726   6.519   2.359   8.200  0.2922 -0.6214 -0.1903
   75SLPC  H14R 6727   6.460   2.342   8.293  1.2955  0.8986  0.7847
   75SLPC  H14S 6728   6.523   2.470   8.197  1.8775 -0.6527  0.1336
   75SLPC  C215 6729   6.659   2.302   8.237 -0.4804  0.0306  0.1706
   75SLPC  H15R 6730   6.705   2.361   8.319 -1.8853  3.6574 -1.4451
   75SLPC  H15S 6731   6.727   2.326   8.153  0.9900 -1.5637  0.8219
   75SLPC  C216 6732   6.661   2.140   8.259 -0.2762  0.0213  0.2181
   75SLPC  H16R 6733   6.768   2.118   8.280 -0.1003 -1.2898 -1.7448
   75SLPC  H16S 6734   6.638   2.099   8.159  2.6666 -0.5486 -0.3119
   75SLPC  C217 6735   6.582   2.093   8.385 -0.1233 -0.3500  0.5390
   75SLPC  H17R 6736   6.589   1.985   8.407 -0.5165 -0.4290  0.2884
   75SLPC  H17S 6737   6.478   2.127   8.363  0.2419  1.6235  1.6080
   75SLPC  C218 6738   6.614   2.166   8.518 -0.6666  0.2234  0.3452
   75SLPC  H18R 6739   6.577   2.271   8.514  0.5682  0.8185  2.7930
   75SLPC  H18S 6740   6.722   2.163   8.544 -0.7171 -0.7095  0.4874
   75SLPC  H18T 6741   6.552   2.122   8.599  0.2588 -0.2303  0.8212
   75SLPC   C33 6742   6.613   2.238   7.250 -0.7359 -0.4488 -0.0479
   75SLPC   H3X 6743   6.663   2.146   7.214 -1.7795 -0.9580 -0.2443
   75SLPC   H3Y 6744   6.679   2.326   7.231 -0.6133 -0.2225  1.3197
   75SLPC   C34 6745   6.591   2.223   7.394  0.6054  0.3265 -0.6748
   75SLPC   H4X 6746   6.583   2.113   7.401 -0.3590  0.3611 -1.0225
   75SLPC   H4Y 6747   6.500   2.270   7.439  1.0631 -1.3734  2.2687
   75SLPC   C35 6748   6.708   2.267   7.486 -0.7159 -0.3095 -0.7260
   75SLPC   H5X 6749   6.715   2.378   7.492  1.9068 -0.4659  0.4233
   75SLPC   H5Y 6750   6.804   2.227   7.448 -1.0496 -0.1740 -1.7549
   75SLPC   C36 6751   6.675   2.232   7.632  0.2984 -0.8008  0.9244
   75SLPC   H6X 6752   6.636   2.128   7.628 -2.5306  0.1919  0.4000
   75SLPC   H6Y 6753   6.594   2.300   7.666 -0.0550 -0.0624 -1.2555
   75SLPC   C37 6754   6.787   2.240   7.733 -0.6140  0.3295 -0.2588
   75SLPC   H7X 6755   6.764   2.306   7.819  2.4103  1.2813 -0.0725
   75SLPC   H7Y 6756   6.877   2.271   7.677 -1.2041 -0.7453 -1.8884
   75SLPC   C38 6757   6.820   2.099   7.789 -0.6522  0.4340 -0.1379
   75SLPC   H8X 6758   6.809   2.026   7.706  0.9240  1.4641 -1.3166
   75SLPC   H8Y 6759   6.744   2.072   7.865  0.6985 -0.7238  0.8412
   75SLPC   C39 6760   6.953   2.091   7.868 -0.1585 -0.5308  0.7190
   75SLPC   H9X 6761   6.986   2.171   7.938  1.3669 -0.1655 -0.3549
   75SLPC   H9Y 6762   7.027   2.098   7.785 -0.0708  0.0272  0.8391
   75SLPC  C310 6763   6.970   1.964   7.947  0.4827 -0.1556  0.2700
   75SLPC  H10X 6764   6.952   1.874   7.884  2.1773 -1.6763  1.8209
   75SLPC  H10Y 6765   6.897   1.973   8.031 -2.3545 -0.9234 -1.9511
   75SLPC  C311 6766   7.113   1.956   8.006  1.0452  0.1454 -0.2726
   75SLPC  H11X 6767   7.129   2.056   8.051  3.8103  1.5354 -3.8082
   75SLPC  H11Y 6768   7.187   1.941   7.924  1.5434  0.4303  0.1217
   75SLPC  C312 6769   7.122   1.835   8.105 -0.2257 -0.3872 -0.4524
   75SLPC  H12X 6770   7.075   1.747   8.056  0.6375 -0.5617 -0.9852
   75SLPC  H12Y 6771   7.063   1.848   8.198 -0.5709 -1.2412 -0.5483
   75SLPC  C313 6772   7.263   1.801   8.160  0.2833 -0.3175 -0.5317
   75SLPC  H13X 6773   7.302   1.899   8.196 -0.8147  0.8150 -2.2666
   75SLPC  H13Y 6774   7.329   1.768   8.077  1.4822  2.1520 -0.6444
   75SLPC  C314 6775   7.261   1.696   8.269  0.4435  0.3746 -0.0681
   75SLPC  H14X 6776   7.213   1.605   8.229 -0.7911  0.0024  2.1078
   75SLPC  H14Y 6777   7.181   1.729   8.339  0.1385  1.3613 -0.8608
   75SLPC  C315 6778   7.389   1.675   8.352 -0.5016 -0.1988  0.2081
   75SLPC  H15X 6779   7.438   1.771   8.380  1.0951 -0.7952 -0.3749
   75SLPC  H15Y 6780   7.471   1.628   8.292 -0.4896  0.9717 -0.7397
   75SLPC  C316 6781   7.372   1.598   8.476  0.0897  0.2016 -0.4988
   75SLPC  H16X 6782   7.378   1.492   8.443  1.4845  0.5651 -1.5169
   75SLPC  H16Y 6783   7.279   1.596   8.536  1.5143  0.9095  1.8917
   75SLPC  C317 6784   7.469   1.631   8.591 -0.1227 -0.2410 -0.4915
   75SLPC  H17X 6785   7.442   1.732   8.629  0.8891  0.0375 -0.5000
   75SLPC  H17Y 6786   7.571   1.638   8.549 -0.1111  0.9246 -0.2923
   75SLPC  C318 6787   7.459   1.528   8.705 -0.1341  0.5093 -1.1726
   75SLPC  H18X 6788   7.548   1.551   8.768  1.8123 -1.9548 -2.8326
   75SLPC  H18Y 6789   7.477   1.425   8.669  0.9632  0.0206  0.6090
   75SLPC  H18Z 6790   7.354   1.533   8.742  0.4570  2.1341  0.4728
   76SLPC     N 6791   2.353   1.814   6.325 -0.1491 -0.2922 -0.6914
   76SLPC   C13 6792   2.278   1.847   6.201  0.3256 -0.0488  0.2142
   76SLPC  H13A 6793   2.339   1.816   6.117  0.0072 -1.5569  0.5195
   76SLPC  H13B 6794   2.191   1.784   6.195  1.3542 -1.5651  0.7161
   76SLPC  H13C 6795   2.256   1.953   6.204 -0.6318 -0.2510  0.6100
   76SLPC   C14 6796   2.469   1.904   6.335  0.5210  0.0664 -0.4494
   76SLPC  H14A 6797   2.514   1.897   6.433 -0.8393  2.0907  0.3877
   76SLPC  H14B 6798   2.545   1.892   6.259  1.2219 -2.0658  0.5269
   76SLPC  H14C 6799   2.434   2.006   6.329 -1.3259 -0.5256 -0.3693
   76SLPC   C15 6800   2.401   1.673   6.313 -0.0881  0.1204  0.4714
   76SLPC  H15A 6801   2.482   1.666   6.242  0.4256  3.1876  0.6203
   76SLPC  H15B 6802   2.441   1.646   6.410  1.1826  1.9664  0.5141
   76SLPC  H15C 6803   2.331   1.596   6.284 -0.6881  0.1712  1.6866
   76SLPC   C12 6804   2.263   1.848   6.449 -0.6899  0.5280  0.4176
   76SLPC  H12A 6805   2.235   1.952   6.439  0.5644  1.1453  2.7284
   76SLPC  H12B 6806   2.315   1.845   6.543  1.6237 -0.4393 -0.8185
   76SLPC   C11 6807   2.134   1.764   6.463 -0.9273  0.0913 -0.6910
   76SLPC  H11A 6808   2.096   1.794   6.563 -1.5156  0.0098 -0.8817
   76SLPC  H11B 6809   2.171   1.659   6.463  0.2971  0.5065 -1.2650
   76SLPC     P 6810   1.915   1.880   6.354 -0.2774  0.1119  0.2559
   76SLPC   O13 6811   1.926   1.984   6.252 -0.4859 -0.2843  0.0735
   76SLPC   O14 6812   1.791   1.792   6.358 -0.1240  0.2856  0.2989
   76SLPC   O12 6813   2.042   1.790   6.349  0.2613  0.0961 -0.4158
   76SLPC   O11 6814   1.919   1.959   6.490  0.2148 -0.5223  0.6677
   76SLPC    C1 6815   1.813   1.952   6.587 -0.2579 -0.1185 -0.3249
   76SLPC    HA 6816   1.716   1.971   6.537 -1.0369 -3.6844 -0.4074
   76SLPC    HB 6817   1.813   1.855   6.641  0.3359 -0.2365 -0.5225
   76SLPC    C2 6818   1.839   2.069   6.684 -0.0709 -0.2812 -0.6582
   76SLPC    HS 6819   1.885   2.147   6.619  2.3223 -1.1561 -0.0985
   76SLPC   O21 6820   1.931   2.030   6.779 -0.1082  0.0027  0.0833
   76SLPC   C21 6821   2.003   2.123   6.840 -0.3350  0.5237  0.1267
   76SLPC   O22 6822   1.994   2.239   6.824 -0.7543  0.2491  0.8410
   76SLPC   C22 6823   2.068   2.054   6.964 -0.1881  1.0320  0.7445
   76SLPC   H2R 6824   1.980   2.029   7.027 -0.4024  0.1067  0.0978
   76SLPC   H2S 6825   2.117   1.962   6.927  0.4001  1.4920  0.3576
   76SLPC    C3 6826   1.714   2.132   6.757 -0.3892  0.6941 -0.0094
   76SLPC    HX 6827   1.636   2.148   6.680  0.3050  1.9107 -0.4867
   76SLPC    HY 6828   1.740   2.233   6.794 -1.8218  0.8910  0.4921
   76SLPC   O31 6829   1.672   2.048   6.867  0.6347 -0.6022  0.2102
   76SLPC   C31 6830   1.554   2.078   6.914 -0.2852  0.9079  0.2777
   76SLPC   O32 6831   1.476   2.152   6.861  0.4011  0.2479 -0.3883
   76SLPC   C32 6832   1.530   1.997   7.041  0.1105  0.4567 -0.2558
   76SLPC   H2X 6833   1.570   1.896   7.022 -0.0604  0.0488  1.3960
   76SLPC   H2Y 6834   1.422   2.009   7.064 -0.2485 -0.0260 -1.6325
   76SLPC   C23 6835   2.173   2.131   7.051 -0.4720 -0.1133  0.0296
   76SLPC   H3R 6836   2.139   2.232   7.082 -1.6495 -1.1092  2.2517
   76SLPC   H3S 6837   2.257   2.162   6.985 -1.0212 -1.5987 -1.4562
   76SLPC   C24 6838   2.234   2.045   7.158  0.2981  0.1851  0.2430
   76SLPC   H4R 6839   2.293   1.962   7.112  0.8613  1.9513 -2.4624
   76SLPC   H4S 6840   2.155   1.995   7.218 -0.9702  0.5284 -1.1007
   76SLPC   C25 6841   2.327   2.127   7.244  0.0692 -0.5098  0.1151
   76SLPC   H5R 6842   2.283   2.221   7.285  0.9183 -0.4870  0.9999
   76SLPC   H5S 6843   2.416   2.161   7.187 -0.7674  0.5433 -0.6181
   76SLPC   C26 6844   2.352   2.051   7.376  0.1103  0.0148 -0.1940
   76SLPC   H6R 6845   2.441   1.988   7.354 -0.6379 -0.9943 -0.4123
   76SLPC   H6S 6846   2.261   1.990   7.394 -0.4126  0.8995  0.2282
   76SLPC   C27 6847   2.368   2.142   7.502 -0.1415  0.7051 -0.2435
   76SLPC   H7R 6848   2.284   2.211   7.525 -2.4535 -2.2034  0.6877
   76SLPC   H7S 6849   2.464   2.193   7.479  0.3405  0.5196  1.2611
   76SLPC   C28 6850   2.371   2.051   7.628  0.6685  0.0429 -0.2332
   76SLPC   H8R 6851   2.349   2.106   7.722  2.1075  1.9223 -0.9064
   76SLPC   H8S 6852   2.298   1.969   7.615  0.9574 -0.3000  0.2856
   76SLPC   C29 6853   2.511   1.992   7.657  0.2379 -0.1388  0.1642
   76SLPC   H9R 6854   2.592   2.066   7.671 -0.9615  0.9032  1.8739
   76SLPC  C210 6855   2.538   1.859   7.680 -0.6124 -0.7506 -0.1889
   76SLPC  H10R 6856   2.644   1.836   7.697 -0.0734 -0.0355 -2.2944
   76SLPC  C211 6857   2.445   1.740   7.670  1.2493 -0.0121 -0.2741
   76SLPC  H11R 6858   2.342   1.765   7.634 -0.0826 -1.0558  2.4958
   76SLPC  H11S 6859   2.415   1.711   7.773 -3.9650  0.4872 -1.3584
   76SLPC  C212 6860   2.486   1.621   7.595 -0.0905 -0.5970  0.2761
   76SLPC  H12R 6861   2.461   1.638   7.489 -0.6435  1.2165  0.6641
   76SLPC  C213 6862   2.562   1.515   7.628  0.5928 -0.4500 -0.6371
   76SLPC  H13R 6863   2.588   1.440   7.552 -1.3741 -0.9448 -0.8709
   76SLPC  C214 6864   2.609   1.505   7.771 -0.0945  0.0671  0.0998
   76SLPC  H14R 6865   2.617   1.610   7.807 -1.2463  0.0429  0.4846
   76SLPC  H14S 6866   2.711   1.461   7.778 -0.1027  0.0359  0.0291
   76SLPC  C215 6867   2.516   1.415   7.852  0.5247  0.6576 -0.0099
   76SLPC  H15R 6868   2.531   1.313   7.810  0.5804  0.2998  0.8594
   76SLPC  H15S 6869   2.408   1.441   7.849  0.9118  2.3015 -2.0535
   76SLPC  C216 6870   2.559   1.404   8.003 -0.4077 -0.2369  0.0817
   76SLPC  H16R 6871   2.546   1.504   8.050  0.1198  1.0118 -2.2888
   76SLPC  H16S 6872   2.667   1.382   8.005 -0.3988 -0.1983 -0.0052
   76SLPC  C217 6873   2.481   1.286   8.065 -1.1313 -0.0417 -0.6525
   76SLPC  H17R 6874   2.485   1.199   7.996  0.0653 -1.5778  1.2287
   76SLPC  H17S 6875   2.373   1.306   8.080 -1.7768 -2.8558 -0.9270
   76SLPC  C218 6876   2.547   1.253   8.200 -0.4156 -0.1284 -0.1506
   76SLPC  H18R 6877   2.537   1.340   8.269 -1.6028  1.1620 -1.8740
   76SLPC  H18S 6878   2.653   1.222   8.189  0.1590  0.7542  2.2733
   76SLPC  H18T 6879   2.490   1.165   8.236 -0.7220 -0.6308 -1.8019
   76SLPC   C33 6880   1.619   2.051   7.156  0.2718  0.5186  0.4023
   76SLPC   H3X 6881   1.579   2.146   7.196 -1.3082  0.0349  0.0203
   76SLPC   H3Y 6882   1.721   2.075   7.119 -0.0813 -0.1959 -1.1207
   76SLPC   C34 6883   1.616   1.952   7.277  0.4359  0.0898  0.5565
   76SLPC   H4X 6884   1.642   1.852   7.235 -2.0646 -0.7244  0.7869
   76SLPC   H4Y 6885   1.507   1.949   7.297 -0.4766 -1.4052 -3.5208
   76SLPC   C35 6886   1.721   1.995   7.381 -0.5899  0.1009  0.2280
   76SLPC   H5X 6887   1.718   2.105   7.396 -0.1692  0.3750 -1.4992
   76SLPC   H5Y 6888   1.818   1.959   7.340 -2.0155 -2.8114 -0.9106
   76SLPC   C36 6889   1.697   1.906   7.510  0.6746  0.1806  0.4144
   76SLPC   H6X 6890   1.685   1.798   7.483 -1.1438  0.6156 -0.6974
   76SLPC   H6Y 6891   1.599   1.934   7.554 -0.6567 -1.8907 -1.0176
   76SLPC   C37 6892   1.808   1.914   7.613 -0.1486  0.4785  0.4826
   76SLPC   H7X 6893   1.831   2.015   7.654 -3.6191  1.7449 -0.3400
   76SLPC   H7Y 6894   1.903   1.868   7.578  1.9218  3.2158  2.0698
   76SLPC   C38 6895   1.769   1.840   7.743  0.1835  0.1503 -0.1397
   76SLPC   H8X 6896   1.756   1.730   7.735  0.1506  0.1799 -0.5369
   76SLPC   H8Y 6897   1.668   1.878   7.768  0.5897 -0.9441  3.9038
   76SLPC   C39 6898   1.854   1.879   7.869 -0.1249 -0.1359 -0.5019
   76SLPC   H9X 6899   1.890   1.984   7.865 -3.5403  1.2077  0.6330
   76SLPC   H9Y 6900   1.942   1.811   7.868  0.0975 -0.1034  3.4774
   76SLPC  C310 6901   1.769   1.847   7.996  0.0512 -0.2419  1.2131
   76SLPC  H10X 6902   1.728   1.743   7.992  1.9966 -1.0173 -0.3510
   76SLPC  H10Y 6903   1.690   1.924   7.998  0.2405 -0.0587  1.6283
   76SLPC  C311 6904   1.859   1.847   8.106  0.6343  0.3608 -0.4392
   76SLPC  H11X 6905   1.911   1.945   8.109  0.5425  0.5163 -2.5384
   76SLPC  H11Y 6906   1.927   1.760   8.098  1.4585  0.9366  0.1580
   76SLPC  C312 6907   1.796   1.828   8.244 -0.0790  0.2635 -0.9968
   76SLPC  H12X 6908   1.707   1.762   8.235 -1.0474  1.4122 -0.1300
   76SLPC  H12Y 6909   1.753   1.926   8.273  2.3090  0.6750  1.6100
   76SLPC  C313 6910   1.893   1.783   8.354 -0.4156 -0.3065  0.0611
   76SLPC  H13X 6911   1.980   1.852   8.350 -0.2487 -0.5815 -1.4281
   76SLPC  H13Y 6912   1.927   1.680   8.332 -2.8672 -1.0719 -0.4545
   76SLPC  C314 6913   1.829   1.789   8.497 -0.1651 -0.2584  0.4247
   76SLPC  H14X 6914   1.723   1.757   8.488  0.2370 -2.0271  1.3928
   76SLPC  H14Y 6915   1.828   1.894   8.531  2.0457  0.3483 -1.1678
   76SLPC  C315 6916   1.910   1.688   8.581  0.1503 -0.8431  0.2552
   76SLPC  H15X 6917   2.017   1.714   8.564  0.1774 -1.5425 -0.7390
   76SLPC  H15Y 6918   1.907   1.579   8.561  0.4221 -0.7490 -0.3450
   76SLPC  C316 6919   1.881   1.719   8.722 -0.2308  0.2706 -0.0080
   76SLPC  H16X 6920   1.776   1.699   8.753  0.0214  0.2625  0.8703
   76SLPC  H16Y 6921   1.889   1.825   8.752  1.4977  1.0930 -3.0148
   76SLPC  C317 6922   1.972   1.633   8.813  0.6799 -0.6482 -0.7941
   76SLPC  H17X 6923   2.081   1.641   8.792  0.7429 -0.5147 -0.4237
   76SLPC  H17Y 6924   1.944   1.526   8.803 -0.8801 -0.2659 -0.8496
   76SLPC  C318 6925   1.936   1.668   8.960 -0.1272 -0.0398 -0.9501
   76SLPC  H18X 6926   1.985   1.605   9.037  0.7020  0.5503 -0.9754
   76SLPC  H18Y 6927   1.828   1.679   8.984 -0.2366 -0.0571 -1.4226
   76SLPC  H18Z 6928   1.994   1.761   8.981  0.9688 -1.2407  1.9307
   77SLPC     N 6929   3.193   1.535   6.257  0.1329  0.1801  0.4664
   77SLPC   C13 6930   3.258   1.458   6.147 -0.5655 -0.2540 -0.3076
   77SLPC  H13A 6931   3.279   1.356   6.176  1.3912  0.3987  0.7805
   77SLPC  H13B 6932   3.195   1.456   6.059 -0.1551  2.4186 -0.7479
   77SLPC  H13C 6933   3.350   1.506   6.116 -0.6597  0.5247  0.5632
   77SLPC   C14 6934   3.069   1.470   6.299 -0.5395  0.4877 -0.0246
   77SLPC  H14A 6935   3.078   1.362   6.293 -0.9899  0.5184 -1.5048
   77SLPC  H14B 6936   3.034   1.499   6.397 -3.1771  2.7520 -1.5351
   77SLPC  H14C 6937   2.989   1.488   6.229 -0.6175  0.0492 -0.0513
   77SLPC   C15 6938   3.164   1.672   6.202 -0.0819 -0.8503 -0.3269
   77SLPC  H15A 6939   3.255   1.725   6.179 -0.0973 -0.8661 -0.4229
   77SLPC  H15B 6940   3.110   1.669   6.109  0.6454  0.1690 -0.7904
   77SLPC  H15C 6941   3.098   1.729   6.266 -1.3366 -1.0085 -1.4361
   77SLPC   C12 6942   3.297   1.551   6.373  0.1822  0.0156 -0.1294
   77SLPC  H12A 6943   3.382   1.596   6.323 -0.7262  0.2097 -1.5581
   77SLPC  H12B 6944   3.332   1.453   6.404  0.0414 -0.0409 -0.1503
   77SLPC   C11 6945   3.254   1.633   6.492 -0.1772  0.3078 -0.4195
   77SLPC  H11A 6946   3.308   1.600   6.583 -0.4564 -1.6237 -0.9067
   77SLPC  H11B 6947   3.151   1.617   6.531  0.1320  0.4292  0.4708
   77SLPC     P 6948   3.369   1.863   6.557 -0.4350 -0.3524  0.2822
   77SLPC   O13 6949   3.509   1.837   6.507  0.6554 -0.2119 -0.1627
   77SLPC   O14 6950   3.330   2.004   6.542  0.2889  0.1207  0.7789
   77SLPC   O12 6951   3.265   1.776   6.465  0.1820 -0.0168  0.4041
   77SLPC   O11 6952   3.357   1.814   6.703  0.3210  0.6306  0.3312
   77SLPC    C1 6953   3.230   1.823   6.762  0.1227  0.4841 -0.1165
   77SLPC    HA 6954   3.201   1.929   6.781 -2.3708 -0.4635  2.0547
   77SLPC    HB 6955   3.151   1.782   6.696  1.8980  0.2688 -2.2216
   77SLPC    C2 6956   3.216   1.744   6.903  0.2417  0.1009 -0.1092
   77SLPC    HS 6957   3.116   1.779   6.937  0.0401  2.4452 -2.7141
   77SLPC   O21 6958   3.325   1.778   6.988  0.3942 -0.4683  0.1293
   77SLPC   C21 6959   3.292   1.815   7.114  0.7672 -0.2202 -0.0515
   77SLPC   O22 6960   3.171   1.829   7.153 -0.8652  0.2426 -0.2410
   77SLPC   C22 6961   3.410   1.821   7.195  0.1657 -0.5421  0.3672
   77SLPC   H2R 6962   3.501   1.784   7.142 -0.6740 -1.9204 -0.1609
   77SLPC   H2S 6963   3.429   1.927   7.225 -0.5564 -1.0798  2.9919
   77SLPC    C3 6964   3.216   1.591   6.877 -0.5716 -0.1716  0.1930
   77SLPC    HX 6965   3.322   1.558   6.864 -0.5683 -0.2300  0.3637
   77SLPC    HY 6966   3.148   1.562   6.794 -1.1593 -1.7373  1.1815
   77SLPC   O31 6967   3.169   1.524   6.994  0.1850  0.2002  0.0675
   77SLPC   C31 6968   3.039   1.525   7.019  0.6063 -0.0630 -0.0093
   77SLPC   O32 6969   2.952   1.572   6.949 -0.4608  0.0758  0.3572
   77SLPC   C32 6970   3.020   1.462   7.153  0.1674  0.3685  0.2159
   77SLPC   H2X 6971   3.043   1.548   7.220  2.1370 -0.6094  0.8928
   77SLPC   H2Y 6972   3.084   1.374   7.177  1.5510  1.5321  1.0174
   77SLPC   C23 6973   3.367   1.747   7.329 -0.3106  0.0483  0.3569
   77SLPC   H3R 6974   3.262   1.760   7.361 -0.0033 -0.6016  1.7124
   77SLPC   H3S 6975   3.436   1.784   7.409  2.0752 -2.5724 -0.3249
   77SLPC   C24 6976   3.383   1.590   7.328 -0.2573 -0.0657  0.7568
   77SLPC   H4R 6977   3.475   1.564   7.271 -1.1449 -1.0398 -0.2800
   77SLPC   H4S 6978   3.296   1.547   7.273  0.7003 -0.0364 -0.8734
   77SLPC   C25 6979   3.385   1.527   7.467 -0.5485 -0.3618  0.0660
   77SLPC   H5R 6980   3.481   1.558   7.513  0.1927 -0.0994 -1.5864
   77SLPC   H5S 6981   3.400   1.416   7.464 -0.1982 -0.4565  2.6012
   77SLPC   C26 6982   3.261   1.562   7.551  0.3320  0.1565 -0.4254
   77SLPC   H6R 6983   3.172   1.542   7.487 -0.6400  1.2777  0.5356
   77SLPC   H6S 6984   3.244   1.668   7.579 -3.8359 -0.7019  0.9750
   77SLPC   C27 6985   3.259   1.483   7.684  0.4727 -0.5782 -0.6296
   77SLPC   H7R 6986   3.342   1.504   7.754 -1.2840  1.7329  0.9032
   77SLPC   H7S 6987   3.276   1.376   7.659  0.3757 -1.1384  1.5275
   77SLPC   C28 6988   3.121   1.501   7.753 -0.2044 -0.3258  0.3937
   77SLPC   H8R 6989   3.044   1.485   7.674 -1.1266  0.7953  1.0414
   77SLPC   H8S 6990   3.112   1.607   7.783 -1.9975 -0.9772  2.3907
   77SLPC   C29 6991   3.093   1.413   7.871 -0.7030  0.0066 -0.8124
   77SLPC   H9R 6992   3.148   1.318   7.877 -0.0727  0.4368  1.0370
   77SLPC  C210 6993   3.015   1.440   7.975  0.0002  0.0048  0.4776
   77SLPC  H10R 6994   3.000   1.355   8.044 -1.3088  1.1301  1.6559
   77SLPC  C211 6995   2.930   1.567   8.004  1.2145 -0.6631 -0.7405
   77SLPC  H11R 6996   2.828   1.536   7.974  0.2228  3.0238 -1.5920
   77SLPC  H11S 6997   2.955   1.653   7.939  1.2496  0.8337  1.1475
   77SLPC  C212 6998   2.918   1.596   8.157  0.2277 -0.2103  0.7799
   77SLPC  H12R 6999   2.962   1.520   8.223  1.2991 -2.1317 -1.9482
   77SLPC  C213 7000   2.863   1.712   8.210 -0.4175 -0.1260  0.1318
   77SLPC  H13R 7001   2.858   1.725   8.319  0.1441 -1.9776  0.4207
   77SLPC  C214 7002   2.805   1.821   8.120  0.4445 -0.0263  0.1477
   77SLPC  H14R 7003   2.777   1.775   8.022 -1.8231 -0.1226  0.7787
   77SLPC  H14S 7004   2.882   1.896   8.092  1.0827 -0.3273  1.0704
   77SLPC  C215 7005   2.668   1.880   8.159 -0.3659 -0.0429 -0.3711
   77SLPC  H15R 7006   2.677   1.955   8.241 -0.3303  0.3828 -0.7581
   77SLPC  H15S 7007   2.595   1.807   8.201  0.6675 -1.2460 -0.6053
   77SLPC  C216 7008   2.603   1.958   8.031 -1.1417  1.3530  0.4722
   77SLPC  H16R 7009   2.577   1.876   7.961  1.6461 -0.0630  0.9339
   77SLPC  H16S 7010   2.693   2.012   7.994 -0.5587  1.5430  2.0763
   77SLPC  C217 7011   2.488   2.040   8.075  0.4609 -0.3292  0.2840
   77SLPC  H17R 7012   2.441   2.089   7.987  0.9169  1.1727  0.8331
   77SLPC  H17S 7013   2.534   2.113   8.146 -0.0728  1.6593 -1.3254
   77SLPC  C218 7014   2.379   1.960   8.140  0.1355 -0.8520 -0.2065
   77SLPC  H18R 7015   2.411   1.939   8.244 -1.0569  0.4968  0.4599
   77SLPC  H18S 7016   2.358   1.869   8.080 -1.4454  0.0188 -1.0232
   77SLPC  H18T 7017   2.283   2.016   8.142  1.3941  1.5139 -1.5860
   77SLPC   C33 7018   2.874   1.425   7.191  0.2630 -0.0114  0.2257
   77SLPC   H3X 7019   2.854   1.320   7.161  0.8068  0.0852 -0.5052
   77SLPC   H3Y 7020   2.801   1.492   7.141  0.6215  1.4961  1.6509
   77SLPC   C34 7021   2.849   1.424   7.347 -0.0862 -0.0234  0.2426
   77SLPC   H4X 7022   2.741   1.400   7.350  0.4378 -2.6791  0.8542
   77SLPC   H4Y 7023   2.875   1.527   7.380  0.8283  0.4390 -1.7477
   77SLPC   C35 7024   2.932   1.325   7.424  0.9032  0.0413 -0.6409
   77SLPC   H5X 7025   3.016   1.373   7.479  0.1827 -0.1285  0.6425
   77SLPC   H5Y 7026   2.986   1.255   7.357  2.1364  0.6028 -0.2676
   77SLPC   C36 7027   2.854   1.260   7.547  0.1978  1.1065 -0.3975
   77SLPC   H6X 7028   2.767   1.217   7.492  2.0677 -0.2800 -2.4378
   77SLPC   H6Y 7029   2.823   1.346   7.610 -0.9621  0.3773  0.0548
   77SLPC   C37 7030   2.929   1.157   7.640  0.3311  0.2537 -0.3578
   77SLPC   H7X 7031   3.014   1.206   7.692  0.1379  1.4033 -1.0948
   77SLPC   H7Y 7032   2.960   1.077   7.569  0.6225  1.3420 -1.4973
   77SLPC   C38 7033   2.844   1.116   7.767  0.1147  0.3284  0.5450
   77SLPC   H8X 7034   2.753   1.060   7.736 -1.5963  2.2802  1.7533
   77SLPC   H8Y 7035   2.817   1.212   7.816 -1.3974  1.8544 -2.9071
   77SLPC   C39 7036   2.921   1.017   7.862  0.4422  0.4881  0.0869
   77SLPC   H9X 7037   2.998   1.067   7.925 -0.5200  0.6674  1.1499
   77SLPC   H9Y 7038   2.969   0.941   7.797  0.0431 -0.3573  0.7623
   77SLPC  C310 7039   2.832   0.939   7.954  0.4554  0.2854 -0.4537
   77SLPC  H10X 7040   2.741   0.893   7.911 -1.2913  1.3456  1.8901
   77SLPC  H10Y 7041   2.783   1.023   8.008  0.0929 -1.4123  2.0011
   77SLPC  C311 7042   2.907   0.849   8.053  0.9094  0.3947 -0.0696
   77SLPC  H11X 7043   2.987   0.905   8.105  0.0167  2.5870 -0.9244
   77SLPC  H11Y 7044   2.945   0.757   8.004 -1.0696 -0.0270 -0.9083
   77SLPC  C312 7045   2.816   0.789   8.161  0.3204 -0.1072 -0.4735
   77SLPC  H12X 7046   2.889   0.724   8.215 -0.7634  0.1825  1.4167
   77SLPC  H12Y 7047   2.726   0.733   8.128 -0.0826  0.6843 -0.7396
   77SLPC  C313 7048   2.763   0.896   8.259 -0.1223  0.2002  0.8940
   77SLPC  H13X 7049   2.705   0.979   8.215  0.3365  0.6804  1.1778
   77SLPC  H13Y 7050   2.843   0.929   8.328  1.5818 -0.1714 -0.7927
   77SLPC  C314 7051   2.662   0.835   8.361  0.5250  0.2000  0.2457
   77SLPC  H14X 7052   2.708   0.755   8.424  1.0736 -0.7144 -1.2604
   77SLPC  H14Y 7053   2.598   0.784   8.286  0.4490 -0.7052  0.9028
   77SLPC  C315 7054   2.585   0.944   8.442 -0.7101 -0.2855  0.6754
   77SLPC  H15X 7055   2.558   1.030   8.378  0.9975  1.0006  1.5961
   77SLPC  H15Y 7056   2.661   0.985   8.512 -1.0520  0.1743  0.7803
   77SLPC  C316 7057   2.462   0.896   8.518 -0.3030  0.2193  0.0710
   77SLPC  H16X 7058   2.478   0.802   8.574  0.2081  0.2475 -0.0278
   77SLPC  H16Y 7059   2.377   0.875   8.449 -1.6519  0.4439  1.5977
   77SLPC  C317 7060   2.423   1.006   8.613  0.4610 -0.7985 -0.1034
   77SLPC  H17X 7061   2.499   1.018   8.693  1.8462 -3.0621 -0.9829
   77SLPC  H17Y 7062   2.339   0.953   8.664 -0.1440 -1.2079 -1.4825
   77SLPC  C318 7063   2.372   1.148   8.567 -0.1631  0.4944  0.0453
   77SLPC  H18X 7064   2.304   1.135   8.481  1.1082 -0.1683 -0.8945
   77SLPC  H18Y 7065   2.461   1.206   8.534  1.2902 -1.3356  0.5987
   77SLPC  H18Z 7066   2.335   1.209   8.652  2.8167 -0.5015  2.2107
   78SLPC     N 7067   6.538   2.120   6.174 -0.6477 -0.2609 -0.2768
   78SLPC   C13 7068   6.688   2.143   6.137 -0.2476  0.2929  0.1257
   78SLPC  H13A 7069   6.719   2.240   6.175 -0.0047 -0.1663  1.1131
   78SLPC  H13B 7070   6.751   2.061   6.167  0.5765  1.2305  1.0482
   78SLPC  H13C 7071   6.696   2.153   6.029  1.7785 -0.6422  0.1408
   78SLPC   C14 7072   6.469   2.240   6.128  0.2351  0.0824 -0.4606
   78SLPC  H14A 7073   6.493   2.270   6.027 -2.0123  1.4913 -0.6357
   78SLPC  H14B 7074   6.364   2.217   6.112  0.6008  0.2388 -3.7877
   78SLPC  H14C 7075   6.484   2.323   6.195  1.0966 -1.2324  1.0473
   78SLPC   C15 7076   6.531   2.100   6.325 -0.0507 -0.4598 -0.2980
   78SLPC  H15A 7077   6.429   2.081   6.355 -0.3675 -0.8984 -1.5734
   78SLPC  H15B 7078   6.569   2.011   6.371 -5.0653 -1.7503  2.0661
   78SLPC  H15C 7079   6.572   2.182   6.383  1.6889 -2.1482  0.9788
   78SLPC   C12 7080   6.484   1.997   6.104 -0.1065 -0.4607 -0.9647
   78SLPC  H12A 7081   6.539   1.912   6.140  0.4525 -0.1611 -1.1080
   78SLPC  H12B 7082   6.511   2.001   6.000 -0.3410 -0.1409 -1.0171
   78SLPC   C11 7083   6.337   1.950   6.135  0.3022  0.5376 -0.4511
   78SLPC  H11A 7084   6.329   1.855   6.079  0.4983  0.5293 -0.4654
   78SLPC  H11B 7085   6.251   2.013   6.103 -2.0965 -1.8916  0.8199
   78SLPC     P 7086   6.308   1.798   6.352  0.0961  0.9847  0.0316
   78SLPC   O13 7087   6.218   1.715   6.271  0.3885 -0.3356 -0.6796
   78SLPC   O14 7088   6.446   1.752   6.388 -0.2316 -0.6214  0.3042
   78SLPC   O12 7089   6.324   1.932   6.278 -0.2539  0.2827 -0.0423
   78SLPC   O11 7090   6.227   1.832   6.485  0.2981  0.0957  0.8246
   78SLPC    C1 7091   6.297   1.922   6.579 -0.3761  0.4265  0.4250
   78SLPC    HA 7092   6.376   1.985   6.533 -1.5680  2.6731  1.2792
   78SLPC    HB 7093   6.229   2.000   6.620  0.2840  0.3367  1.7587
   78SLPC    C2 7094   6.356   1.852   6.708  0.0327  0.5013 -0.3620
   78SLPC    HS 7095   6.446   1.790   6.691 -0.7333 -0.8750  0.4787
   78SLPC   O21 7096   6.249   1.784   6.776 -0.2690  0.6247  0.3609
   78SLPC   C21 7097   6.244   1.653   6.753  0.1297  0.2532 -0.1656
   78SLPC   O22 7098   6.319   1.590   6.680  0.8351  0.4441 -0.5451
   78SLPC   C22 7099   6.120   1.599   6.821  0.4966 -0.2414  0.7461
   78SLPC   H2R 7100   6.036   1.648   6.768 -0.5123 -2.2178  0.4225
   78SLPC   H2S 7101   6.105   1.495   6.785  1.2330 -0.0555 -0.1550
   78SLPC    C3 7102   6.407   1.968   6.804 -0.7132  0.8733  0.7179
   78SLPC    HX 7103   6.340   2.056   6.808 -1.2829  0.4006  3.1087
   78SLPC    HY 7104   6.502   2.004   6.758  0.4898 -3.7565 -0.9944
   78SLPC   O31 7105   6.431   1.919   6.940  0.0925 -0.8003  0.5103
   78SLPC   C31 7106   6.548   1.851   6.951  0.6402  0.6865 -0.2117
   78SLPC   O32 7107   6.630   1.838   6.860  0.7489  0.4533 -0.1003
   78SLPC   C32 7108   6.554   1.771   7.080  0.4205  0.6473 -0.5670
   78SLPC   H2X 7109   6.648   1.713   7.066 -0.0599  0.1826 -2.0862
   78SLPC   H2Y 7110   6.467   1.701   7.081  1.2107 -0.3518  0.4307
   78SLPC   C23 7111   6.119   1.608   6.969  0.1405 -0.3144  0.1337
   78SLPC   H3R 7112   6.030   1.554   7.009 -2.2833  2.4177 -1.1344
   78SLPC   H3S 7113   6.118   1.704   7.025 -0.2491 -0.9984  1.3360
   78SLPC   C24 7114   6.234   1.521   7.035 -0.3203  0.1626 -0.1911
   78SLPC   H4R 7115   6.329   1.577   7.022 -0.5015 -0.0238 -3.0692
   78SLPC   H4S 7116   6.247   1.426   6.977  1.6520 -0.6316  1.4440
   78SLPC   C25 7117   6.225   1.490   7.185  0.3643 -0.7264 -0.4163
   78SLPC   H5R 7118   6.128   1.437   7.201 -1.0422  2.4864  3.5453
   78SLPC   H5S 7119   6.226   1.590   7.233  0.2030  0.0443 -1.9553
   78SLPC   C26 7120   6.324   1.392   7.245 -0.3593  0.4334  0.1044
   78SLPC   H6R 7121   6.425   1.439   7.246  0.0338 -0.3306 -1.2002
   78SLPC   H6S 7122   6.335   1.306   7.175  0.2934  0.2376  0.4383
   78SLPC   C27 7123   6.293   1.336   7.386 -0.5795  0.5132  0.2677
   78SLPC   H7R 7124   6.352   1.247   7.417  0.4962  1.7046  1.8701
   78SLPC   H7S 7125   6.185   1.314   7.385 -0.1527 -2.0289  1.9065
   78SLPC   C28 7126   6.320   1.449   7.493 -0.3889 -0.0714 -0.1901
   78SLPC   H8R 7127   6.269   1.538   7.450 -2.1957 -0.5768  0.8233
   78SLPC   H8S 7128   6.430   1.467   7.491 -0.6740  1.9341 -1.8924
   78SLPC   C29 7129   6.255   1.421   7.629 -0.5742 -0.2609 -0.4727
   78SLPC   H9R 7130   6.156   1.468   7.636 -1.6926 -2.0692 -2.7241
   78SLPC  C210 7131   6.305   1.341   7.730  0.6327  0.4545  0.7086
   78SLPC  H10R 7132   6.233   1.304   7.804  1.2137 -0.2913  0.9138
   78SLPC  C211 7133   6.440   1.273   7.716 -0.3979  0.2774  0.3865
   78SLPC  H11R 7134   6.470   1.256   7.611  2.0048 -0.4714  1.1238
   78SLPC  H11S 7135   6.427   1.174   7.766 -0.4010  0.7752  1.3982
   78SLPC  C212 7136   6.556   1.330   7.793 -0.0595  0.3897  0.1114
   78SLPC  H12R 7137   6.619   1.404   7.741  0.3598 -0.6563 -0.9188
   78SLPC  C213 7138   6.603   1.284   7.906 -0.0960 -0.3963 -0.4665
   78SLPC  H13R 7139   6.692   1.330   7.950  0.2769 -1.0316 -0.5489
   78SLPC  C214 7140   6.543   1.176   7.990 -0.0467  1.0248  0.1676
   78SLPC  H14R 7141   6.609   1.138   8.071 -0.5742  0.9902  0.5885
   78SLPC  H14S 7142   6.533   1.081   7.932  2.4337 -0.2756  1.6979
   78SLPC  C215 7143   6.402   1.192   8.058  0.4392 -0.8113  0.5316
   78SLPC  H15R 7144   6.381   1.107   8.125 -1.4074  0.2577  1.3888
   78SLPC  H15S 7145   6.327   1.191   7.976  0.5581  1.7472  0.3013
   78SLPC  C216 7146   6.382   1.325   8.131  0.0664 -0.6758 -0.2851
   78SLPC  H16R 7147   6.405   1.403   8.055 -0.6017  1.2746  1.4060
   78SLPC  H16S 7148   6.458   1.341   8.210  2.1781 -0.4620 -2.2326
   78SLPC  C217 7149   6.237   1.341   8.190 -0.4742  0.3546  0.2230
   78SLPC  H17R 7150   6.205   1.260   8.259 -0.8063 -0.2000 -0.5778
   78SLPC  H17S 7151   6.166   1.337   8.104  1.7996 -0.8541 -1.6971
   78SLPC  C218 7152   6.216   1.477   8.248 -0.7360  0.4421  0.3903
   78SLPC  H18R 7153   6.109   1.495   8.272 -1.1605 -0.1299 -0.9337
   78SLPC  H18S 7154   6.257   1.558   8.184 -1.3233  0.5896  0.1884
   78SLPC  H18T 7155   6.267   1.471   8.346  2.1635 -1.5886 -1.0930
   78SLPC   C33 7156   6.566   1.854   7.209  0.0918  0.6302  0.4816
   78SLPC   H3X 7157   6.499   1.942   7.213  1.1315  1.4023  1.8868
   78SLPC   H3Y 7158   6.672   1.889   7.212  2.0255 -4.1796 -1.1476
   78SLPC   C34 7159   6.543   1.756   7.325  0.2348 -0.5637 -0.5786
   78SLPC   H4X 7160   6.626   1.683   7.332 -0.2795 -1.1041  0.0023
   78SLPC   H4Y 7161   6.445   1.703   7.321  0.8088 -1.5522 -2.1359
   78SLPC   C35 7162   6.538   1.831   7.455  0.1242 -1.4390  0.6587
   78SLPC   H5X 7163   6.448   1.897   7.463  1.0999  0.1653 -0.9006
   78SLPC   H5Y 7164   6.622   1.904   7.453 -1.7764  0.9441 -1.9603
   78SLPC   C36 7165   6.535   1.742   7.575  0.4962  0.0416 -0.7734
   78SLPC   H6X 7166   6.617   1.668   7.568  0.0739 -0.5800  0.5040
   78SLPC   H6Y 7167   6.436   1.692   7.582  1.4199 -1.6869  1.1750
   78SLPC   C37 7168   6.564   1.808   7.708 -0.2556 -0.8232  1.1941
   78SLPC   H7X 7169   6.484   1.883   7.724 -1.7768 -2.3254  0.8899
   78SLPC   H7Y 7170   6.662   1.857   7.688 -1.4731  1.0036 -0.7337
   78SLPC   C38 7171   6.590   1.714   7.827  0.6987  0.3036 -0.3249
   78SLPC   H8X 7172   6.688   1.663   7.813  0.8494  0.3041  0.6293
   78SLPC   H8Y 7173   6.510   1.638   7.829 -0.3243  1.3563 -0.2535
   78SLPC   C39 7174   6.576   1.784   7.968 -0.6607  0.8858 -0.9990
   78SLPC   H9X 7175   6.484   1.846   7.973 -0.3445  1.3635 -1.0718
   78SLPC   H9Y 7176   6.661   1.854   7.981 -2.4814  3.1515 -0.5890
   78SLPC  C310 7177   6.566   1.674   8.079  0.0681  0.2360  0.1472
   78SLPC  H10X 7178   6.665   1.624   8.077  1.2992  2.4563  1.3331
   78SLPC  H10Y 7179   6.480   1.604   8.075  0.5626 -0.4713  1.2851
   78SLPC  C311 7180   6.539   1.752   8.210  0.2582 -0.0247 -0.1014
   78SLPC  H11X 7181   6.450   1.819   8.201 -0.2889  0.0380  3.9564
   78SLPC  H11Y 7182   6.624   1.820   8.233  0.1322 -0.3174  1.3266
   78SLPC  C312 7183   6.518   1.668   8.343  0.3349  0.0924  0.7711
   78SLPC  H12X 7184   6.422   1.614   8.332 -0.0663  0.4096  2.4374
   78SLPC  H12Y 7185   6.502   1.735   8.430 -1.0413  2.6640 -1.3282
   78SLPC  C313 7186   6.618   1.562   8.372  0.2222 -0.7625  0.3388
   78SLPC  H13X 7187   6.716   1.609   8.398 -0.2538 -0.9746  2.7176
   78SLPC  H13Y 7188   6.632   1.496   8.284 -3.0947  0.8456 -1.5825
   78SLPC  C314 7189   6.575   1.459   8.483 -0.6047 -0.4855  0.2870
   78SLPC  H14X 7190   6.485   1.407   8.444 -2.7171 -0.1773  4.2286
   78SLPC  H14Y 7191   6.537   1.508   8.575 -4.2330 -1.1850 -0.6864
   78SLPC  C315 7192   6.680   1.355   8.519 -0.7425 -0.1398 -0.0187
   78SLPC  H15X 7193   6.759   1.403   8.581 -0.3659 -1.1165  0.2718
   78SLPC  H15Y 7194   6.724   1.322   8.423 -1.8804 -2.9883  0.3569
   78SLPC  C316 7195   6.626   1.238   8.596 -0.2464 -0.1757  0.6877
   78SLPC  H16X 7196   6.685   1.144   8.594  1.0034  0.5851  0.8675
   78SLPC  H16Y 7197   6.528   1.215   8.548 -0.3930  0.6683  0.5636
   78SLPC  C317 7198   6.604   1.272   8.739  0.1211 -0.0616 -0.4608
   78SLPC  H17X 7199   6.577   1.378   8.759  1.2339  0.2902 -0.7957
   78SLPC  H17Y 7200   6.696   1.260   8.800  1.5508  1.4061 -2.2165
   78SLPC  C318 7201   6.498   1.175   8.803 -0.2808 -0.0131 -0.0849
   78SLPC  H18X 7202   6.480   1.202   8.909  1.8065  2.5466 -0.2892
   78SLPC  H18Y 7203   6.542   1.073   8.811  4.3393  1.8632  1.3724
   78SLPC  H18Z 7204   6.400   1.166   8.750 -1.5584 -0.3753  2.2184
   79SLPC     N 7205   5.446   3.459   6.238  0.4015  0.2259  0.7036
   79SLPC   C13 7206   5.468   3.491   6.088 -0.3379  0.0201  0.1237
   79SLPC  H13A 7207   5.404   3.440   6.018 -1.5988  0.2744  1.0502
   79SLPC  H13B 7208   5.418   3.586   6.079 -0.0595  0.3823  1.9809
   79SLPC  H13C 7209   5.573   3.494   6.067 -0.4502  0.7179 -0.3546
   79SLPC   C14 7210   5.503   3.574   6.324 -0.0934 -0.4817  0.4635
   79SLPC  H14A 7211   5.599   3.611   6.290 -0.3053 -0.4887 -0.1612
   79SLPC  H14B 7212   5.441   3.661   6.307 -1.4913 -2.0257 -3.6207
   79SLPC  H14C 7213   5.507   3.542   6.427  1.4864  0.2878  0.6680
   79SLPC   C15 7214   5.521   3.334   6.265  0.7961 -0.5945 -0.3268
   79SLPC  H15A 7215   5.470   3.251   6.220 -0.8306  0.3394 -0.2690
   79SLPC  H15B 7216   5.625   3.331   6.235  0.4210 -2.2145 -1.5896
   79SLPC  H15C 7217   5.524   3.317   6.372  0.1099 -0.4747 -0.2845
   79SLPC   C12 7218   5.305   3.444   6.256  0.7981  0.2778  0.3507
   79SLPC  H12A 7219   5.270   3.369   6.187 -1.7647 -0.0722  1.8784
   79SLPC  H12B 7220   5.265   3.540   6.226  0.6320  0.3827  0.9011
   79SLPC   C11 7221   5.244   3.405   6.397  0.1109  0.9141 -0.1363
   79SLPC  H11A 7222   5.301   3.319   6.437 -0.0580  1.2278  0.7895
   79SLPC  H11B 7223   5.138   3.373   6.390  0.5975 -0.9766  0.4697
   79SLPC     P 7224   5.177   3.642   6.481 -0.4329 -0.1139 -0.7382
   79SLPC   O13 7225   5.259   3.747   6.548 -0.0878  0.2269  0.1349
   79SLPC   O14 7226   5.143   3.668   6.342  0.2432 -0.2704  0.3007
   79SLPC   O12 7227   5.265   3.505   6.490  0.4651  0.7314 -0.4519
   79SLPC   O11 7228   5.049   3.611   6.568  0.0963 -0.6288 -0.3672
   79SLPC    C1 7229   5.038   3.599   6.706 -0.9125 -0.1274 -0.0140
   79SLPC    HA 7230   5.136   3.588   6.756 -0.5687  0.3638 -0.5729
   79SLPC    HB 7231   4.985   3.681   6.758 -2.4138  0.4351 -2.2963
   79SLPC    C2 7232   4.955   3.479   6.748  0.5160 -0.9154  0.7189
   79SLPC    HS 7233   4.852   3.489   6.708  0.3021  3.8020  1.8608
   79SLPC   O21 7234   4.940   3.477   6.889 -0.2094  0.6474 -0.3840
   79SLPC   C21 7235   4.830   3.408   6.930  0.2630 -0.5246  0.4696
   79SLPC   O22 7236   4.743   3.368   6.863  0.2613 -0.3487 -0.4235
   79SLPC   C22 7237   4.846   3.392   7.079 -0.5623 -0.4462 -0.2515
   79SLPC   H2R 7238   4.928   3.317   7.084 -0.7912 -0.8529 -2.0297
   79SLPC   H2S 7239   4.884   3.482   7.131 -1.3320 -0.7452  0.8739
   79SLPC    C3 7240   5.021   3.350   6.697  0.6999 -0.0209  0.7582
   79SLPC    HX 7241   5.008   3.357   6.587 -2.9594  0.4241  1.1100
   79SLPC    HY 7242   4.960   3.263   6.729 -0.2623  0.4918  0.3624
   79SLPC   O31 7243   5.160   3.334   6.741  0.5968  0.6963 -0.2628
   79SLPC   C31 7244   5.171   3.264   6.847  0.0776 -0.0113  0.4969
   79SLPC   O32 7245   5.082   3.214   6.917 -0.2025  0.1133  0.6756
   79SLPC   C32 7246   5.319   3.263   6.881 -0.2401 -0.5505  0.3823
   79SLPC   H2X 7247   5.385   3.244   6.794 -0.0717 -4.2365  1.1292
   79SLPC   H2Y 7248   5.351   3.170   6.932  0.6174 -0.2482  0.3996
   79SLPC   C23 7249   4.711   3.340   7.139 -0.5243  0.2615 -0.2954
   79SLPC   H3R 7250   4.705   3.240   7.092  3.6107 -0.3299  0.0424
   79SLPC   H3S 7251   4.621   3.398   7.109  0.5361  2.0540 -0.1420
   79SLPC   C24 7252   4.710   3.316   7.287 -0.1323  0.5928  0.0443
   79SLPC   H4R 7253   4.814   3.296   7.320  0.2944  1.1649 -0.9041
   79SLPC   H4S 7254   4.654   3.223   7.310  0.2261  0.1205 -0.9565
   79SLPC   C25 7255   4.658   3.439   7.355 -0.2952 -0.5216 -0.8128
   79SLPC   H5R 7256   4.552   3.452   7.323  0.0791  1.6845 -1.2482
   79SLPC   H5S 7257   4.709   3.530   7.320  1.1677 -0.6259  0.8988
   79SLPC   C26 7258   4.674   3.427   7.514  0.2529 -0.2431  0.0635
   79SLPC   H6R 7259   4.668   3.321   7.546 -3.8686  0.0948  0.9521
   79SLPC   H6S 7260   4.593   3.484   7.564  0.9969  0.6488  0.2974
   79SLPC   C27 7261   4.807   3.488   7.571 -0.4778  1.3144 -0.1027
   79SLPC   H7R 7262   4.797   3.591   7.531 -1.6146  1.0752 -0.4579
   79SLPC   H7S 7263   4.882   3.427   7.518 -0.5856  0.1372  1.0391
   79SLPC   C28 7264   4.828   3.458   7.725 -0.3716  0.4339  0.1019
   79SLPC   H8R 7265   4.928   3.497   7.753  0.5800 -0.8776 -1.2601
   79SLPC   H8S 7266   4.833   3.348   7.739  0.6417  0.1577 -1.9564
   79SLPC   C29 7267   4.718   3.496   7.821  0.7174 -0.4366  0.3351
   79SLPC   H9R 7268   4.615   3.483   7.784 -0.3122 -2.5505  3.5390
   79SLPC  C210 7269   4.730   3.521   7.956 -0.4689  0.0328 -0.2800
   79SLPC  H10R 7270   4.639   3.553   8.009  1.8120  0.2386  3.9201
   79SLPC  C211 7271   4.862   3.526   8.030  0.7268 -0.5566  0.3970
   79SLPC  H11R 7272   4.877   3.626   8.076 -0.5749 -0.7479  1.3125
   79SLPC  H11S 7273   4.941   3.531   7.953  1.2602 -1.6384  0.8486
   79SLPC  C212 7274   4.898   3.413   8.125  0.7347 -0.5440 -0.2403
   79SLPC  H12R 7275   4.934   3.320   8.079 -0.8213 -0.0311 -2.6581
   79SLPC  C213 7276   4.907   3.416   8.264 -0.9511 -0.4468 -0.2600
   79SLPC  H13R 7277   4.930   3.323   8.318  2.2447  1.4547  2.0573
   79SLPC  C214 7278   4.880   3.531   8.354  0.7142 -0.1027 -0.4050
   79SLPC  H14R 7279   4.897   3.628   8.303  2.6332  0.2164  0.7327
   79SLPC  H14S 7280   4.942   3.533   8.446 -1.0290 -0.3359  0.8253
   79SLPC  C215 7281   4.730   3.518   8.413  0.8823 -0.1657  0.2408
   79SLPC  H15R 7282   4.666   3.484   8.329  0.1688 -0.5990  0.9411
   79SLPC  H15S 7283   4.701   3.619   8.448  1.3744  0.0766 -0.0322
   79SLPC  C216 7284   4.718   3.418   8.533  0.0310  0.1611 -0.0529
   79SLPC  H16R 7285   4.808   3.427   8.597 -0.2195  0.2251  0.2952
   79SLPC  H16S 7286   4.710   3.315   8.492  0.4314 -0.8405  2.2110
   79SLPC  C217 7287   4.587   3.436   8.610  0.1105 -0.4526 -0.7995
   79SLPC  H17R 7288   4.585   3.523   8.678 -0.7357 -0.8070 -0.3579
   79SLPC  H17S 7289   4.572   3.353   8.682  0.2416 -0.5877 -0.9281
   79SLPC  C218 7290   4.461   3.448   8.518  0.0055 -0.8544 -0.1018
   79SLPC  H18R 7291   4.471   3.383   8.428  2.0245  1.1823 -1.4616
   79SLPC  H18S 7292   4.437   3.548   8.476 -0.2354 -1.3871 -1.2904
   79SLPC  H18T 7293   4.374   3.410   8.575  0.4531 -0.9743  0.5060
   79SLPC   C33 7294   5.368   3.387   6.951  0.4784  0.5097  0.7507
   79SLPC   H3X 7295   5.313   3.472   6.905  0.5477  1.2440  1.9796
   79SLPC   H3Y 7296   5.474   3.396   6.921 -0.1466 -1.2849 -2.4367
   79SLPC   C34 7297   5.344   3.404   7.106  0.5323  0.9939 -0.1757
   79SLPC   H4X 7298   5.382   3.505   7.130  0.4782  1.0683 -0.4076
   79SLPC   H4Y 7299   5.403   3.322   7.152  1.0850  1.7963  0.5679
   79SLPC   C35 7300   5.202   3.390   7.152  0.6642  0.2150 -0.7120
   79SLPC   H5X 7301   5.173   3.283   7.144  0.5523  0.2409 -0.6619
   79SLPC   H5Y 7302   5.142   3.455   7.084  1.3188  1.0436 -0.5109
   79SLPC   C36 7303   5.167   3.438   7.294 -0.0878  0.1220  0.1717
   79SLPC   H6X 7304   5.058   3.433   7.316 -0.4273 -0.8299 -1.6037
   79SLPC   H6Y 7305   5.187   3.547   7.288  1.3163 -0.2119 -2.5310
   79SLPC   C37 7306   5.238   3.369   7.406  0.1916 -0.2688  0.3437
   79SLPC   H7X 7307   5.343   3.344   7.380  0.4588  0.4667  0.6667
   79SLPC   H7Y 7308   5.169   3.283   7.417  1.0205 -0.8770  0.9911
   79SLPC   C38 7309   5.246   3.461   7.532 -0.6925 -0.4674 -0.1481
   79SLPC   H8X 7310   5.145   3.488   7.571 -0.7290  2.7505 -2.1193
   79SLPC   H8Y 7311   5.303   3.552   7.504 -0.1549 -0.8748 -0.3831
   79SLPC   C39 7312   5.313   3.386   7.646 -0.4349 -0.0158 -0.4903
   79SLPC   H9X 7313   5.366   3.448   7.722 -2.5085 -1.3846  2.2428
   79SLPC   H9Y 7314   5.384   3.309   7.610 -0.2470 -0.8004  1.4534
   79SLPC  C310 7315   5.209   3.320   7.736 -0.3308 -0.0900  0.1770
   79SLPC  H10X 7316   5.158   3.247   7.670 -0.8894 -0.0630  0.5734
   79SLPC  H10Y 7317   5.142   3.403   7.769  0.4633  0.0544  1.5376
   79SLPC  C311 7318   5.268   3.250   7.860  0.4510 -0.2863 -0.2884
   79SLPC  H11X 7319   5.317   3.155   7.827 -0.2529 -1.1715  1.1034
   79SLPC  H11Y 7320   5.184   3.215   7.924  0.0985 -3.2512 -2.1369
   79SLPC  C312 7321   5.354   3.340   7.955 -0.2211 -0.1878 -0.3917
   79SLPC  H12X 7322   5.444   3.378   7.902 -0.4381  1.1191  0.1262
   79SLPC  H12Y 7323   5.391   3.282   8.042 -1.7309 -0.0290  0.3989
   79SLPC  C313 7324   5.271   3.468   8.009  0.2267 -0.1968  0.4632
   79SLPC  H13X 7325   5.179   3.429   8.059  0.9299 -0.1549  1.8580
   79SLPC  H13Y 7326   5.234   3.536   7.930 -1.2260 -1.6329 -0.1370
   79SLPC  C314 7327   5.358   3.545   8.113  0.3780  0.7434 -0.0554
   79SLPC  H14X 7328   5.453   3.573   8.064  0.1320 -0.2623 -1.1602
   79SLPC  H14Y 7329   5.381   3.475   8.197  0.6040  0.5983 -0.2387
   79SLPC  C315 7330   5.287   3.669   8.170 -0.1059 -0.0128 -0.2655
   79SLPC  H15X 7331   5.177   3.657   8.177 -0.2606  0.5343 -1.5121
   79SLPC  H15Y 7332   5.293   3.751   8.095 -0.4198  1.8039  1.5804
   79SLPC  C316 7333   5.351   3.730   8.298 -0.1648  0.0590  0.3317
   79SLPC  H16X 7334   5.455   3.765   8.279 -0.6776  1.2137 -0.4756
   79SLPC  H16Y 7335   5.350   3.653   8.378  0.6847 -0.7552 -0.4116
   79SLPC  C317 7336   5.285   3.866   8.346  0.2607  0.4239  0.0637
   79SLPC  H17X 7337   5.300   3.942   8.267  2.3459  2.5306  2.3175
   79SLPC  H17Y 7338   5.352   3.896   8.429 -0.2334 -0.7368  0.9095
   79SLPC  C318 7339   5.137   3.856   8.382 -0.4355 -0.2445  0.0866
   79SLPC  H18X 7340   5.105   3.941   8.446 -3.5230 -1.5620  0.4999
   79SLPC  H18Y 7341   5.117   3.755   8.424 -1.6017 -0.9176 -1.9440
   79SLPC  H18Z 7342   5.067   3.863   8.296 -0.4154  0.6442  0.1331
   80SLPC     N 7343   4.708   0.777   6.340  0.1703 -0.7891 -0.0927
   80SLPC   C13 7344   4.615   0.738   6.222 -0.6191 -0.6434  0.3584
   80SLPC  H13A 7345   4.619   0.811   6.143 -1.5693 -0.5546  0.3793
   80SLPC  H13B 7346   4.656   0.645   6.186  0.6545  0.8599 -2.3674
   80SLPC  H13C 7347   4.515   0.719   6.258 -1.3778  0.6900 -0.9498
   80SLPC   C14 7348   4.843   0.795   6.283  0.6685 -0.1717  0.0228
   80SLPC  H14A 7349   4.895   0.843   6.364 -1.0534  0.2809  0.9164
   80SLPC  H14B 7350   4.878   0.699   6.246  0.6164 -0.0804 -0.2655
   80SLPC  H14C 7351   4.833   0.870   6.206  0.5430 -1.2602 -1.0660
   80SLPC   C15 7352   4.708   0.666   6.440  0.2697  0.2374 -0.0831
   80SLPC  H15A 7353   4.607   0.644   6.471  0.0809  0.7139 -0.3455
   80SLPC  H15B 7354   4.750   0.583   6.385 -0.9185  0.9978 -2.2700
   80SLPC  H15C 7355   4.772   0.678   6.526 -2.2388  4.2945  1.4956
   80SLPC   C12 7356   4.649   0.906   6.396 -0.0979  0.3488  0.1859
   80SLPC  H12A 7357   4.545   0.896   6.422 -0.3195  0.8610 -0.4543
   80SLPC  H12B 7358   4.649   0.991   6.329  2.6406  0.5241  0.2941
   80SLPC   C11 7359   4.718   0.974   6.513  0.4236 -0.4275  0.0265
   80SLPC  H11A 7360   4.740   0.900   6.592 -2.3905 -1.2899  0.1151
   80SLPC  H11B 7361   4.645   1.049   6.551  1.0516  0.8046 -1.1160
   80SLPC     P 7362   4.835   1.164   6.379 -0.4422 -0.6802  0.3160
   80SLPC   O13 7363   4.901   1.138   6.249 -0.4043  0.3287 -0.8011
   80SLPC   O14 7364   4.692   1.215   6.384  0.2852  0.3599  0.8501
   80SLPC   O12 7365   4.840   1.037   6.477 -0.5830 -0.1903 -0.4143
   80SLPC   O11 7366   4.920   1.272   6.454 -0.1781  0.1016  0.4336
   80SLPC    C1 7367   5.043   1.254   6.534  0.2757 -0.5766  0.8318
   80SLPC    HA 7368   5.066   1.150   6.563  1.2445 -0.0448  2.0683
   80SLPC    HB 7369   5.135   1.290   6.484 -0.0366  0.8262  1.2063
   80SLPC    C2 7370   5.026   1.333   6.669  1.2151 -0.3322  0.3396
   80SLPC    HS 7371   5.125   1.373   6.701  1.1950  1.1515 -1.3008
   80SLPC   O21 7372   4.975   1.237   6.761 -0.2329  0.3211 -0.4777
   80SLPC   C21 7373   5.063   1.186   6.849 -0.1527  0.4576 -0.2634
   80SLPC   O22 7374   5.169   1.236   6.882  0.3565  0.2502 -0.4129
   80SLPC   C22 7375   5.008   1.055   6.909  0.1299  0.1625 -0.3811
   80SLPC   H2R 7376   4.922   1.024   6.846  1.0771 -3.3269 -0.1784
   80SLPC   H2S 7377   5.088   0.979   6.892  0.7332  0.9661 -1.1990
   80SLPC    C3 7378   4.930   1.455   6.672  0.2048 -0.0773 -0.1338
   80SLPC    HX 7379   4.828   1.414   6.679  1.2676 -2.6492  2.0245
   80SLPC    HY 7380   4.932   1.515   6.578  3.1672 -1.0123 -0.7771
   80SLPC   O31 7381   4.941   1.537   6.791  0.0781  0.4460 -0.2420
   80SLPC   C31 7382   4.870   1.646   6.793  0.6194  0.2558 -0.5278
   80SLPC   O32 7383   4.806   1.688   6.700 -0.1139  0.2147 -0.5414
   80SLPC   C32 7384   4.859   1.694   6.938  0.2727  0.2921  0.7051
   80SLPC   H2X 7385   4.961   1.706   6.979  0.9504  0.3946 -0.9431
   80SLPC   H2Y 7386   4.807   1.612   6.993  0.8000  0.4893  1.5040
   80SLPC   C23 7387   4.959   1.050   7.058  0.0985 -0.5345  0.4015
   80SLPC   H3R 7388   5.031   1.104   7.122 -0.2141  1.3852 -0.8018
   80SLPC   H3S 7389   4.950   0.942   7.084 -0.6146 -0.6495 -0.2603
   80SLPC   C24 7390   4.827   1.121   7.082 -0.1333 -0.1898 -0.0178
   80SLPC   H4R 7391   4.796   1.168   6.986 -1.7467 -2.8375 -0.8780
   80SLPC   H4S 7392   4.846   1.197   7.161  0.7983 -0.0757 -0.3393
   80SLPC   C25 7393   4.711   1.020   7.115  0.2735 -1.1128 -0.4414
   80SLPC   H5R 7394   4.706   0.933   7.046 -2.0449 -3.8176  2.7873
   80SLPC   H5S 7395   4.614   1.074   7.103  0.4029 -0.6160  0.6651
   80SLPC   C26 7396   4.714   0.968   7.256  0.0615  0.1475 -0.2472
   80SLPC   H6R 7397   4.814   0.923   7.269  1.1652  1.6532 -2.6892
   80SLPC   H6S 7398   4.635   0.890   7.248  0.5951 -0.2444 -2.9956
   80SLPC   C27 7399   4.673   1.071   7.359  0.4218  0.1749 -0.2805
   80SLPC   H7R 7400   4.597   1.141   7.317 -1.7529 -1.3990  0.8745
   80SLPC   H7S 7401   4.755   1.144   7.378  1.3557 -0.7530 -0.6407
   80SLPC   C28 7402   4.628   1.017   7.494  0.1825 -0.4905  0.0128
   80SLPC   H8R 7403   4.580   0.919   7.474 -1.6349 -0.0162  1.7508
   80SLPC   H8S 7404   4.555   1.087   7.540  0.5784 -0.0270 -0.0593
   80SLPC   C29 7405   4.744   0.987   7.583 -0.6917 -0.3893  0.8583
   80SLPC   H9R 7406   4.833   0.956   7.526  0.5292  0.7611  2.0567
   80SLPC  C210 7407   4.752   0.992   7.718  0.1512 -0.5526  0.8294
   80SLPC  H10R 7408   4.839   0.958   7.776 -0.6924 -2.9087  0.8383
   80SLPC  C211 7409   4.640   1.042   7.813  0.0851 -0.1763 -0.6132
   80SLPC  H11R 7410   4.599   0.953   7.866 -0.7124  0.2262 -0.5339
   80SLPC  H11S 7411   4.560   1.102   7.765  1.1985  1.4387 -0.5117
   80SLPC  C212 7412   4.710   1.133   7.913  0.1040  0.7435 -0.0037
   80SLPC  H12R 7413   4.820   1.132   7.905  0.2308 -3.5387 -0.1853
   80SLPC  C213 7414   4.659   1.185   8.024  0.0749 -0.0661  0.0347
   80SLPC  H13R 7415   4.731   1.247   8.079  1.3196 -1.6088  0.2341
   80SLPC  C214 7416   4.516   1.174   8.071  0.1270 -0.9926 -0.2516
   80SLPC  H14R 7417   4.452   1.104   8.013 -0.4318 -1.0154  0.3836
   80SLPC  H14S 7418   4.462   1.270   8.059  2.1075 -0.1395 -3.6052
   80SLPC  C215 7419   4.533   1.142   8.223  0.3640 -0.1189  0.7388
   80SLPC  H15R 7420   4.601   1.223   8.258  2.0140 -1.7761  1.5600
   80SLPC  H15S 7421   4.591   1.047   8.224 -0.6025 -0.7185  1.0285
   80SLPC  C216 7422   4.415   1.139   8.319  0.1050 -1.0832  0.3003
   80SLPC  H16R 7423   4.336   1.077   8.271  0.3221 -2.0690  1.1828
   80SLPC  H16S 7424   4.372   1.240   8.335  0.1026 -0.8702 -0.9671
   80SLPC  C217 7425   4.457   1.080   8.451  0.1822 -0.0011 -0.3294
   80SLPC  H17R 7426   4.543   1.126   8.505 -1.2691  0.5083  1.6690
   80SLPC  H17S 7427   4.506   0.990   8.410 -0.5405 -1.6723  2.2531
   80SLPC  C218 7428   4.350   1.045   8.541  0.2795  0.5906 -0.1314
   80SLPC  H18R 7429   4.295   1.138   8.568  0.0688  0.2293  0.7298
   80SLPC  H18S 7430   4.390   1.005   8.637 -1.5708 -1.3638 -0.1025
   80SLPC  H18T 7431   4.278   0.968   8.507  0.4827  0.6984 -0.8097
   80SLPC   C33 7432   4.764   1.816   6.966 -0.2488 -0.2675 -0.4019
   80SLPC   H3X 7433   4.673   1.801   6.904 -0.5236 -0.5620  0.0708
   80SLPC   H3Y 7434   4.812   1.913   6.942 -0.4124 -0.2744 -0.7664
   80SLPC   C34 7435   4.716   1.823   7.115 -0.7859  0.1122 -0.2052
   80SLPC   H4X 7436   4.653   1.735   7.138 -1.3820  0.1889 -1.4554
   80SLPC   H4Y 7437   4.644   1.907   7.122 -1.2599 -0.2547 -0.5743
   80SLPC   C35 7438   4.837   1.838   7.210  0.4251  0.1349 -0.5803
   80SLPC   H5X 7439   4.878   1.935   7.177  1.6469  0.5937  1.9961
   80SLPC   H5Y 7440   4.917   1.762   7.193  2.6129  2.4415 -1.2165
   80SLPC   C36 7441   4.798   1.838   7.359 -0.8443 -0.0729  0.0978
   80SLPC   H6X 7442   4.762   1.735   7.383  0.7532 -0.5690  0.4601
   80SLPC   H6Y 7443   4.705   1.896   7.381 -1.3313 -1.0665  0.7806
   80SLPC   C37 7444   4.908   1.860   7.458 -0.4043  0.4301 -0.1785
   80SLPC   H7X 7445   4.923   1.970   7.456  0.3091  0.3292 -0.3803
   80SLPC   H7Y 7446   5.008   1.820   7.434 -0.2929  1.2682 -1.1804
   80SLPC   C38 7447   4.873   1.811   7.598 -0.3007 -0.1477 -0.7109
   80SLPC   H8X 7448   4.857   1.701   7.599 -0.7860 -0.0788  0.2335
   80SLPC   H8Y 7449   4.773   1.852   7.624 -0.5363 -0.7880 -0.6027
   80SLPC   C39 7450   4.978   1.839   7.696  0.3380 -0.6900 -0.5123
   80SLPC   H9X 7451   5.005   1.946   7.689 -0.6076 -0.4628 -0.7793
   80SLPC   H9Y 7452   5.070   1.784   7.666 -1.0587 -1.9481 -2.8043
   80SLPC  C310 7453   4.954   1.809   7.846  0.8278  0.0581  0.1018
   80SLPC  H10X 7454   5.046   1.822   7.907 -0.2234  0.5231  1.6598
   80SLPC  H10Y 7455   4.927   1.702   7.855  3.1256 -0.5639  0.1426
   80SLPC  C311 7456   4.841   1.888   7.923  0.6548 -0.4860  0.4482
   80SLPC  H11X 7457   4.740   1.852   7.893  1.0867 -0.0454 -1.7457
   80SLPC  H11Y 7458   4.850   1.993   7.888 -2.6273 -1.0516 -2.7236
   80SLPC  C312 7459   4.846   1.884   8.075  1.1412 -1.0391  0.1402
   80SLPC  H12X 7460   4.944   1.932   8.098  0.6226  0.0948  0.0799
   80SLPC  H12Y 7461   4.845   1.778   8.107  0.9458 -0.3009  2.8211
   80SLPC  C313 7462   4.731   1.978   8.135 -0.5448 -0.0756 -0.2390
   80SLPC  H13X 7463   4.636   1.920   8.130 -0.8629  0.4246 -0.0554
   80SLPC  H13Y 7464   4.727   2.070   8.073  2.3770  0.0321 -0.3944
   80SLPC  C314 7465   4.765   2.029   8.273  0.3956  0.0833 -0.0508
   80SLPC  H14X 7466   4.836   2.113   8.259  0.3160  0.2464  0.4904
   80SLPC  H14Y 7467   4.815   1.945   8.326  2.4737  0.5974 -1.1143
   80SLPC  C315 7468   4.643   2.081   8.353 -0.0906  0.4797  0.0901
   80SLPC  H15X 7469   4.569   1.998   8.356 -0.7273  1.0795  1.5513
   80SLPC  H15Y 7470   4.584   2.159   8.299  0.0573  0.7530  0.3248
   80SLPC  C316 7471   4.671   2.123   8.501 -0.3353 -0.2215 -0.1040
   80SLPC  H16X 7472   4.711   2.030   8.548  0.8583 -0.6167 -1.8193
   80SLPC  H16Y 7473   4.582   2.150   8.562  1.0448  0.7002  1.6010
   80SLPC  C317 7474   4.766   2.243   8.517  0.1155 -0.2615  0.1492
   80SLPC  H17X 7475   4.852   2.242   8.446 -0.5279 -2.1443 -0.6664
   80SLPC  H17Y 7476   4.813   2.247   8.618  0.3864  0.1141  0.0107
   80SLPC  C318 7477   4.689   2.374   8.497 -0.6497 -0.1913  0.2955
   80SLPC  H18X 7478   4.755   2.458   8.528  1.4449 -1.3568 -0.8055
   80SLPC  H18Y 7479   4.605   2.378   8.570  0.4234  0.5466  1.5474
   80SLPC  H18Z 7480   4.652   2.396   8.395 -0.6021  0.3284  0.3864
   81SAPS     N 7481   5.762   3.630  11.166 -0.4915 -0.0280 -0.2187
   81SAPS   HN1 7482   5.811   3.595  11.251 -1.0494 -1.2519 -0.3779
   81SAPS   HN2 7483   5.817   3.599  11.083  0.9829  1.2339  0.2558
   81SAPS   HN3 7484   5.757   3.734  11.164  1.9351  0.1649 -2.7406
   81SAPS   C12 7485   5.626   3.566  11.180  0.3406 -0.1004  0.4029
   81SAPS  H12A 7486   5.609   3.515  11.086  0.9313  3.6003 -1.9081
   81SAPS   C13 7487   5.620   3.466  11.294  0.3375  0.2180  0.2456
   81SAPS  O13A 7488   5.716   3.452  11.373  0.5495  0.2969  0.0795
   81SAPS  O13B 7489   5.517   3.398  11.320  0.0967 -0.7100  0.4294
   81SAPS   C11 7490   5.520   3.677  11.201  0.4618 -0.5238  0.3018
   81SAPS  H11A 7491   5.563   3.752  11.271  0.1015 -0.4826  0.4826
   81SAPS  H11B 7492   5.431   3.639  11.256  0.3243 -1.2387 -0.4076
   81SAPS     P 7493   5.329   3.710  11.011 -0.0819 -0.2650  0.0656
   81SAPS   O13 7494   5.319   3.561  10.990  0.4542  0.0953 -0.0536
   81SAPS   O14 7495   5.224   3.784  11.085  0.0375 -0.0449  0.0501
   81SAPS   O12 7496   5.475   3.731  11.074  0.0763 -0.2460  0.2779
   81SAPS   O11 7497   5.341   3.767  10.866 -0.0659  0.0917  0.7838
   81SAPS    C1 7498   5.352   3.905  10.832 -0.0883 -0.5782 -0.2876
   81SAPS    HA 7499   5.328   3.969  10.919  0.0748  1.2734 -1.5569
   81SAPS    HB 7500   5.451   3.918  10.782 -0.9963 -0.7093 -2.2325
   81SAPS    C2 7501   5.242   3.938  10.724 -0.0398  0.2553  0.2143
   81SAPS    HS 7502   5.143   3.914  10.769  1.0393 -0.6909  2.2244
   81SAPS   O21 7503   5.259   3.844  10.616 -0.1882  0.1848  0.4492
   81SAPS   C21 7504   5.146   3.815  10.546 -0.5977 -0.6125  0.3863
   81SAPS   O22 7505   5.035   3.855  10.574 -0.4699  0.4299  0.2667
   81SAPS   C22 7506   5.185   3.695  10.449 -0.7925 -0.0573 -0.7186
   81SAPS   H2R 7507   5.283   3.721  10.403 -1.0616 -0.6604 -1.6814
   81SAPS   H2S 7508   5.185   3.601  10.508  2.2078  0.4383  0.2323
   81SAPS    C3 7509   5.240   4.082  10.683 -0.0184 -1.0011  0.1302
   81SAPS    HX 7510   5.230   4.146  10.773  0.4481  0.8207 -1.0427
   81SAPS    HY 7511   5.163   4.120  10.613  1.8541  1.2866 -0.8097
   81SAPS   O31 7512   5.368   4.128  10.638  0.4749  0.3179  0.9013
   81SAPS   C31 7513   5.383   4.146  10.513  0.4839  0.4759  0.3388
   81SAPS   O32 7514   5.302   4.119  10.425 -0.3033  0.3823  0.4724
   81SAPS   C32 7515   5.523   4.201  10.478 -0.0764  0.0763 -0.2236
   81SAPS   H2X 7516   5.594   4.115  10.471  0.2586  0.4407 -1.6522
   81SAPS   H2Y 7517   5.558   4.266  10.561  0.5776 -0.4281 -0.0929
   81SAPS   C23 7518   5.086   3.691  10.326 -0.2823  0.0400  0.7579
   81SAPS   H3R 7519   4.981   3.707  10.360 -0.3674  0.0007  0.5148
   81SAPS   H3S 7520   5.102   3.598  10.268 -0.8729 -0.1402  0.8722
   81SAPS   C24 7521   5.108   3.811  10.227  0.4970 -0.2722 -0.2575
   81SAPS   H4R 7522   5.198   3.783  10.168  0.7843 -1.5936  0.7399
   81SAPS   H4S 7523   5.140   3.897  10.290 -1.3533 -0.4110  0.9315
   81SAPS   C25 7524   4.990   3.838  10.131  0.0007  0.1139 -0.4104
   81SAPS   H5R 7525   4.903   3.875  10.188  0.4788 -0.1985  0.5518
   81SAPS   C26 7526   4.983   3.835   9.997 -0.5811 -0.3466 -0.4488
   81SAPS   H6R 7527   4.888   3.870   9.955 -0.1596 -1.2016 -2.2346
   81SAPS   C27 7528   5.099   3.818   9.899 -0.0554 -0.2080 -0.5196
   81SAPS   H7R 7529   5.197   3.821   9.949  0.3720  0.1647 -1.3567
   81SAPS   H7S 7530   5.096   3.903   9.827 -3.0946 -1.2057 -1.7717
   81SAPS   C28 7531   5.082   3.681   9.835 -0.8052 -0.1634 -0.6221
   81SAPS   H8R 7532   5.059   3.598   9.903  1.7425  0.1765  0.7993
   81SAPS   C29 7533   5.092   3.652   9.702 -0.1768  0.2413  0.2109
   81SAPS   H9R 7534   5.068   3.547   9.680  1.5052 -0.0213 -0.4974
   81SAPS  C210 7535   5.125   3.745   9.585 -0.0336  0.1773 -0.3813
   81SAPS  H10R 7536   5.130   3.850   9.622  1.2442  0.1501 -0.4181
   81SAPS  H10S 7537   5.036   3.743   9.518  0.1170 -1.0232 -0.5725
   81SAPS  C211 7538   5.244   3.710   9.508 -0.1370  0.5247  0.3220
   81SAPS  H11R 7539   5.293   3.620   9.549  0.8363  1.3795  1.1305
   81SAPS  C212 7540   5.300   3.762   9.396  0.3928  0.7193  0.6380
   81SAPS  H12R 7541   5.390   3.715   9.356 -0.6514  0.6403 -1.7848
   81SAPS  C213 7542   5.243   3.878   9.317 -0.6672  0.8013  0.4218
   81SAPS  H13R 7543   5.133   3.874   9.329 -0.4457 -0.4874  2.6625
   81SAPS  H13S 7544   5.269   3.881   9.209 -0.6921  3.2173  0.4134
   81SAPS  C214 7545   5.299   4.012   9.369  0.2408 -0.0215  0.2693
   81SAPS  H14R 7546   5.315   4.025   9.477  0.9380  1.1620  0.0391
   81SAPS  C215 7547   5.310   4.123   9.297  0.0755 -0.8630 -0.7083
   81SAPS  H15R 7548   5.348   4.213   9.347 -1.5908 -0.8078  0.5330
   81SAPS  C216 7549   5.266   4.149   9.156 -0.4061 -0.0999  0.1163
   81SAPS  H16R 7550   5.194   4.233   9.144  0.4429  0.2998 -3.1766
   81SAPS  H16S 7551   5.215   4.060   9.113 -0.5699  0.6569 -1.3119
   81SAPS  C217 7552   5.372   4.185   9.050  0.2985 -0.1053 -0.0913
   81SAPS  H17R 7553   5.439   4.096   9.043 -1.2108 -1.5405  2.2387
   81SAPS  H17S 7554   5.421   4.280   9.080 -0.5808 -0.4022  2.5543
   81SAPS  C218 7555   5.312   4.211   8.907  0.1604 -0.2801  0.1417
   81SAPS  H18R 7556   5.394   4.246   8.841 -0.1053 -0.2482 -0.1741
   81SAPS  H18S 7557   5.233   4.289   8.898  1.0481  0.5776 -0.3963
   81SAPS  C219 7558   5.236   4.084   8.858 -0.0645 -0.1941  0.6883
   81SAPS  H19R 7559   5.147   4.072   8.923 -1.4339 -2.0135 -1.3793
   81SAPS  H19S 7560   5.308   4.000   8.852  0.8673  0.6669 -2.1654
   81SAPS  C220 7561   5.188   4.110   8.715 -0.0315  0.0339  0.1694
   81SAPS  H20R 7562   5.106   4.184   8.708 -1.8517 -1.6133  2.4740
   81SAPS  H20S 7563   5.144   4.014   8.682 -0.6654  0.7973 -1.2816
   81SAPS  H20T 7564   5.264   4.129   8.637 -0.5895  0.3818 -0.2955
   81SAPS   C33 7565   5.518   4.298  10.361  0.4107  0.0878 -0.1394
   81SAPS   H3X 7566   5.485   4.401  10.388 -0.5423 -0.1577 -0.3231
   81SAPS   H3Y 7567   5.447   4.265  10.282 -1.3149  2.6439  0.1933
   81SAPS   C34 7568   5.656   4.325  10.303  0.4675 -1.1816 -0.4137
   81SAPS   H4X 7569   5.688   4.218  10.295 -0.2241 -1.5151  0.9301
   81SAPS   H4Y 7570   5.722   4.377  10.376  0.5175  0.2009 -1.4127
   81SAPS   C35 7571   5.651   4.397  10.168 -0.6234 -0.1746 -0.6185
   81SAPS   H5X 7572   5.631   4.326  10.085  0.0161  1.8067 -2.5881
   81SAPS   H5Y 7573   5.756   4.424  10.141 -0.8038 -1.1455 -2.4380
   81SAPS   C36 7574   5.569   4.526  10.145 -0.2526  0.6709  0.2016
   81SAPS   H6X 7575   5.587   4.584  10.238 -0.3798  0.9836  0.0310
   81SAPS   H6Y 7576   5.460   4.503  10.141  0.2886 -2.0164 -1.5839
   81SAPS   C37 7577   5.597   4.606  10.011 -0.2090  0.2530 -0.4741
   81SAPS   H7X 7578   5.696   4.656  10.018  0.1019 -0.0788 -2.0800
   81SAPS   H7Y 7579   5.517   4.680   9.991 -0.4234 -0.0491 -0.7433
   81SAPS   C38 7580   5.610   4.513   9.886 -0.6113  0.4075 -0.1880
   81SAPS   H8X 7581   5.515   4.458   9.870 -1.0278  1.0060  0.1838
   81SAPS   H8Y 7582   5.692   4.438   9.896  0.4391  1.5561 -0.0129
   81SAPS   C39 7583   5.636   4.587   9.754  0.8202  0.3713  0.1420
   81SAPS   H9X 7584   5.731   4.644   9.759  0.7786  0.6524 -1.6949
   81SAPS   H9Y 7585   5.554   4.660   9.738 -0.2728 -0.7167  0.6216
   81SAPS  C310 7586   5.646   4.490   9.639 -0.5405 -0.2572  0.7832
   81SAPS  H10X 7587   5.551   4.438   9.615 -0.1400 -1.3611  1.5324
   81SAPS  H10Y 7588   5.721   4.410   9.655  2.2719  2.2778  1.1160
   81SAPS  C311 7589   5.688   4.568   9.519 -0.3779  0.3743  0.6229
   81SAPS  H11X 7590   5.793   4.606   9.512 -0.4296  0.3358 -0.5328
   81SAPS  H11Y 7591   5.628   4.660   9.501  2.7044  2.1663 -1.4659
   81SAPS  C312 7592   5.676   4.477   9.390  0.4840 -0.1813  0.9024
   81SAPS  H12X 7593   5.572   4.438   9.389  0.4791 -0.1855  1.3174
   81SAPS  H12Y 7594   5.740   4.387   9.402 -0.5050 -1.0678 -0.3064
   81SAPS  C313 7595   5.714   4.554   9.260  0.3607  0.5868 -0.0601
   81SAPS  H13X 7596   5.820   4.588   9.256  0.3089  0.6498 -1.0771
   81SAPS  H13Y 7597   5.649   4.643   9.267  1.5144  1.5398 -1.0040
   81SAPS  C314 7598   5.686   4.489   9.130 -0.3476 -0.3498 -0.5331
   81SAPS  H14X 7599   5.585   4.442   9.129 -0.7063  0.4281 -1.2506
   81SAPS  H14Y 7600   5.774   4.422   9.117  1.8152  1.9286  1.4330
   81SAPS  C315 7601   5.711   4.587   9.018 -0.8218 -0.5127  0.6108
   81SAPS  H15X 7602   5.801   4.647   9.040  0.2828 -2.4778  1.7264
   81SAPS  H15Y 7603   5.628   4.661   9.019  0.6187  1.1763 -0.0392
   81SAPS  C316 7604   5.722   4.517   8.881  0.2234 -0.1319 -0.6110
   81SAPS  H16X 7605   5.763   4.415   8.896  1.9766  0.7554  1.0999
   81SAPS  H16Y 7606   5.798   4.571   8.821 -1.6207  0.6064 -2.3927
   81SAPS  C317 7607   5.593   4.505   8.808  0.2864  0.1810 -0.2476
   81SAPS  H17X 7608   5.571   4.600   8.754  0.5377 -0.0519 -0.7713
   81SAPS  H17Y 7609   5.503   4.484   8.869 -1.0019 -0.8102 -2.3652
   81SAPS  C318 7610   5.608   4.394   8.704  0.9864  0.2240  0.0824
   81SAPS  H18X 7611   5.704   4.405   8.650 -0.1822  0.2467 -2.1172
   81SAPS  H18Y 7612   5.527   4.397   8.628  1.3942  1.6894 -0.3277
   81SAPS  H18Z 7613   5.613   4.294   8.751 -0.1576 -0.1641 -0.5718
   82SAPS     N 7614   3.958   3.572  10.911  0.4617  0.6602  0.1612
   82SAPS   HN1 7615   3.855   3.576  10.928  0.8669 -0.1023  3.4652
   82SAPS   HN2 7616   3.995   3.659  10.867  1.6227 -0.1986 -0.6300
   82SAPS   HN3 7617   3.990   3.505  10.838  3.4737  0.9224  1.1086
   82SAPS   C12 7618   4.013   3.539  11.046 -0.5977 -0.1054 -0.1194
   82SAPS  H12A 7619   4.004   3.625  11.111 -1.4271 -1.0939  1.1343
   82SAPS   C13 7620   3.938   3.426  11.116  0.4007  0.3252  0.1390
   82SAPS  O13A 7621   3.846   3.362  11.063 -0.7681 -0.3299  0.1881
   82SAPS  O13B 7622   4.004   3.389  11.220 -0.0934  0.3882 -0.1955
   82SAPS   C11 7623   4.168   3.502  11.030  0.4293  0.0861  0.3350
   82SAPS  H11A 7624   4.170   3.408  10.971  0.5541 -0.8891  1.8396
   82SAPS  H11B 7625   4.207   3.473  11.130  0.0046 -4.4276 -0.6024
   82SAPS     P 7626   4.389   3.571  10.911  0.4687 -0.1665 -0.0430
   82SAPS   O13 7627   4.438   3.680  10.825  0.1574 -0.0250  0.1489
   82SAPS   O14 7628   4.468   3.536  11.030 -0.5207 -0.5347  0.3671
   82SAPS   O12 7629   4.247   3.606  10.966 -0.3295 -0.0957 -0.2908
   82SAPS   O11 7630   4.352   3.447  10.821  0.2654 -0.6798 -0.5332
   82SAPS    C1 7631   4.454   3.359  10.771 -0.0791 -1.2251 -0.8198
   82SAPS    HA 7632   4.539   3.359  10.842 -0.0343  0.5794 -0.8100
   82SAPS    HB 7633   4.411   3.257  10.761 -0.2669 -1.3097  0.7156
   82SAPS    C2 7634   4.493   3.408  10.630 -0.0176  0.0392  0.3163
   82SAPS    HS 7635   4.503   3.518  10.643 -1.1318 -0.0601  2.7893
   82SAPS   O21 7636   4.379   3.368  10.557  0.5331  0.3489  0.2336
   82SAPS   C21 7637   4.348   3.446  10.462 -0.1803 -0.3227  0.3979
   82SAPS   O22 7638   4.416   3.549  10.429  0.3883 -0.2645 -0.4402
   82SAPS   C22 7639   4.226   3.402  10.395  1.0155  0.0690 -0.0397
   82SAPS   H2R 7640   4.152   3.356  10.464  2.9847  1.2121  3.0810
   82SAPS   H2S 7641   4.176   3.496  10.365  0.2479 -0.4118 -0.2820
   82SAPS    C3 7642   4.627   3.341  10.591 -0.4566 -0.0964  0.1179
   82SAPS    HX 7643   4.618   3.233  10.618  0.2274  0.1329  1.3715
   82SAPS    HY 7644   4.704   3.380  10.661  1.2257 -0.4865 -1.4410
   82SAPS   O31 7645   4.656   3.350  10.451  0.5755 -0.1558  0.2001
   82SAPS   C31 7646   4.701   3.472  10.403 -0.2312  0.6240  0.8830
   82SAPS   O32 7647   4.732   3.565  10.469 -0.0526  0.1950 -0.5001
   82SAPS   C32 7648   4.726   3.456  10.255 -0.1642  0.0914  0.4681
   82SAPS   H2X 7649   4.688   3.358  10.219 -1.6212  1.2784 -1.4183
   82SAPS   H2Y 7650   4.836   3.461  10.237 -0.5760  1.1018 -2.1459
   82SAPS   C23 7651   4.237   3.315  10.262 -0.3849 -0.7718 -0.1857
   82SAPS   H3R 7652   4.135   3.293  10.223  0.2782 -1.2855 -1.7122
   82SAPS   H3S 7653   4.286   3.216  10.277 -0.7524 -1.0200 -0.5906
   82SAPS   C24 7654   4.334   3.387  10.164 -0.2723  0.1871 -0.3171
   82SAPS   H4R 7655   4.353   3.316  10.081  2.2708  2.2329 -1.6597
   82SAPS   H4S 7656   4.432   3.394  10.217  0.2853 -2.3195 -0.9170
   82SAPS   C25 7657   4.291   3.524  10.118 -0.2554  0.0476 -0.4868
   82SAPS   H5R 7658   4.292   3.609  10.188  0.3107  0.0697 -0.5161
   82SAPS   C26 7659   4.260   3.547   9.993  0.0383 -0.2135 -0.4833
   82SAPS   H6R 7660   4.251   3.652   9.962  0.4263  0.2599  0.9478
   82SAPS   C27 7661   4.243   3.444   9.881 -0.4799  0.5591  0.1991
   82SAPS   H7R 7662   4.171   3.476   9.803 -3.6775 -3.3799  1.2042
   82SAPS   H7S 7663   4.198   3.353   9.925 -0.1778  0.4737  0.3336
   82SAPS   C28 7664   4.373   3.404   9.813  0.0569  0.5251  0.1906
   82SAPS   H8R 7665   4.445   3.352   9.878  1.8462  1.2453 -1.1196
   82SAPS   C29 7666   4.409   3.405   9.690 -0.1654  0.7295  0.2040
   82SAPS   H9R 7667   4.504   3.358   9.662 -0.2930  0.6233 -0.0565
   82SAPS  C210 7668   4.325   3.457   9.581  0.3722 -0.2906  0.7547
   82SAPS  H10R 7669   4.397   3.487   9.503 -0.5959 -2.0649 -0.9289
   82SAPS  H10S 7670   4.262   3.543   9.613 -1.0651 -1.4636  1.2027
   82SAPS  C211 7671   4.213   3.370   9.511  0.2532  0.7429  0.7415
   82SAPS  H11R 7672   4.122   3.380   9.570  0.0431 -0.4941  0.6549
   82SAPS  C212 7673   4.217   3.286   9.403  0.3053 -0.1007  0.0272
   82SAPS  H12R 7674   4.127   3.228   9.375 -1.6005  2.3762  0.6933
   82SAPS  C213 7675   4.350   3.268   9.326 -0.0136 -0.5316 -0.1503
   82SAPS  H13R 7676   4.357   3.171   9.272 -0.3412  0.0825 -1.3415
   82SAPS  H13S 7677   4.438   3.276   9.393  0.6035  1.0393 -1.0894
   82SAPS  C214 7678   4.377   3.381   9.225  0.1276 -0.1085  0.6272
   82SAPS  H14R 7679   4.327   3.476   9.250  0.5788  0.3064 -0.0223
   82SAPS  C215 7680   4.456   3.368   9.114  0.3788 -0.1377  0.3837
   82SAPS  H15R 7681   4.455   3.458   9.050 -1.5409  0.7877  1.6053
   82SAPS  C216 7682   4.540   3.245   9.066  0.5026  0.0660  0.1154
   82SAPS  H16R 7683   4.560   3.166   9.142  1.1842  0.1394  0.0207
   82SAPS  H16S 7684   4.638   3.287   9.034 -0.1730  2.5630  1.0572
   82SAPS  C217 7685   4.473   3.164   8.948  0.6702  0.3980 -0.0574
   82SAPS  H17R 7686   4.554   3.096   8.916  0.4020  0.5328 -1.0558
   82SAPS  H17S 7687   4.450   3.241   8.871  0.3300 -0.0880 -0.4474
   82SAPS  C218 7688   4.360   3.081   9.002  0.1194  0.2204 -0.5309
   82SAPS  H18R 7689   4.288   3.140   9.064  1.0124 -0.3358  1.0952
   82SAPS  H18S 7690   4.408   3.009   9.071 -0.3169  2.5669  2.4256
   82SAPS  C219 7691   4.272   3.025   8.890  0.8286 -0.3829 -0.1591
   82SAPS  H19R 7692   4.183   2.993   8.948  0.6020  0.3235 -0.1020
   82SAPS  H19S 7693   4.317   2.934   8.843  3.0753  1.5680 -2.0736
   82SAPS  C220 7694   4.218   3.130   8.783  0.7412  0.3843  0.5174
   82SAPS  H20R 7695   4.155   3.211   8.826  1.6128  1.0529  0.5682
   82SAPS  H20S 7696   4.156   3.082   8.705  1.4317  1.9002 -1.0454
   82SAPS  H20T 7697   4.303   3.178   8.730  0.3125 -0.4146 -0.9506
   82SAPS   C33 7698   4.662   3.568  10.176  0.2739  0.0428  0.9424
   82SAPS   H3X 7699   4.709   3.662  10.213 -2.0116  0.8872  1.8518
   82SAPS   H3Y 7700   4.552   3.568  10.191  0.3110  0.7617  1.2374
   82SAPS   C34 7701   4.685   3.556  10.018  0.1168 -0.5755  0.0712
   82SAPS   H4X 7702   4.643   3.461   9.977  0.8861 -0.7843 -0.2707
   82SAPS   H4Y 7703   4.796   3.554  10.017  0.1443 -2.2935  1.2852
   82SAPS   C35 7704   4.633   3.675   9.930  0.5572  0.3024  0.2005
   82SAPS   H5X 7705   4.663   3.775   9.968  0.1646  0.7915 -0.7537
   82SAPS   H5Y 7706   4.522   3.670   9.938  0.6572 -3.7250  1.1302
   82SAPS   C36 7707   4.686   3.651   9.786 -0.2624 -0.1872 -0.6463
   82SAPS   H6X 7708   4.662   3.546   9.759  0.0169 -0.6155  0.7027
   82SAPS   H6Y 7709   4.795   3.671   9.790 -0.4958  0.9120  2.5552
   82SAPS   C37 7710   4.621   3.745   9.691  0.1767 -0.4766  0.5431
   82SAPS   H7X 7711   4.650   3.847   9.726 -1.1356  0.1343 -0.0765
   82SAPS   H7Y 7712   4.513   3.729   9.712  0.4764  0.2658  2.9329
   82SAPS   C38 7713   4.653   3.726   9.543 -1.1626  0.5780  0.5315
   82SAPS   H8X 7714   4.636   3.617   9.532 -1.0621  0.6504 -0.3918
   82SAPS   H8Y 7715   4.760   3.751   9.529 -1.4703  1.0695 -1.1367
   82SAPS   C39 7716   4.570   3.798   9.440 -0.0181 -0.1765  0.4126
   82SAPS   H9X 7717   4.593   3.903   9.471 -0.9967  0.1175  0.1766
   82SAPS   H9Y 7718   4.464   3.773   9.460  0.1794 -0.2686  1.3919
   82SAPS  C310 7719   4.609   3.761   9.297 -0.0787  0.3800 -0.6617
   82SAPS  H10X 7720   4.594   3.651   9.289 -2.5177  0.8016 -4.4445
   82SAPS  H10Y 7721   4.716   3.777   9.275 -0.2531  0.4217 -1.5064
   82SAPS  C311 7722   4.513   3.824   9.197 -0.0493  0.0427  0.5938
   82SAPS  H11X 7723   4.528   3.934   9.195  0.2020  0.0173  1.0412
   82SAPS  H11Y 7724   4.410   3.810   9.236  0.9514 -2.2321  2.6815
   82SAPS  C312 7725   4.524   3.768   9.058 -0.3823  0.7678 -0.1772
   82SAPS  H12X 7726   4.528   3.657   9.068 -1.4800  0.5998 -1.3434
   82SAPS  H12Y 7727   4.614   3.810   9.007 -0.7340 -0.6204 -2.0491
   82SAPS  C313 7728   4.401   3.803   8.976 -0.5064  0.0507  0.6238
   82SAPS  H13X 7729   4.384   3.913   8.970 -0.6517 -0.0755 -1.9924
   82SAPS  H13Y 7730   4.317   3.755   9.030  0.2741  1.0785  2.9418
   82SAPS  C314 7731   4.403   3.750   8.826 -0.2827  0.0844 -0.0767
   82SAPS  H14X 7732   4.436   3.645   8.819 -1.0053 -0.0315 -2.8766
   82SAPS  H14Y 7733   4.497   3.795   8.786  0.9789 -2.8936 -0.7000
   82SAPS  C315 7734   4.274   3.771   8.742 -0.3641  0.3391 -1.1353
   82SAPS  H15X 7735   4.206   3.690   8.777 -1.8599  1.6745 -0.8390
   82SAPS  H15Y 7736   4.308   3.753   8.638  2.3743 -0.9064 -0.1404
   82SAPS  C316 7737   4.202   3.908   8.754 -0.1027 -0.3344 -0.0879
   82SAPS  H16X 7738   4.167   3.919   8.859 -3.8902 -1.2967 -1.1154
   82SAPS  H16Y 7739   4.108   3.904   8.696  0.1051 -0.9643 -0.3939
   82SAPS  C317 7740   4.272   4.030   8.692 -0.0969  0.4979  0.4446
   82SAPS  H17X 7741   4.298   4.006   8.587 -1.5923  0.0288  0.1567
   82SAPS  H17Y 7742   4.369   4.040   8.744 -0.3103  0.8665  0.7828
   82SAPS  C318 7743   4.202   4.161   8.685 -0.7487 -0.0556 -0.9342
   82SAPS  H18X 7744   4.106   4.148   8.632 -0.1938  1.3668 -2.3740
   82SAPS  H18Y 7745   4.266   4.236   8.634  0.5234 -1.1234 -0.9534
   82SAPS  H18Z 7746   4.189   4.201   8.789  0.0279  2.1013 -1.6041
   83SAPS     N 7747   5.574   4.814  11.535  0.0361  0.2714 -0.2186
   83SAPS   HN1 7748   5.565   4.917  11.538 -1.5012  0.1626 -0.4303
   83SAPS   HN2 7749   5.545   4.777  11.627 -0.4692  1.4453  0.0977
   83SAPS   HN3 7750   5.673   4.785  11.517 -1.0096 -5.4380  1.2401
   83SAPS   C12 7751   5.485   4.758  11.433 -0.1590 -0.4640  0.5476
   83SAPS  H12A 7752   5.487   4.650  11.437 -1.4375 -0.5975 -1.2848
   83SAPS   C13 7753   5.336   4.808  11.458 -0.0404 -0.6156 -0.7206
   83SAPS  O13A 7754   5.329   4.900  11.545 -0.7150 -0.2831 -0.4323
   83SAPS  O13B 7755   5.249   4.775  11.380  0.3899 -0.1358 -0.6093
   83SAPS   C11 7756   5.545   4.804  11.296 -0.5470 -0.4666  0.3512
   83SAPS  H11A 7757   5.468   4.766  11.226 -0.3056 -1.6346  0.6928
   83SAPS  H11B 7758   5.642   4.750  11.289  0.7937  1.6983  1.0907
   83SAPS     P 7759   5.673   5.017  11.190 -0.1604  0.2991 -0.4029
   83SAPS   O13 7760   5.640   5.164  11.163 -0.5554  0.2531  0.2648
   83SAPS   O14 7761   5.801   4.987  11.254 -0.4872  0.1764  0.0335
   83SAPS   O12 7762   5.563   4.947  11.275  0.0961  0.1560 -0.2268
   83SAPS   O11 7763   5.658   4.941  11.048 -0.5033  0.2756  0.5673
   83SAPS    C1 7764   5.762   4.856  11.006  0.1819  0.6399  0.0034
   83SAPS    HA 7765   5.836   4.820  11.081  0.5981  0.9635 -0.2479
   83SAPS    HB 7766   5.730   4.764  10.952  1.1047  1.4888 -2.0715
   83SAPS    C2 7767   5.849   4.938  10.905 -0.1328 -0.3088  0.7448
   83SAPS    HS 7768   5.906   5.014  10.961  1.6746  0.7407 -2.2853
   83SAPS   O21 7769   5.767   4.997  10.798  0.2657  0.4626 -0.1639
   83SAPS   C21 7770   5.820   5.094  10.728 -0.6783 -0.6384 -0.4873
   83SAPS   O22 7771   5.931   5.139  10.744 -0.0229 -0.2050 -0.1337
   83SAPS   C22 7772   5.724   5.157  10.633  0.4175  0.0768  0.6229
   83SAPS   H2R 7773   5.640   5.087  10.609  0.7013  0.3588 -1.3353
   83SAPS   H2S 7774   5.683   5.253  10.670  0.6765  0.1024  0.8446
   83SAPS    C3 7775   5.960   4.844  10.855  0.5510 -0.4161  0.0341
   83SAPS    HX 7776   6.016   4.800  10.940 -0.0572 -0.0752  0.6229
   83SAPS    HY 7777   6.027   4.910  10.797 -0.7052 -0.8818 -2.0834
   83SAPS   O31 7778   5.904   4.731  10.782 -0.2197 -0.1830 -0.3149
   83SAPS   C31 7779   5.921   4.743  10.653 -0.1832 -0.2857  0.9527
   83SAPS   O32 7780   5.988   4.827  10.596  0.4010  0.0864 -0.1203
   83SAPS   C32 7781   5.848   4.623  10.589  0.2192 -0.3537  0.3607
   83SAPS   H2X 7782   5.758   4.657  10.533  1.9394  1.8857 -1.2822
   83SAPS   H2Y 7783   5.822   4.545  10.663 -1.0617 -0.7014 -0.4197
   83SAPS   C23 7784   5.795   5.193  10.505  0.5464  0.3093 -0.0780
   83SAPS   H3R 7785   5.877   5.266  10.523  0.8541  0.5602 -2.2497
   83SAPS   H3S 7786   5.737   5.257  10.435 -0.2804  0.8934  1.1038
   83SAPS   C24 7787   5.837   5.071  10.412  0.6469 -0.0922 -0.0627
   83SAPS   H4R 7788   5.933   5.038  10.457 -0.1464  0.5976  2.2813
   83SAPS   H4S 7789   5.866   5.116  10.315  0.8177  0.4812  0.2479
   83SAPS   C25 7790   5.737   4.959  10.394 -0.1941  0.1309  0.4565
   83SAPS   H5R 7791   5.725   4.900  10.487  2.4048 -1.6863 -0.2315
   83SAPS   C26 7792   5.664   4.921  10.289 -0.3816 -0.1202  0.4606
   83SAPS   H6R 7793   5.592   4.838  10.288  1.7375 -2.0393 -0.1596
   83SAPS   C27 7794   5.684   4.986  10.153  0.0818  0.5224  0.3794
   83SAPS   H7R 7795   5.722   4.909  10.083  0.0511 -0.5060  1.4667
   83SAPS   H7S 7796   5.755   5.072  10.147  0.6457  0.3833  3.3499
   83SAPS   C28 7797   5.549   5.036  10.116  0.0221  1.0043 -0.3054
   83SAPS   H8R 7798   5.486   5.086  10.190 -0.4968  2.0645 -1.4382
   83SAPS   C29 7799   5.492   5.026   9.995 -0.1574 -0.1951  0.1854
   83SAPS   H9R 7800   5.395   5.068   9.967  0.3077  1.0633  0.3987
   83SAPS  C210 7801   5.578   4.969   9.880  0.5396 -0.1101  0.1725
   83SAPS  H10R 7802   5.581   4.858   9.881 -0.5970 -0.1639  2.0689
   83SAPS  H10S 7803   5.684   5.002   9.881  0.9283 -1.3405  1.6435
   83SAPS  C211 7804   5.527   5.021   9.747 -0.5162  0.0593  0.0554
   83SAPS  H11R 7805   5.429   5.070   9.740 -1.3009 -1.2813  1.2487
   83SAPS  C212 7806   5.597   5.012   9.632  0.3576  0.1881 -0.3773
   83SAPS  H12R 7807   5.553   5.061   9.544  1.1548  0.8579 -0.4122
   83SAPS  C213 7808   5.733   4.951   9.609  0.4434 -0.2840  0.8103
   83SAPS  H13R 7809   5.723   4.848   9.569  1.7067 -0.3793  0.6869
   83SAPS  H13S 7810   5.787   4.944   9.706  1.2575  1.6713  0.5574
   83SAPS  C214 7811   5.827   5.028   9.520  0.2231 -0.1939  0.3532
   83SAPS  H14R 7812   5.919   5.049   9.578  0.2876 -2.0176  0.9882
   83SAPS  C215 7813   5.822   5.048   9.386 -0.2367 -0.3933  0.3814
   83SAPS  H15R 7814   5.900   5.109   9.338 -1.1023  1.1600  0.8447
   83SAPS  C216 7815   5.715   4.993   9.296  0.1783 -0.5327  0.4034
   83SAPS  H16R 7816   5.650   5.078   9.264  1.8415  0.9367  0.7798
   83SAPS  H16S 7817   5.651   4.920   9.350 -1.7752  0.6769 -0.1472
   83SAPS  C217 7818   5.763   4.916   9.169 -0.1402 -0.6733  0.2818
   83SAPS  H17R 7819   5.680   4.849   9.138  0.5513 -0.9356 -1.0494
   83SAPS  H17S 7820   5.834   4.844   9.216  0.5666  0.1335  0.4806
   83SAPS  C218 7821   5.815   5.002   9.055  0.2905 -0.0908 -0.0152
   83SAPS  H18R 7822   5.905   5.060   9.083  0.0841  0.2671 -0.0962
   83SAPS  H18S 7823   5.734   5.075   9.032 -0.4456 -1.0668 -0.6060
   83SAPS  C219 7824   5.844   4.920   8.926  0.6643 -0.2068 -0.4589
   83SAPS  H19R 7825   5.750   4.888   8.876  0.3437 -0.9315  0.5853
   83SAPS  H19S 7826   5.896   4.824   8.948  0.6018 -0.5214 -1.6173
   83SAPS  C220 7827   5.927   5.001   8.831 -0.5346  0.5997 -0.0946
   83SAPS  H20R 7828   6.013   5.044   8.887 -2.0725  0.0909  2.8806
   83SAPS  H20S 7829   5.876   5.084   8.777  1.5498  2.0331  0.0176
   83SAPS  H20T 7830   5.963   4.926   8.758 -2.5194 -1.2746  0.7271
   83SAPS   C33 7831   5.931   4.553  10.477 -0.6212 -0.2482  0.4478
   83SAPS   H3X 7832   5.886   4.451  10.476  1.9495 -1.4670 -0.9354
   83SAPS   H3Y 7833   6.036   4.538  10.512 -1.0651 -0.6523  1.6633
   83SAPS   C34 7834   5.918   4.622  10.344  0.9526  0.9584 -0.0719
   83SAPS   H4X 7835   5.890   4.728  10.358  0.3914  1.1832 -2.4363
   83SAPS   H4Y 7836   5.816   4.600  10.306  0.0783 -0.4409  2.8073
   83SAPS   C35 7837   6.017   4.569  10.235 -0.4459  0.1820 -0.1419
   83SAPS   H5X 7838   5.988   4.463  10.224 -2.7940  0.9891 -3.1822
   83SAPS   H5Y 7839   6.121   4.575  10.274 -0.7723  0.8277  0.6486
   83SAPS   C36 7840   6.004   4.661  10.109 -0.7665 -0.1688 -0.3192
   83SAPS   H6X 7841   6.027   4.760  10.153  2.5460 -1.0646  0.2479
   83SAPS   H6Y 7842   5.898   4.652  10.077 -1.1147 -0.8215  0.9405
   83SAPS   C37 7843   6.095   4.629   9.994 -0.0502  0.3692 -0.7780
   83SAPS   H7X 7844   6.108   4.519   9.990  0.1301  0.2608  1.3949
   83SAPS   H7Y 7845   6.196   4.662  10.028 -0.3637  0.0437  0.5154
   83SAPS   C38 7846   6.052   4.697   9.863 -0.3827  0.6813  0.2273
   83SAPS   H8X 7847   6.021   4.799   9.894  0.3325  0.9138  0.2159
   83SAPS   H8Y 7848   5.959   4.651   9.824  0.2813  0.9133 -1.7064
   83SAPS   C39 7849   6.153   4.678   9.750  0.2653  0.5241 -0.2622
   83SAPS   H9X 7850   6.205   4.580   9.755 -0.3069 -0.0042 -3.2249
   83SAPS   H9Y 7851   6.229   4.758   9.767 -0.3483  0.5689  3.1092
   83SAPS  C310 7852   6.072   4.687   9.620  0.2043 -0.2003 -0.6263
   83SAPS  H10X 7853   6.021   4.786   9.623 -1.6763 -1.0681 -1.8267
   83SAPS  H10Y 7854   5.990   4.612   9.619 -0.2445  0.1469  2.1426
   83SAPS  C311 7855   6.160   4.686   9.494  0.5321  0.2578  0.7294
   83SAPS  H11X 7856   6.229   4.599   9.485  0.9797  0.7626 -1.3127
   83SAPS  H11Y 7857   6.222   4.777   9.483 -0.2595  0.5063 -2.8368
   83SAPS  C312 7858   6.079   4.692   9.361 -0.1677  1.1415  0.1983
   83SAPS  H12X 7859   6.027   4.789   9.366 -2.2321  0.0254  1.7659
   83SAPS  H12Y 7860   6.011   4.605   9.349  0.1214  0.5061  2.7155
   83SAPS  C313 7861   6.182   4.689   9.252 -0.6808  0.4990  0.6515
   83SAPS  H13X 7862   6.229   4.588   9.253 -3.3346 -0.8260  0.3863
   83SAPS  H13Y 7863   6.259   4.764   9.279  0.1347 -0.3393  0.7088
   83SAPS  C314 7864   6.133   4.725   9.108  0.2112  0.2717  0.8774
   83SAPS  H14X 7865   6.119   4.835   9.097 -0.9080  0.1126  0.5423
   83SAPS  H14Y 7866   6.037   4.673   9.086  0.9965 -0.0071 -2.3395
   83SAPS  C315 7867   6.235   4.683   9.001  1.0146  0.1298 -0.2751
   83SAPS  H15X 7868   6.235   4.574   9.018 -1.4874  0.3803  1.9638
   83SAPS  H15Y 7869   6.332   4.734   9.017  1.1607 -0.5370  1.0908
   83SAPS  C316 7870   6.184   4.706   8.854 -0.4302 -0.0368  1.0249
   83SAPS  H16X 7871   6.183   4.817   8.842  2.6370  0.0998  1.2334
   83SAPS  H16Y 7872   6.076   4.684   8.846 -0.2954 -0.4765  0.3102
   83SAPS  C317 7873   6.272   4.640   8.746  0.6920 -0.8574 -0.7179
   83SAPS  H17X 7874   6.234   4.680   8.650 -2.1469  1.1780  1.1040
   83SAPS  H17Y 7875   6.256   4.530   8.748  1.7930 -1.0261  0.5796
   83SAPS  C318 7876   6.421   4.667   8.769 -0.3924 -0.1984  0.6376
   83SAPS  H18X 7877   6.448   4.775   8.770 -1.9510  0.2401  2.7932
   83SAPS  H18Y 7878   6.465   4.616   8.681 -1.7884  0.2993 -0.3732
   83SAPS  H18Z 7879   6.450   4.610   8.861 -2.7018 -2.0111  0.3225
   84SAPS     N 7880   6.610   4.812  11.207  0.1136 -0.0510  0.1634
   84SAPS   HN1 7881   6.665   4.833  11.122 -2.5334 -0.1042 -1.6623
   84SAPS   HN2 7882   6.617   4.712  11.236  1.6930 -0.3049 -0.9593
   84SAPS   HN3 7883   6.509   4.831  11.192  0.1643 -0.8324 -1.3430
   84SAPS   C12 7884   6.672   4.911  11.302  0.3686 -0.6242 -0.4846
   84SAPS  H12A 7885   6.605   4.986  11.342  1.5640 -0.2884  0.9609
   84SAPS   C13 7886   6.750   4.850  11.412  1.2569 -0.5186 -0.6408
   84SAPS  O13A 7887   6.738   4.730  11.442 -1.2672  0.2846 -0.4554
   84SAPS  O13B 7888   6.800   4.932  11.495  0.6477  0.1812  0.0685
   84SAPS   C11 7889   6.770   5.002  11.223  0.9077 -0.0198  0.2251
   84SAPS  H11A 7890   6.818   5.072  11.295  1.3188  0.3113 -0.3649
   84SAPS  H11B 7891   6.708   5.060  11.151 -1.0503 -3.3480 -0.9687
   84SAPS     P 7892   7.012   4.955  11.133 -0.3103 -0.1923  0.3531
   84SAPS   O13 7893   7.049   5.079  11.207 -0.2038 -0.0988 -0.1850
   84SAPS   O14 7894   7.097   4.840  11.175  0.4111 -0.1432 -0.4935
   84SAPS   O12 7895   6.858   4.922  11.143 -0.1488 -0.6245  0.1222
   84SAPS   O11 7896   7.041   4.982  10.984 -0.0990 -0.1703 -0.0832
   84SAPS    C1 7897   6.940   5.022  10.883 -0.4400 -0.2322  0.1132
   84SAPS    HA 7898   6.980   4.998  10.783 -2.2753  3.3101 -1.6771
   84SAPS    HB 7899   6.837   4.983  10.899  0.1677 -0.9092  2.8508
   84SAPS    C2 7900   6.928   5.179  10.884  0.3094 -0.4711  0.1287
   84SAPS    HS 7901   6.886   5.200  10.985  0.3757 -0.8208  0.2315
   84SAPS   O21 7902   6.827   5.208  10.789  0.8358 -0.3819 -0.0921
   84SAPS   C21 7903   6.794   5.339  10.789  0.2617  0.1245  0.0390
   84SAPS   O22 7904   6.829   5.424  10.867 -1.2137 -1.1764 -0.0858
   84SAPS   C22 7905   6.691   5.361  10.682 -0.0347 -0.1879 -0.6352
   84SAPS   H2R 7906   6.673   5.266  10.627 -1.0608 -2.1324  2.7531
   84SAPS   H2S 7907   6.597   5.384  10.736  0.5453 -1.6685  1.1006
   84SAPS    C3 7908   7.063   5.249  10.861  0.7557 -0.0416  0.0921
   84SAPS    HX 7909   7.127   5.219  10.946 -0.9161  2.5492  2.4086
   84SAPS    HY 7910   7.045   5.357  10.877 -0.3483 -0.2662  0.4645
   84SAPS   O31 7911   7.116   5.222  10.728  0.1046  1.0871  0.0787
   84SAPS   C31 7912   7.136   5.312  10.640 -0.4607 -0.3373  0.8854
   84SAPS   O32 7913   7.138   5.437  10.661  0.4978  0.1689  0.2034
   84SAPS   C32 7914   7.138   5.246  10.503 -0.5022  0.0842 -0.8587
   84SAPS   H2X 7915   7.165   5.139  10.515  0.1251  0.2759 -0.5208
   84SAPS   H2Y 7916   7.222   5.290  10.445 -0.4758 -0.7168 -1.4361
   84SAPS   C23 7917   6.733   5.475  10.592 -0.0926 -0.8212  0.4655
   84SAPS   H3R 7918   6.764   5.444  10.490 -0.1729 -0.8362  0.4465
   84SAPS   H3S 7919   6.807   5.544  10.638 -0.7670  1.5718 -1.7904
   84SAPS   C24 7920   6.606   5.569  10.556  0.0590  0.1071 -0.0245
   84SAPS   H4R 7921   6.644   5.655  10.497 -0.2332  0.2150 -0.0566
   84SAPS   H4S 7922   6.575   5.617  10.652 -1.4361 -0.8718  0.0026
   84SAPS   C25 7923   6.475   5.523  10.503  0.1622 -0.1561  0.1840
   84SAPS   H5R 7924   6.390   5.560  10.562  0.2206  2.6090 -1.2980
   84SAPS   C26 7925   6.456   5.471  10.374 -0.0854  0.6132 -0.4961
   84SAPS   H6R 7926   6.356   5.460  10.331  0.6484 -0.9940 -1.9158
   84SAPS   C27 7927   6.570   5.441  10.270  0.7363 -0.4348 -0.3870
   84SAPS   H7R 7928   6.658   5.383  10.306  0.3646 -1.1401 -0.6131
   84SAPS   H7S 7929   6.614   5.530  10.219 -0.0439 -1.3808 -2.8576
   84SAPS   C28 7930   6.506   5.363  10.160 -0.3448 -0.7618  0.3564
   84SAPS   H8R 7931   6.451   5.275  10.197 -3.3334  0.0356 -1.8493
   84SAPS   C29 7932   6.489   5.389  10.021 -0.2901 -0.0506 -0.5365
   84SAPS   H9R 7933   6.435   5.321   9.953 -1.0664  0.2373 -0.2263
   84SAPS  C210 7934   6.537   5.510   9.946  0.5436  0.0660 -0.5619
   84SAPS  H10R 7935   6.586   5.578  10.018 -0.4920  0.0597  0.1800
   84SAPS  H10S 7936   6.448   5.569   9.913 -0.5621  1.3318  3.8818
   84SAPS  C211 7937   6.633   5.467   9.834  0.0679  0.3026  0.1517
   84SAPS  H11R 7938   6.733   5.443   9.872 -0.8683 -1.0523  1.9165
   84SAPS  C212 7939   6.602   5.452   9.702 -0.5537  0.0858 -0.2216
   84SAPS  H12R 7940   6.684   5.435   9.631 -0.2020  0.6697  0.0365
   84SAPS  C213 7941   6.467   5.489   9.637 -0.4674  0.0541 -0.5951
   84SAPS  H13R 7942   6.470   5.576   9.569  1.3246 -0.2569 -0.9577
   84SAPS  H13S 7943   6.413   5.516   9.730  1.6579 -0.1713  0.7822
   84SAPS  C214 7944   6.420   5.377   9.549  0.5150  1.0006  0.0724
   84SAPS  H14R 7945   6.476   5.354   9.458 -1.0467 -0.4281 -0.5698
   84SAPS  C215 7946   6.316   5.298   9.561 -0.1492  0.0276  0.5071
   84SAPS  H15R 7947   6.293   5.220   9.487 -0.1292 -0.1936  0.7309
   84SAPS  C216 7948   6.215   5.291   9.677 -0.6857 -0.2439 -0.2093
   84SAPS  H16R 7949   6.116   5.324   9.639 -0.5824 -1.8812 -2.0923
   84SAPS  H16S 7950   6.250   5.367   9.750 -1.0389 -1.1669  0.9510
   84SAPS  C217 7951   6.193   5.159   9.751 -0.3773 -0.2585  0.1016
   84SAPS  H17R 7952   6.294   5.129   9.787 -0.0499 -0.2825 -0.7931
   84SAPS  H17S 7953   6.154   5.084   9.679  0.3594 -0.8040  0.2621
   84SAPS  C218 7954   6.104   5.160   9.878 -0.3275  0.6268 -0.0922
   84SAPS  H18R 7955   6.080   5.055   9.903  3.6594 -0.2859  0.7243
   84SAPS  H18S 7956   6.006   5.208   9.858  0.9222  2.8169 -1.3916
   84SAPS  C219 7957   6.173   5.238   9.987 -0.1706 -0.5066 -1.2286
   84SAPS  H19R 7958   6.171   5.348   9.967  0.8539 -0.2780 -0.2082
   84SAPS  H19S 7959   6.276   5.196   9.998 -0.8354 -2.0635 -0.6974
   84SAPS  C220 7960   6.107   5.212  10.126  0.1643  0.1236  0.2244
   84SAPS  H20R 7961   6.087   5.103  10.130 -1.9367  0.4766  0.2754
   84SAPS  H20S 7962   6.008   5.260  10.141 -0.1453 -0.4374 -0.0149
   84SAPS  H20T 7963   6.179   5.223  10.211 -1.4676 -1.0305  1.8294
   84SAPS   C33 7964   7.007   5.263  10.430 -0.1636  0.8336  0.2841
   84SAPS   H3X 7965   6.987   5.370  10.410 -0.1369  0.7914  0.0276
   84SAPS   H3Y 7966   6.927   5.235  10.502 -0.2325  1.9473  0.6429
   84SAPS   C34 7967   7.002   5.174  10.307  0.0265  0.0303 -0.2781
   84SAPS   H4X 7968   7.031   5.070  10.331 -0.8035 -0.8397 -2.8356
   84SAPS   H4Y 7969   7.052   5.204  10.213  0.5284  0.2389  0.0467
   84SAPS   C35 7970   6.860   5.162  10.256 -1.1715  0.6558  0.3987
   84SAPS   H5X 7971   6.827   5.268  10.252 -0.1093  0.9912  0.1656
   84SAPS   H5Y 7972   6.797   5.119  10.336  0.1878 -1.8469  0.2512
   84SAPS   C36 7973   6.844   5.097  10.117  0.2686  0.3012 -0.6415
   84SAPS   H6X 7974   6.735   5.075  10.115  0.3017  0.1799 -1.1501
   84SAPS   H6Y 7975   6.902   5.002  10.111  0.9286  0.6487  0.1299
   84SAPS   C37 7976   6.870   5.184   9.994  0.2710  0.1586 -0.5045
   84SAPS   H7X 7977   6.974   5.221   9.984 -0.4033  1.9966 -1.1523
   84SAPS   H7Y 7978   6.806   5.275  10.001  1.2403  0.7446  1.4265
   84SAPS   C38 7979   6.835   5.107   9.864 -0.0357  0.2446  0.1012
   84SAPS   H8X 7980   6.725   5.101   9.851 -0.3196 -1.7705  2.6182
   84SAPS   H8Y 7981   6.862   4.999   9.869 -0.6714  0.1151  0.8462
   84SAPS   C39 7982   6.894   5.178   9.737  0.1487  0.4661 -0.5268
   84SAPS   H9X 7983   6.990   5.231   9.756 -0.5880  1.8540 -0.5807
   84SAPS   H9Y 7984   6.815   5.253   9.716  1.1524  0.9394 -3.0018
   84SAPS  C310 7985   6.896   5.080   9.623  0.1955 -0.0582  0.4827
   84SAPS  H10X 7986   6.790   5.048   9.611  0.2084  0.2011 -0.4261
   84SAPS  H10Y 7987   6.948   4.987   9.653  0.2620  0.5502  2.3973
   84SAPS  C311 7988   6.967   5.141   9.499  0.5450  0.0163  0.1078
   84SAPS  H11X 7989   6.991   5.058   9.430  0.7869 -0.4026  0.6831
   84SAPS  H11Y 7990   7.061   5.184   9.540  0.4458 -1.6922  2.3812
   84SAPS  C312 7991   6.877   5.244   9.426  0.2153 -0.9641  0.1122
   84SAPS  H12X 7992   6.840   5.301   9.514  1.8437 -1.2700  1.0302
   84SAPS  H12Y 7993   6.788   5.190   9.386 -2.1999  3.0529 -0.5039
   84SAPS  C313 7994   6.938   5.327   9.321 -0.4247  0.2190  1.1756
   84SAPS  H13X 7995   7.043   5.356   9.340 -0.2259 -0.8920  1.8387
   84SAPS  H13Y 7996   6.889   5.425   9.307 -0.4604  0.4477  2.7590
   84SAPS  C314 7997   6.926   5.258   9.188  0.3004  0.0468 -0.2907
   84SAPS  H14X 7998   6.820   5.252   9.155 -0.4577  1.9742  1.6134
   84SAPS  H14Y 7999   6.980   5.161   9.187 -1.6524 -1.1122  0.9294
   84SAPS  C315 8000   6.982   5.355   9.071  0.1121  0.2194  0.1678
   84SAPS  H15X 8001   7.080   5.404   9.092  0.9599 -0.9103 -1.0036
   84SAPS  H15Y 8002   6.915   5.443   9.061  1.7530  1.3893 -1.2118
   84SAPS  C316 8003   7.006   5.280   8.942 -0.0972 -0.6101 -0.0779
   84SAPS  H16X 8004   6.920   5.217   8.911 -0.6950 -0.1582  0.6172
   84SAPS  H16Y 8005   7.085   5.203   8.955 -0.7977 -1.3639 -0.2225
   84SAPS  C317 8006   7.031   5.370   8.821 -0.0644  0.1151  0.4468
   84SAPS  H17X 8007   7.118   5.434   8.850  0.4195  0.4157 -1.5483
   84SAPS  H17Y 8008   6.944   5.434   8.795 -0.5122 -1.6269 -2.7533
   84SAPS  C318 8009   7.059   5.283   8.692  0.4338 -0.8078  0.0730
   84SAPS  H18X 8010   6.981   5.207   8.668 -0.2984 -0.0607  0.0163
   84SAPS  H18Y 8011   7.149   5.223   8.716  1.4844  0.1987 -1.2005
   84SAPS  H18Z 8012   7.073   5.345   8.601 -0.5120  1.0758  1.1403
   85SAPS     N 8013   5.030   6.665  11.005  0.1317 -0.5150 -0.7691
   85SAPS   HN1 8014   4.988   6.574  11.033  2.7805 -1.3185  0.9761
   85SAPS   HN2 8015   4.988   6.695  10.915  1.3970 -1.2411 -1.6392
   85SAPS   HN3 8016   5.131   6.659  10.981 -0.1483 -0.7789 -1.9335
   85SAPS   C12 8017   5.015   6.777  11.113  0.1569  0.4407  0.5824
   85SAPS  H12A 8018   5.054   6.733  11.203  1.5225 -1.3082 -0.7855
   85SAPS   C13 8019   5.090   6.908  11.093  0.2505 -0.4193  0.1315
   85SAPS  O13A 8020   5.161   6.922  10.993 -0.9303  0.1845  0.0453
   85SAPS  O13B 8021   5.075   6.994  11.186  0.7783 -0.0595  0.0346
   85SAPS   C11 8022   4.870   6.801  11.138 -0.5025 -0.1598  0.5058
   85SAPS  H11A 8023   4.866   6.874  11.222  1.8337 -0.6216  1.0835
   85SAPS  H11B 8024   4.816   6.709  11.167 -1.2907  0.1212 -0.0264
   85SAPS     P 8025   4.658   6.932  11.025  0.2069  0.0225 -0.1774
   85SAPS   O13 8026   4.592   6.931  11.157 -0.7483 -0.3461  0.3397
   85SAPS   O14 8027   4.690   7.062  10.959  0.1148 -0.3217  0.1041
   85SAPS   O12 8028   4.796   6.853  11.028  0.3336 -0.0331  0.8561
   85SAPS   O11 8029   4.571   6.852  10.923 -0.5535 -0.0141 -0.0395
   85SAPS    C1 8030   4.610   6.729  10.857 -0.1730 -0.0782 -0.1225
   85SAPS    HA 8031   4.680   6.659  10.907  1.2862 -1.3067 -3.5685
   85SAPS    HB 8032   4.518   6.680  10.818 -0.4892  1.7275 -1.7927
   85SAPS    C2 8033   4.705   6.768  10.735 -0.0141  1.3862 -0.4293
   85SAPS    HS 8034   4.781   6.837  10.779 -1.2968  1.1808  2.2918
   85SAPS   O21 8035   4.638   6.827  10.624 -0.2446 -0.0523 -0.3519
   85SAPS   C21 8036   4.683   6.935  10.569 -0.0610  0.0500  0.0123
   85SAPS   O22 8037   4.788   6.986  10.597 -0.5474  0.0831 -1.1430
   85SAPS   C22 8038   4.586   6.988  10.466  0.4450 -0.0059 -0.7355
   85SAPS   H2R 8039   4.601   6.933  10.370  1.5846 -1.1800  0.0897
   85SAPS   H2S 8040   4.485   6.982  10.511  0.8443  0.0936  0.1908
   85SAPS    C3 8041   4.768   6.638  10.683  0.4389 -0.3337  0.9402
   85SAPS    HX 8042   4.682   6.575  10.652 -0.4950  0.5079  1.7620
   85SAPS    HY 8043   4.813   6.582  10.768  1.2097  0.5926  1.1684
   85SAPS   O31 8044   4.869   6.661  10.575  0.2544  0.1756 -0.6344
   85SAPS   C31 8045   4.983   6.682  10.619 -0.2627  0.5819 -0.0333
   85SAPS   O32 8046   5.031   6.673  10.731  0.5373  0.1888 -0.2739
   85SAPS   C32 8047   5.062   6.697  10.485  0.1330 -0.4326  0.1832
   85SAPS   H2X 8048   5.054   6.596  10.438 -1.0673  0.3710 -1.4221
   85SAPS   H2Y 8049   5.166   6.730  10.507  0.3066 -1.4235  0.9126
   85SAPS   C23 8050   4.606   7.135  10.431  0.2148 -0.2478  0.5961
   85SAPS   H3R 8051   4.714   7.150  10.412  0.6244 -2.3175  1.0639
   85SAPS   H3S 8052   4.579   7.197  10.519 -4.7847 -1.3627  0.1587
   85SAPS   C24 8053   4.512   7.187  10.317  0.4440  0.4070  0.0208
   85SAPS   H4R 8054   4.409   7.147  10.315 -0.2444  2.0682 -2.3238
   85SAPS   H4S 8055   4.559   7.145  10.225 -2.2781 -0.0105 -1.2638
   85SAPS   C25 8056   4.517   7.336  10.318  0.0847  0.1921  0.7514
   85SAPS   H5R 8057   4.544   7.380  10.415 -3.4688  3.2010  0.5748
   85SAPS   C26 8058   4.512   7.418  10.211  0.4081  0.1810 -0.2061
   85SAPS   H6R 8059   4.508   7.527  10.220  0.7697  0.1888 -0.1462
   85SAPS   C27 8060   4.485   7.364  10.075 -0.6212 -0.0314  0.3361
   85SAPS   H7R 8061   4.469   7.255  10.083  1.6984 -0.5267 -0.9301
   85SAPS   H7S 8062   4.582   7.383  10.024 -0.4737  1.7496  1.1821
   85SAPS   C28 8063   4.362   7.444  10.013 -0.0454  0.4311  0.5839
   85SAPS   H8R 8064   4.270   7.446  10.073 -0.6927 -0.3191 -0.3621
   85SAPS   C29 8065   4.358   7.489   9.888  0.3264 -0.6315  0.1489
   85SAPS   H9R 8066   4.258   7.527   9.861 -0.4216 -1.9193  1.0016
   85SAPS  C210 8067   4.474   7.477   9.788  0.0338 -0.1239 -0.4689
   85SAPS  H10R 8068   4.513   7.375   9.768  0.0656 -0.0384 -0.8658
   85SAPS  H10S 8069   4.556   7.539   9.831 -0.6784  0.8024 -0.4030
   85SAPS  C211 8070   4.423   7.548   9.661 -0.2958 -0.4753 -0.1809
   85SAPS  H11R 8071   4.407   7.657   9.669  0.5467 -0.3472 -0.0551
   85SAPS  C212 8072   4.403   7.482   9.547  0.5680 -0.1267 -0.4348
   85SAPS  H12R 8073   4.360   7.540   9.464 -2.3107 -0.9434  0.3758
   85SAPS  C213 8074   4.413   7.334   9.519  0.1897 -0.8798  0.9660
   85SAPS  H13R 8075   4.358   7.264   9.585 -0.9819 -0.2232  0.7182
   85SAPS  H13S 8076   4.523   7.318   9.513 -0.0973 -2.3634 -1.0710
   85SAPS  C214 8077   4.333   7.313   9.388  0.2880  0.7301 -0.2944
   85SAPS  H14R 8078   4.236   7.270   9.417  0.5964  0.6961  0.7242
   85SAPS  C215 8079   4.376   7.338   9.262  0.4195 -0.5308 -0.8444
   85SAPS  H15R 8080   4.318   7.316   9.171  0.6037 -1.8937 -0.6528
   85SAPS  C216 8081   4.511   7.390   9.225 -0.0845  0.1321 -0.2431
   85SAPS  H16R 8082   4.587   7.310   9.238 -1.2891 -0.7363  1.8266
   85SAPS  H16S 8083   4.537   7.477   9.290 -2.4357  1.4401 -0.9149
   85SAPS  C217 8084   4.516   7.455   9.085  0.5064  0.3745  0.1879
   85SAPS  H17R 8085   4.600   7.527   9.087  1.5807 -0.8259  1.9348
   85SAPS  H17S 8086   4.426   7.508   9.047 -1.0576 -1.7508  0.7596
   85SAPS  C218 8087   4.552   7.349   8.980  0.0299  0.1698 -0.3285
   85SAPS  H18R 8088   4.457   7.297   8.959 -0.4331 -1.6077  4.8931
   85SAPS  H18S 8089   4.615   7.271   9.028 -0.0354 -1.0546 -2.1058
   85SAPS  C219 8090   4.614   7.409   8.848 -0.9678 -0.2311  0.1957
   85SAPS  H19R 8091   4.703   7.467   8.879 -0.4484 -0.0161 -1.5910
   85SAPS  H19S 8092   4.548   7.481   8.795 -0.7331 -0.7772 -0.8691
   85SAPS  C220 8093   4.676   7.307   8.750 -0.5554 -0.0101 -0.2941
   85SAPS  H20R 8094   4.725   7.362   8.667 -0.0422  0.1741  0.1231
   85SAPS  H20S 8095   4.595   7.239   8.718 -0.3641  0.0685 -0.9598
   85SAPS  H20T 8096   4.753   7.249   8.805 -2.4807 -2.0591  0.3926
   85SAPS   C33 8097   5.002   6.795  10.376 -0.5134  0.7487 -0.0726
   85SAPS   H3X 8098   5.061   6.888  10.389  2.6704 -1.4027  2.3482
   85SAPS   H3Y 8099   4.897   6.829  10.392 -1.0591 -0.1830 -1.4534
   85SAPS   C34 8100   5.018   6.742  10.231  0.1910 -0.0453  0.4102
   85SAPS   H4X 8101   4.933   6.777  10.169  2.2343  1.8895 -1.4869
   85SAPS   H4Y 8102   4.997   6.633  10.237 -2.2878  0.4450  3.1298
   85SAPS   C35 8103   5.151   6.771  10.160 -1.1474  0.6998  0.2868
   85SAPS   H5X 8104   5.229   6.737  10.231 -1.1739 -0.5430 -0.2553
   85SAPS   H5Y 8105   5.180   6.876  10.138 -1.0266  0.9757  1.6498
   85SAPS   C36 8106   5.152   6.682  10.028 -0.0129 -0.5546 -0.6436
   85SAPS   H6X 8107   5.134   6.573  10.039  0.7858 -0.5785  0.6505
   85SAPS   H6Y 8108   5.253   6.698   9.984 -0.9923  1.9181 -2.2739
   85SAPS   C37 8109   5.056   6.737   9.924  0.4126 -0.0746 -0.0128
   85SAPS   H7X 8110   5.055   6.847   9.940  0.1255 -0.0096 -0.4493
   85SAPS   H7Y 8111   4.959   6.685   9.942  0.1470  0.8092  1.2083
   85SAPS   C38 8112   5.102   6.702   9.776  0.6117 -1.0180 -0.2408
   85SAPS   H8X 8113   5.095   6.594   9.752  0.0262 -0.7384 -1.3889
   85SAPS   H8Y 8114   5.207   6.735   9.757  1.0904 -1.4806  1.4594
   85SAPS   C39 8115   5.009   6.769   9.672  0.4262 -0.1505 -0.7570
   85SAPS   H9X 8116   4.969   6.860   9.720  0.7111  0.6782 -2.0389
   85SAPS   H9Y 8117   4.916   6.714   9.646 -1.4172 -0.4812  5.1893
   85SAPS  C310 8118   5.092   6.812   9.552 -0.1677 -0.7653 -0.1839
   85SAPS  H10X 8119   5.187   6.860   9.584  0.6936 -1.1805 -1.9883
   85SAPS  H10Y 8120   5.033   6.882   9.489  1.3578 -1.1616 -2.1601
   85SAPS  C311 8121   5.142   6.694   9.462  0.0397  0.0700 -0.2068
   85SAPS  H11X 8122   5.063   6.618   9.442  1.2594 -1.9358  2.0616
   85SAPS  H11Y 8123   5.223   6.647   9.522 -0.3829  0.5628  0.7635
   85SAPS  C312 8124   5.207   6.740   9.334  0.2308 -0.0531  0.3815
   85SAPS  H12X 8125   5.248   6.843   9.345  0.5950 -0.1945  0.3562
   85SAPS  H12Y 8126   5.130   6.748   9.254  0.9117  1.7293 -0.1533
   85SAPS  C313 8127   5.318   6.641   9.294 -0.3501 -0.2443  0.4116
   85SAPS  H13X 8128   5.286   6.535   9.283  1.3187 -0.7432 -0.0195
   85SAPS  H13Y 8129   5.408   6.649   9.359  0.3238  2.2936 -0.6871
   85SAPS  C314 8130   5.379   6.676   9.160 -0.2044  0.1358  0.6163
   85SAPS  H14X 8131   5.443   6.766   9.176  0.3829 -0.1819  0.0793
   85SAPS  H14Y 8132   5.287   6.703   9.105 -1.5095 -2.9586  1.0920
   85SAPS  C315 8133   5.475   6.570   9.107  0.6988  0.7873 -0.3549
   85SAPS  H15X 8134   5.536   6.617   9.027 -0.4531 -0.6627 -2.1731
   85SAPS  H15Y 8135   5.413   6.492   9.058 -0.8866  1.2316  0.8737
   85SAPS  C316 8136   5.577   6.513   9.210  0.3560  0.2019 -0.1962
   85SAPS  H16X 8137   5.515   6.458   9.284 -1.2826  0.8873 -1.0278
   85SAPS  H16Y 8138   5.626   6.593   9.270  0.0645  0.7427 -0.6781
   85SAPS  C317 8139   5.680   6.411   9.153  0.8351 -0.3533 -0.7277
   85SAPS  H17X 8140   5.747   6.469   9.086  0.9334 -1.1976 -1.3689
   85SAPS  H17Y 8141   5.622   6.341   9.090 -1.6988  0.3787  0.6587
   85SAPS  C318 8142   5.766   6.348   9.266 -0.0356  1.0852  0.0079
   85SAPS  H18X 8143   5.830   6.267   9.224  0.4053  1.8804 -0.8738
   85SAPS  H18Y 8144   5.722   6.303   9.358 -1.1036  0.1380 -0.9326
   85SAPS  H18Z 8145   5.840   6.426   9.290  1.3875 -0.4953  1.0116
   86SAPS     N 8146   0.339   0.479  11.183 -0.0061  0.5297  0.0130
   86SAPS   HN1 8147   0.365   0.385  11.145  3.1911  0.6531  1.5810
   86SAPS   HN2 8148   0.423   0.509  11.235 -1.1509  0.0511  2.2400
   86SAPS   HN3 8149   0.258   0.473  11.248 -1.2977 -1.2680 -1.6101
   86SAPS   C12 8150   0.317   0.579  11.071 -0.4936  0.3036 -0.4912
   86SAPS  H12A 8151   0.274   0.671  11.106  0.3861  1.4127 -2.1962
   86SAPS   C13 8152   0.453   0.617  11.000 -0.3818 -0.2272  0.4634
   86SAPS  O13A 8153   0.564   0.584  11.050  0.0690  0.5213 -0.1113
   86SAPS  O13B 8154   0.450   0.700  10.908 -0.0799  0.3831 -0.0249
   86SAPS   C11 8155   0.219   0.518  10.962 -0.6601 -0.0350 -0.2344
   86SAPS  H11A 8156   0.262   0.429  10.912  0.5356 -0.4440  1.4108
   86SAPS  H11B 8157   0.202   0.602  10.892  1.9503  1.1589  0.4485
   86SAPS     P 8158  -0.045   0.546  10.979  0.0293 -0.0863 -0.3361
   86SAPS   O13 8159  -0.153   0.451  11.028 -0.7826  0.1949 -1.1290
   86SAPS   O14 8160  -0.044   0.685  11.035 -0.1941 -0.3055  0.8242
   86SAPS   O12 8161   0.089   0.474  11.019 -0.1085 -0.4319  0.2469
   86SAPS   O11 8162  -0.031   0.543  10.819 -0.3336 -0.6048 -0.5602
   86SAPS    C1 8163  -0.028   0.411  10.755  0.3048 -0.3930 -0.1287
   86SAPS    HA 8164   0.075   0.379  10.730 -0.1320 -1.2721 -0.8267
   86SAPS    HB 8165  -0.068   0.336  10.826 -1.0543  0.9953  0.6378
   86SAPS    C2 8166  -0.116   0.416  10.629  0.5790 -0.4213 -0.4785
   86SAPS    HS 8167  -0.224   0.423  10.653  0.8886 -1.7030  1.5677
   86SAPS   O21 8168  -0.079   0.295  10.544  0.0768  0.8006 -0.0237
   86SAPS   C21 8169  -0.085   0.178  10.601  0.7710  0.6563  0.0081
   86SAPS   O22 8170  -0.153   0.149  10.701  0.5282 -0.1800 -0.3913
   86SAPS   C22 8171   0.011   0.079  10.532  0.0882  0.0776  0.2723
   86SAPS   H2R 8172   0.007   0.082  10.421  1.1394 -1.2834  0.1715
   86SAPS   H2S 8173   0.115   0.105  10.563  0.1425 -0.0149  0.1680
   86SAPS    C3 8174  -0.086   0.541  10.543 -0.3407  0.2728  0.4248
   86SAPS    HX 8175   0.017   0.519  10.509 -0.0579  0.0207  1.4044
   86SAPS    HY 8176  -0.088   0.633  10.606 -0.9391  0.7410 -0.2579
   86SAPS   O31 8177  -0.177   0.563  10.440 -0.1494  0.3914 -0.0704
   86SAPS   C31 8178  -0.139   0.645  10.339 -0.3829 -0.4783  0.2553
   86SAPS   O32 8179  -0.035   0.712  10.338  0.1881  0.4519 -0.3797
   86SAPS   C32 8180  -0.248   0.645  10.232  0.3907  0.3783  0.9024
   86SAPS   H2X 8181  -0.294   0.746  10.220 -0.3727 -0.0090  0.5082
   86SAPS   H2Y 8182  -0.328   0.573  10.261  1.8584 -2.5265 -1.7483
   86SAPS   C23 8183  -0.013  -0.067  10.566 -0.1742  0.2548  0.4227
   86SAPS   H3R 8184  -0.037  -0.073  10.674 -0.3814 -0.8152  0.3274
   86SAPS   H3S 8185   0.081  -0.122  10.542 -0.3448 -0.1798  0.7451
   86SAPS   C24 8186  -0.118  -0.138  10.478 -0.1667  0.6046  0.1852
   86SAPS   H4R 8187  -0.079  -0.243  10.473 -0.0769  0.6920 -3.0132
   86SAPS   H4S 8188  -0.128  -0.121  10.369  1.6407 -1.3177 -0.3749
   86SAPS   C25 8189  -0.256  -0.129  10.541 -0.1840 -0.3436 -0.1798
   86SAPS   H5R 8190  -0.290  -0.025  10.548  1.3655  0.1236  1.0989
   86SAPS   C26 8191  -0.323  -0.232  10.606  0.0099 -0.2867  0.6991
   86SAPS   H6R 8192  -0.415  -0.207  10.661  0.3350  1.3094  0.5491
   86SAPS   C27 8193  -0.276  -0.371  10.630  0.2008  0.1575 -0.9785
   86SAPS   H7R 8194  -0.172  -0.366  10.670  0.5981 -0.1222 -1.9362
   86SAPS   H7S 8195  -0.269  -0.431  10.536  1.0715 -0.5468 -0.4858
   86SAPS   C28 8196  -0.373  -0.444  10.727 -0.3429  0.3819  0.4422
   86SAPS   H8R 8197  -0.366  -0.410  10.831 -0.6717  0.1464  0.5420
   86SAPS   C29 8198  -0.432  -0.556  10.690  0.1163  0.3347  0.2675
   86SAPS   H9R 8199  -0.491  -0.600  10.772  1.0481  3.7291  2.9811
   86SAPS  C210 8200  -0.428  -0.627  10.555 -0.4695  0.2757 -0.2365
   86SAPS  H10R 8201  -0.412  -0.556  10.471  2.9628 -0.1016 -0.0828
   86SAPS  H10S 8202  -0.526  -0.672  10.532  1.0084 -2.9962 -0.7383
   86SAPS  C211 8203  -0.324  -0.734  10.580 -0.7783 -0.0892  0.0903
   86SAPS  H11R 8204  -0.314  -0.781  10.679 -2.4550  1.5712  1.1301
   86SAPS  C212 8205  -0.229  -0.768  10.484 -1.0937 -0.1836 -0.6675
   86SAPS  H12R 8206  -0.164  -0.854  10.508 -0.1235  1.0961  1.7227
   86SAPS  C213 8207  -0.214  -0.713  10.347 -0.5520 -0.1406  0.3044
   86SAPS  H13R 8208  -0.299  -0.654  10.307  0.2875  0.9814  0.1284
   86SAPS  H13S 8209  -0.213  -0.798  10.275  0.7307  0.0038  0.1314
   86SAPS  C214 8210  -0.095  -0.614  10.333 -0.2739 -0.3462  0.2628
   86SAPS  H14R 8211  -0.121  -0.515  10.374 -0.1185 -0.8347  1.5870
   86SAPS  C215 8212   0.032  -0.636  10.293  0.5885  0.6909 -0.4533
   86SAPS  H15R 8213   0.096  -0.547  10.294 -1.8251  2.5142 -1.0129
   86SAPS  C216 8214   0.091  -0.766  10.254 -0.1642 -0.4927  0.0009
   86SAPS  H16R 8215   0.030  -0.852  10.289 -0.3134 -0.6380 -0.6039
   86SAPS  H16S 8216   0.188  -0.768  10.310  0.6014 -0.1690 -1.2839
   86SAPS  C217 8217   0.122  -0.757  10.099  0.3027 -0.6815 -0.2232
   86SAPS  H17R 8218   0.193  -0.839  10.074  1.5207 -0.1456  1.3154
   86SAPS  H17S 8219   0.179  -0.663  10.085 -0.4982 -0.3239 -1.1821
   86SAPS  C218 8220  -0.011  -0.754  10.018  0.3534  0.3761 -0.4842
   86SAPS  H18R 8221  -0.067  -0.662  10.049  1.8500  0.7219  1.3847
   86SAPS  H18S 8222  -0.077  -0.836  10.053  1.0560 -0.1148 -0.2846
   86SAPS  C219 8223   0.005  -0.753   9.868  0.3150 -0.0162  0.2491
   86SAPS  H19R 8224   0.089  -0.685   9.844  0.8318 -0.4575  0.7895
   86SAPS  H19S 8225  -0.087  -0.705   9.828  0.7640  0.3559 -0.3535
   86SAPS  C220 8226   0.035  -0.891   9.805 -0.1938  0.3200  0.3291
   86SAPS  H20R 8227   0.089  -0.959   9.874  0.6886  0.7011  0.0288
   86SAPS  H20S 8228   0.096  -0.868   9.715  1.4267 -0.7718  1.0918
   86SAPS  H20T 8229  -0.062  -0.944   9.796  1.2899 -3.2438  2.9129
   86SAPS   C33 8230  -0.193   0.597  10.099 -0.2182  0.0680  0.2974
   86SAPS   H3X 8231  -0.089   0.560  10.096 -0.4003 -0.4246 -0.1456
   86SAPS   H3Y 8232  -0.196   0.691  10.039 -1.0296  0.1008  0.3820
   86SAPS   C34 8233  -0.289   0.499  10.029 -0.1018  0.6877 -0.0443
   86SAPS   H4X 8234  -0.381   0.561  10.022 -0.5500  0.1231  0.7145
   86SAPS   H4Y 8235  -0.316   0.419  10.101 -0.1603  1.4460  0.7954
   86SAPS   C35 8236  -0.237   0.449   9.899  0.7646  0.0136 -0.5363
   86SAPS   H5X 8237  -0.231   0.339   9.893  1.1353 -0.0150  0.2410
   86SAPS   H5Y 8238  -0.130   0.476   9.881  0.7682 -0.9858 -2.2245
   86SAPS   C36 8239  -0.312   0.504   9.780  0.0417 -0.0563  0.1308
   86SAPS   H6X 8240  -0.314   0.613   9.799  0.3482 -0.3858  2.2416
   86SAPS   H6Y 8241  -0.415   0.464   9.789 -0.5017  1.3087  0.1732
   86SAPS   C37 8242  -0.256   0.476   9.641  0.4091 -0.3429  0.0048
   86SAPS   H7X 8243  -0.151   0.512   9.630 -0.3061  1.5194 -1.3085
   86SAPS   H7Y 8244  -0.301   0.539   9.562  0.2189 -0.5786 -0.0755
   86SAPS   C38 8245  -0.277   0.339   9.601  0.0467 -0.4829 -0.2433
   86SAPS   H8X 8246  -0.383   0.309   9.617 -0.2435  1.0222  0.7981
   86SAPS   H8Y 8247  -0.216   0.276   9.669 -1.4127 -0.9143  0.7304
   86SAPS   C39 8248  -0.255   0.319   9.451 -0.2443  0.4699 -0.0400
   86SAPS   H9X 8249  -0.147   0.339   9.435  0.0098  0.9194  1.9457
   86SAPS   H9Y 8250  -0.306   0.397   9.390 -0.4070  1.4241  1.2753
   86SAPS  C310 8251  -0.298   0.172   9.399 -0.3604 -0.5087 -0.4627
   86SAPS  H10X 8252  -0.408   0.157   9.406 -0.2013 -1.2037  0.8191
   86SAPS  H10Y 8253  -0.264   0.110   9.484 -1.5078  0.3623  0.6700
   86SAPS  C311 8254  -0.231   0.138   9.267  0.7699 -0.0553  0.3506
   86SAPS  H11X 8255  -0.276   0.039   9.245  0.0836  0.1047  0.9820
   86SAPS  H11Y 8256  -0.122   0.119   9.272  0.7769  0.2117  1.4069
   86SAPS  C312 8257  -0.260   0.235   9.149  0.8696 -0.6886  0.7029
   86SAPS  H12X 8258  -0.205   0.331   9.160 -0.1705  0.1444 -0.8660
   86SAPS  H12Y 8259  -0.369   0.256   9.151  0.4118 -2.8398  1.6396
   86SAPS  C313 8260  -0.241   0.157   9.017 -0.1827  0.5985  0.0598
   86SAPS  H13X 8261  -0.303   0.066   9.003 -0.3040  0.7008 -0.0699
   86SAPS  H13Y 8262  -0.134   0.142   8.993 -0.4056  0.9500 -1.2209
   86SAPS  C314 8263  -0.283   0.248   8.904  0.2786 -0.2010  0.1515
   86SAPS  H14X 8264  -0.215   0.335   8.890 -0.9348  1.0188  1.4257
   86SAPS  H14Y 8265  -0.382   0.295   8.924  1.5533  1.9844  1.8293
   86SAPS  C315 8266  -0.282   0.167   8.772 -0.2922  0.1685 -0.3174
   86SAPS  H15X 8267  -0.363   0.091   8.770  0.4183 -0.6104 -0.0323
   86SAPS  H15Y 8268  -0.184   0.118   8.753  0.0078  0.7455 -0.2940
   86SAPS  C316 8269  -0.310   0.258   8.652  0.5416 -0.1663  0.4878
   86SAPS  H16X 8270  -0.237   0.341   8.653  0.8052 -0.3996  1.2596
   86SAPS  H16Y 8271  -0.408   0.310   8.665  1.1148  0.9703  0.4215
   86SAPS  C317 8272  -0.302   0.185   8.514 -0.0616 -0.2691 -0.3324
   86SAPS  H17X 8273  -0.195   0.186   8.484 -0.5366  0.1687 -2.1605
   86SAPS  H17Y 8274  -0.342   0.248   8.432  2.5906 -0.4631 -1.8852
   86SAPS  C318 8275  -0.365   0.048   8.500  0.6079  1.3155  0.6296
   86SAPS  H18X 8276  -0.474   0.047   8.522  0.4354  1.1233 -0.1695
   86SAPS  H18Y 8277  -0.321  -0.018   8.577 -0.1586 -2.0099 -1.5328
   86SAPS  H18Z 8278  -0.347   0.000   8.401 -0.3859  0.6871  0.7294
   87SAPS     N 8279   6.584   0.849  11.196  0.0589  1.3228 -0.2221
   87SAPS   HN1 8280   6.626   0.770  11.144 -1.0508 -0.1742  1.0371
   87SAPS   HN2 8281   6.578   0.939  11.144 -0.8547  1.4037 -0.0056
   87SAPS   HN3 8282   6.650   0.875  11.272  0.7894 -1.5861  0.2693
   87SAPS   C12 8283   6.452   0.818  11.244  0.7999  1.3039  1.1277
   87SAPS  H12A 8284   6.452   0.716  11.278  1.0842  0.0093 -2.3571
   87SAPS   C13 8285   6.387   0.909  11.359 -0.3138 -0.3983  0.2124
   87SAPS  O13A 8286   6.450   1.004  11.413  0.2034  0.6548  0.4787
   87SAPS  O13B 8287   6.283   0.859  11.415 -0.3970  0.2818  0.1162
   87SAPS   C11 8288   6.362   0.820  11.115  0.6848  0.0766  0.5463
   87SAPS  H11A 8289   6.263   0.792  11.157  0.7118 -0.4329  0.2814
   87SAPS  H11B 8290   6.394   0.741  11.044 -0.5823  1.9455 -2.2969
   87SAPS     P 8291   6.238   0.991  10.951 -0.5740  0.1881  0.3994
   87SAPS   O13 8292   6.117   0.909  10.964  0.2863  0.1022 -0.1321
   87SAPS   O14 8293   6.223   1.135  10.959 -0.4010  0.3220 -0.2005
   87SAPS   O12 8294   6.350   0.948  11.056  0.1431  0.2300  0.0495
   87SAPS   O11 8295   6.314   0.972  10.809 -0.3207  0.2912 -0.2661
   87SAPS    C1 8296   6.366   0.851  10.756  0.0970 -0.1977  0.4408
   87SAPS    HA 8297   6.449   0.882  10.689 -1.4801  0.5786 -1.2282
   87SAPS    HB 8298   6.408   0.796  10.843  1.0173  1.4635  1.0993
   87SAPS    C2 8299   6.258   0.789  10.671 -0.1046  0.7035 -0.1101
   87SAPS    HS 8300   6.163   0.782  10.730 -0.8865  0.7088 -1.3378
   87SAPS   O21 8301   6.302   0.657  10.629  0.2734  0.1558 -0.3868
   87SAPS   C21 8302   6.206   0.583  10.580  0.0387 -0.3397  0.6688
   87SAPS   O22 8303   6.086   0.604  10.578 -0.0054 -0.4388 -0.2735
   87SAPS   C22 8304   6.265   0.447  10.540  0.8666  0.2962 -0.2839
   87SAPS   H2R 8305   6.368   0.459  10.500  1.3759 -1.4429  0.4004
   87SAPS   H2S 8306   6.281   0.392  10.635  1.3162 -0.7937 -0.9726
   87SAPS    C3 8307   6.220   0.889  10.554 -0.1544 -0.1517 -0.4544
   87SAPS    HX 8308   6.315   0.942  10.531 -0.3586  0.7187  0.6390
   87SAPS    HY 8309   6.138   0.952  10.594  0.7035  0.2664  0.6902
   87SAPS   O31 8310   6.181   0.822  10.432  0.1046  0.0839 -0.5390
   87SAPS   C31 8311   6.057   0.815  10.392 -0.6130  0.0157 -1.1972
   87SAPS   O32 8312   5.962   0.879  10.445 -1.4672  0.9400  0.4634
   87SAPS   C32 8313   6.046   0.718  10.274  0.3748 -0.5692 -0.3036
   87SAPS   H2X 8314   5.968   0.646  10.308  0.2060 -0.8694 -1.2836
   87SAPS   H2Y 8315   6.146   0.671  10.263  0.4043 -0.0919 -2.4246
   87SAPS   C23 8316   6.183   0.349  10.448  0.4964 -0.0328 -0.6929
   87SAPS   H3R 8317   6.153   0.395  10.352  0.6980 -0.3975 -0.9304
   87SAPS   H3S 8318   6.079   0.338  10.486  0.7053 -1.8256 -0.5660
   87SAPS   C24 8319   6.253   0.214  10.418 -0.5814 -0.0231 -0.1092
   87SAPS   H4R 8320   6.186   0.173  10.340 -2.1626  0.8360  0.7623
   87SAPS   H4S 8321   6.246   0.139  10.500  0.6839 -0.4938 -0.4054
   87SAPS   C25 8322   6.400   0.221  10.387 -0.6067 -0.7129 -0.0085
   87SAPS   H5R 8323   6.458   0.266  10.469 -0.2093  2.3353 -1.8549
   87SAPS   C26 8324   6.463   0.186  10.270  0.3841  1.2302 -0.0030
   87SAPS   H6R 8325   6.570   0.211  10.271  1.2119 -1.9028  0.7060
   87SAPS   C27 8326   6.393   0.139  10.148  0.2265 -0.1608 -0.2934
   87SAPS   H7R 8327   6.424   0.198  10.059 -1.1858  2.8018  1.0481
   87SAPS   H7S 8328   6.284   0.138  10.166  0.0686  1.7663 -0.8873
   87SAPS   C28 8329   6.428  -0.011  10.126  0.1741  0.6483  0.2035
   87SAPS   H8R 8330   6.445  -0.066  10.220 -0.0523  1.0141  0.4636
   87SAPS   C29 8331   6.457  -0.071  10.016  0.3880 -0.2729 -0.2675
   87SAPS   H9R 8332   6.472  -0.177  10.038 -3.4807 -0.9727 -0.2485
   87SAPS  C210 8333   6.453  -0.016   9.881 -0.2648 -0.2905 -0.0619
   87SAPS  H10R 8334   6.520   0.070   9.862  0.8885 -1.4694 -1.5807
   87SAPS  H10S 8335   6.348   0.016   9.862 -0.5322 -0.4540  1.0301
   87SAPS  C211 8336   6.507  -0.108   9.777 -0.1481  0.0758 -0.0309
   87SAPS  H11R 8337   6.613  -0.136   9.778  0.0759  0.8979 -0.3802
   87SAPS  C212 8338   6.438  -0.167   9.675 -0.3838 -0.2462 -0.0848
   87SAPS  H12R 8339   6.484  -0.245   9.613  0.4023 -0.1904  0.4172
   87SAPS  C213 8340   6.290  -0.150   9.647  0.4731 -0.0869  0.4521
   87SAPS  H13R 8341   6.240  -0.096   9.730  0.1656 -0.3670  0.4540
   87SAPS  H13S 8342   6.232  -0.244   9.637 -0.9189  0.8039 -0.0109
   87SAPS  C214 8343   6.270  -0.064   9.525 -0.5622  0.0086 -0.0274
   87SAPS  H14R 8344   6.285   0.045   9.536  1.0291  0.2990 -3.5769
   87SAPS  C215 8345   6.220  -0.103   9.407  0.3495  0.1309 -0.1490
   87SAPS  H15R 8346   6.209  -0.030   9.325  0.5893  1.4834  0.9864
   87SAPS  C216 8347   6.187  -0.244   9.381 -0.4269 -0.2045  0.5301
   87SAPS  H16R 8348   6.079  -0.255   9.357  0.0736 -2.2576 -1.0870
   87SAPS  H16S 8349   6.207  -0.322   9.457  0.3458 -1.6775 -1.1184
   87SAPS  C217 8350   6.261  -0.290   9.255 -0.3716  0.0005  0.5505
   87SAPS  H17R 8351   6.364  -0.322   9.284 -0.5357 -1.1520 -0.0620
   87SAPS  H17S 8352   6.266  -0.214   9.174  2.0851  0.2371  0.8257
   87SAPS  C218 8353   6.212  -0.420   9.201  0.2200  0.2805  0.2161
   87SAPS  H18R 8354   6.163  -0.405   9.102 -0.1397  3.4761  0.7501
   87SAPS  H18S 8355   6.126  -0.448   9.265  0.3870  1.3599  0.9369
   87SAPS  C219 8356   6.315  -0.532   9.180 -0.1183  0.0699  0.0802
   87SAPS  H19R 8357   6.358  -0.563   9.278  2.1430  0.3178 -0.7741
   87SAPS  H19S 8358   6.401  -0.498   9.120  1.0614  0.5082  1.9178
   87SAPS  C220 8359   6.261  -0.664   9.116  0.2120  0.0902 -0.0314
   87SAPS  H20R 8360   6.241  -0.639   9.010  1.5476  1.6340  0.0328
   87SAPS  H20S 8361   6.164  -0.700   9.156  0.0390 -0.1080 -0.6264
   87SAPS  H20T 8362   6.328  -0.752   9.102 -0.4775 -0.5395  0.5315
   87SAPS   C33 8363   5.992   0.775  10.140  0.0997  0.3484  0.1589
   87SAPS   H3X 8364   5.897   0.820  10.175 -0.2538 -0.3952  0.1842
   87SAPS   H3Y 8365   5.963   0.690  10.074  2.3353  0.0608 -0.5134
   87SAPS   C34 8366   6.085   0.861  10.055  0.2120 -0.1316 -0.4753
   87SAPS   H4X 8367   6.089   0.967  10.086  0.5724 -0.4026  0.4440
   87SAPS   H4Y 8368   6.036   0.868   9.955 -0.1824  1.7825 -0.1781
   87SAPS   C35 8369   6.236   0.814  10.043  0.4432 -0.0113  0.4035
   87SAPS   H5X 8370   6.240   0.705  10.022 -3.1618 -0.2417  0.2869
   87SAPS   H5Y 8371   6.291   0.847  10.133  0.1456 -0.8945  0.9250
   87SAPS   C36 8372   6.312   0.884   9.932 -0.2545 -0.2817 -0.5294
   87SAPS   H6X 8373   6.413   0.839   9.921 -0.0341  0.7254 -3.6497
   87SAPS   H6Y 8374   6.328   0.990   9.961  0.3642 -0.5670  0.2152
   87SAPS   C37 8375   6.234   0.870   9.798  0.6111  0.1067 -0.0740
   87SAPS   H7X 8376   6.152   0.945   9.789 -0.9358 -1.0266  3.0773
   87SAPS   H7Y 8377   6.177   0.776   9.786 -1.3973  1.3225 -0.5075
   87SAPS   C38 8378   6.322   0.893   9.677 -0.0631 -0.7401  0.1751
   87SAPS   H8X 8379   6.419   0.841   9.689  0.6191  0.9952  3.6914
   87SAPS   H8Y 8380   6.338   1.003   9.670 -1.1764 -0.5991 -0.3718
   87SAPS   C39 8381   6.267   0.840   9.545 -0.0214  0.0560 -0.0726
   87SAPS   H9X 8382   6.176   0.898   9.518 -0.6237  0.7103  3.0287
   87SAPS   H9Y 8383   6.227   0.739   9.565 -2.1874  1.1811  1.8870
   87SAPS  C310 8384   6.374   0.841   9.435  0.0559 -0.1638  0.2211
   87SAPS  H10X 8385   6.462   0.784   9.469 -0.4088 -0.2707  1.2828
   87SAPS  H10Y 8386   6.390   0.948   9.413  0.9654 -0.3543 -0.0658
   87SAPS  C311 8387   6.336   0.784   9.300  0.1182  0.1629 -0.8109
   87SAPS  H11X 8388   6.258   0.851   9.258 -0.1807  1.2366  1.3200
   87SAPS  H11Y 8389   6.272   0.698   9.326 -1.3107  1.4288 -0.0047
   87SAPS  C312 8390   6.453   0.754   9.209 -0.3466  0.2822  0.4586
   87SAPS  H12X 8391   6.507   0.659   9.230  0.3122  0.6540  0.4987
   87SAPS  H12Y 8392   6.536   0.828   9.205 -0.8715  0.8426 -0.3374
   87SAPS  C313 8393   6.416   0.765   9.059 -0.0853  0.1729  0.3728
   87SAPS  H13X 8394   6.507   0.733   9.005  0.8263 -1.0128  2.5028
   87SAPS  H13Y 8395   6.398   0.871   9.030 -0.6052  0.0940  0.3893
   87SAPS  C314 8396   6.304   0.675   9.027  0.5708 -1.1283 -0.0347
   87SAPS  H14X 8397   6.210   0.698   9.082  0.6128  2.2863 -1.2025
   87SAPS  H14Y 8398   6.319   0.568   9.054 -0.3457 -0.8200  1.8055
   87SAPS  C315 8399   6.256   0.657   8.875 -1.0039  0.3936 -0.0704
   87SAPS  H15X 8400   6.345   0.612   8.825 -2.7747 -1.8962 -1.3770
   87SAPS  H15Y 8401   6.252   0.764   8.845  1.4464  0.8595  1.0262
   87SAPS  C316 8402   6.125   0.578   8.878  0.0060 -0.1127 -0.2592
   87SAPS  H16X 8403   6.042   0.623   8.937  0.8348 -0.5792  1.3079
   87SAPS  H16Y 8404   6.147   0.476   8.915 -0.6164 -0.6525 -1.3224
   87SAPS  C317 8405   6.061   0.563   8.740  0.0741  0.3250  0.3367
   87SAPS  H17X 8406   6.131   0.505   8.676 -0.5288  1.8847 -1.8924
   87SAPS  H17Y 8407   6.057   0.663   8.690 -2.1883 -0.2205 -0.6773
   87SAPS  C318 8408   5.924   0.499   8.756  0.3331 -0.2825  0.5327
   87SAPS  H18X 8409   5.850   0.530   8.679  0.1240 -0.9436  0.4620
   87SAPS  H18Y 8410   5.884   0.515   8.859  0.1964 -2.1800  0.8129
   87SAPS  H18Z 8411   5.927   0.388   8.751 -0.8989 -0.2874 -0.6842
   88SAPS     N 8412   1.806   5.298  11.376 -0.3587 -0.2760  0.8026
   88SAPS   HN1 8413   1.902   5.339  11.369  0.0937 -0.6078  3.6662
   88SAPS   HN2 8414   1.737   5.375  11.390 -1.8328 -0.7714 -2.8158
   88SAPS   HN3 8415   1.810   5.246  11.466  1.7073  1.5673  1.8872
   88SAPS   C12 8416   1.775   5.226  11.249 -0.2957  0.5893  0.2392
   88SAPS  H12A 8417   1.830   5.134  11.258 -0.7771  0.1894 -0.7570
   88SAPS   C13 8418   1.626   5.198  11.226 -0.1914 -0.1840 -0.1282
   88SAPS  O13A 8419   1.547   5.266  11.292 -0.5071 -0.7121 -0.0256
   88SAPS  O13B 8420   1.583   5.117  11.136 -0.2639 -0.3863 -0.2013
   88SAPS   C11 8421   1.819   5.325  11.129 -0.2886  0.1146  0.4640
   88SAPS  H11A 8422   1.764   5.420  11.147 -0.7543 -0.3054  1.2814
   88SAPS  H11B 8423   1.788   5.279  11.032 -0.8312 -2.3497  1.7327
   88SAPS     P 8424   2.063   5.307  11.024 -0.1289 -0.2280  0.0378
   88SAPS   O13 8425   2.182   5.397  11.041 -0.2335  0.2843  0.9305
   88SAPS   O14 8426   2.086   5.161  11.020  0.0349  0.0540 -0.3864
   88SAPS   O12 8427   1.959   5.330  11.142  0.1850  0.0137  0.4022
   88SAPS   O11 8428   1.991   5.356  10.890  0.2548  0.7013 -0.5745
   88SAPS    C1 8429   1.965   5.278  10.776  0.2497 -0.4689 -0.2464
   88SAPS    HA 8430   1.933   5.176  10.805  1.1941 -1.1047 -1.3211
   88SAPS    HB 8431   1.882   5.325  10.719  0.0723  0.1457  0.5128
   88SAPS    C2 8432   2.093   5.271  10.690 -0.3128 -0.4835  0.3350
   88SAPS    HS 8433   2.180   5.242  10.753  1.3106 -1.9770 -2.4115
   88SAPS   O21 8434   2.112   5.401  10.627  0.5081  0.1909  0.3002
   88SAPS   C21 8435   2.213   5.421  10.543 -0.4105  0.3771 -0.7016
   88SAPS   O22 8436   2.313   5.348  10.534 -0.1232 -0.5369  0.0613
   88SAPS   C22 8437   2.191   5.560  10.489 -0.2353  0.5814 -0.1509
   88SAPS   H2R 8438   2.084   5.567  10.457 -0.9861 -1.1281  1.7532
   88SAPS   H2S 8439   2.209   5.628  10.574 -0.5742  0.7720 -0.2289
   88SAPS    C3 8440   2.081   5.152  10.581  0.4268  0.2497 -0.0719
   88SAPS    HX 8441   2.089   5.059  10.641  2.1576  1.5182  1.8500
   88SAPS    HY 8442   2.175   5.156  10.522  1.0491  2.6668  0.9280
   88SAPS   O31 8443   1.957   5.162  10.502 -0.8377  0.3799 -0.5065
   88SAPS   C31 8444   1.966   5.207  10.378 -0.1503 -0.1638 -0.2434
   88SAPS   O32 8445   2.069   5.217  10.309 -0.4160 -0.1078  0.6253
   88SAPS   C32 8446   1.831   5.258  10.332  0.1965  0.0572 -0.7110
   88SAPS   H2X 8447   1.755   5.261  10.413 -2.1480 -0.9350 -2.7706
   88SAPS   H2Y 8448   1.779   5.193  10.259  0.2031 -0.5490 -0.1893
   88SAPS   C23 8449   2.301   5.583  10.384  0.1455  0.2192  0.1408
   88SAPS   H3R 8450   2.395   5.528  10.406 -0.0200  0.2510  0.9722
   88SAPS   H3S 8451   2.338   5.687  10.382  0.9354 -0.0553  0.3210
   88SAPS   C24 8452   2.257   5.536  10.244  0.3502  0.0045 -0.1277
   88SAPS   H4R 8453   2.162   5.589  10.219  0.0169 -0.9888 -1.0409
   88SAPS   H4S 8454   2.228   5.429  10.253 -0.5365  0.2368 -0.1392
   88SAPS   C25 8455   2.363   5.579  10.142  0.2809 -0.0991 -0.1253
   88SAPS   H5R 8456   2.410   5.674  10.171  1.3373 -0.6670  0.0962
   88SAPS   C26 8457   2.413   5.515  10.036  0.5031 -0.0506 -0.2391
   88SAPS   H6R 8458   2.490   5.573   9.982  1.4214 -0.5483  0.4958
   88SAPS   C27 8459   2.359   5.384   9.999 -0.1115  0.0717  0.3175
   88SAPS   H7R 8460   2.342   5.388   9.889 -0.9754  0.7952  0.4749
   88SAPS   H7S 8461   2.252   5.388  10.028 -0.8265  1.8779 -2.2349
   88SAPS   C28 8462   2.422   5.255  10.046 -0.6982 -0.0608  0.1892
   88SAPS   H8R 8463   2.382   5.227  10.145 -1.5894  2.2854  0.5524
   88SAPS   C29 8464   2.497   5.162   9.981  0.2545 -0.9632  0.4364
   88SAPS   H9R 8465   2.530   5.077  10.042  0.9276  1.2118  3.3689
   88SAPS  C210 8466   2.564   5.190   9.846  0.1580 -0.9654 -0.4624
   88SAPS  H10R 8467   2.669   5.157   9.859  1.4688  2.7977 -0.4231
   88SAPS  H10S 8468   2.576   5.298   9.824 -1.2659 -0.4616  1.0067
   88SAPS  C211 8469   2.498   5.118   9.729 -0.5466 -0.9108  0.0660
   88SAPS  H11R 8470   2.405   5.067   9.758 -1.2182  0.2756  0.0978
   88SAPS  C212 8471   2.544   5.122   9.600 -0.0433  0.3213 -0.4068
   88SAPS  H12R 8472   2.487   5.070   9.522 -0.4900 -0.0003  0.1261
   88SAPS  C213 8473   2.667   5.196   9.551  0.4591 -0.3033  0.3335
   88SAPS  H13R 8474   2.708   5.256   9.635  0.6104 -0.6823  0.5331
   88SAPS  H13S 8475   2.622   5.261   9.473  0.3204 -0.2928  0.4226
   88SAPS  C214 8476   2.768   5.106   9.488  0.7864 -0.1368 -0.3190
   88SAPS  H14R 8477   2.842   5.058   9.553 -0.8853  1.4609  2.9963
   88SAPS  C215 8478   2.783   5.072   9.360 -0.3390  0.2925  0.5160
   88SAPS  H15R 8479   2.860   4.999   9.331 -0.7416  0.5750 -1.4027
   88SAPS  C216 8480   2.697   5.110   9.240  0.1724 -0.2306  0.0184
   88SAPS  H16R 8481   2.656   5.213   9.239 -2.2943 -1.1175  0.9352
   88SAPS  H16S 8482   2.612   5.038   9.231  1.7236 -2.1543  0.0734
   88SAPS  C217 8483   2.770   5.080   9.109  0.3677  0.1114  0.7293
   88SAPS  H17R 8484   2.779   4.970   9.101 -1.6467 -0.0070 -0.5295
   88SAPS  H17S 8485   2.864   5.139   9.100 -0.4949  1.3847 -0.4271
   88SAPS  C218 8486   2.695   5.120   8.976  0.3306  0.5316 -0.2677
   88SAPS  H18R 8487   2.713   5.224   8.941 -0.2901  1.0751  0.9370
   88SAPS  H18S 8488   2.587   5.108   8.999  0.4128  1.9787  1.0566
   88SAPS  C219 8489   2.728   5.027   8.856 -0.4111  0.0896  0.1790
   88SAPS  H19R 8490   2.712   4.921   8.886  0.1150 -0.8088 -2.4674
   88SAPS  H19S 8491   2.833   5.041   8.824 -0.3826  1.4102  0.7804
   88SAPS  C220 8492   2.639   5.049   8.738  0.0927 -0.7719  0.4157
   88SAPS  H20R 8493   2.543   5.003   8.769 -0.1220 -0.7925 -0.2521
   88SAPS  H20S 8494   2.675   4.994   8.648 -1.4759 -1.3616  0.1260
   88SAPS  H20T 8495   2.634   5.160   8.730  1.7073 -0.5691  1.5321
   88SAPS   C33 8496   1.836   5.401  10.268  0.0556 -0.3599  0.5053
   88SAPS   H3X 8497   1.930   5.451  10.302  1.2589 -2.0912 -0.1334
   88SAPS   H3Y 8498   1.749   5.459  10.306 -0.2659  0.6240 -1.5908
   88SAPS   C34 8499   1.817   5.397  10.109 -0.4852 -0.5773  0.2555
   88SAPS   H4X 8500   1.792   5.500  10.075 -1.2698 -0.4565  1.1606
   88SAPS   H4Y 8501   1.733   5.329  10.082  0.0691 -1.4384  0.6377
   88SAPS   C35 8502   1.937   5.337  10.029  0.0650  0.1497  0.0410
   88SAPS   H5X 8503   1.938   5.233  10.066 -1.4728 -0.7412 -2.1403
   88SAPS   H5Y 8504   2.025   5.399  10.056  0.5106  1.7208 -4.2153
   88SAPS   C36 8505   1.920   5.327   9.879 -0.0810 -0.4537  0.6469
   88SAPS   H6X 8506   1.905   5.435   9.857  3.8464  0.1599  0.1653
   88SAPS   H6Y 8507   1.826   5.277   9.847  0.1461 -0.4722 -0.0175
   88SAPS   C37 8508   2.042   5.285   9.795  0.3662 -0.4371 -0.6324
   88SAPS   H7X 8509   2.079   5.192   9.843  0.9458  0.5105  0.8107
   88SAPS   H7Y 8510   2.119   5.355   9.835 -2.2006  0.7161  2.8007
   88SAPS   C38 8511   2.002   5.279   9.650 -0.3131 -0.1404 -0.4254
   88SAPS   H8X 8512   2.013   5.385   9.617  0.2224 -0.2948 -0.7498
   88SAPS   H8Y 8513   1.899   5.245   9.628  0.4265 -2.5359 -0.4659
   88SAPS   C39 8514   2.095   5.189   9.577  0.5051  0.0300  0.0478
   88SAPS   H9X 8515   2.065   5.086   9.605  0.9146 -1.0635 -3.1024
   88SAPS   H9Y 8516   2.202   5.199   9.605  1.9047 -3.3413 -3.1484
   88SAPS  C310 8517   2.075   5.198   9.423 -0.5926 -0.6250  0.2319
   88SAPS  H10X 8518   2.082   5.305   9.391 -1.3029 -0.5556  0.2912
   88SAPS  H10Y 8519   1.968   5.175   9.405 -2.1639  0.5421  6.1484
   88SAPS  C311 8520   2.180   5.112   9.347  0.2527  0.3907 -0.2249
   88SAPS  H11X 8521   2.180   5.006   9.382 -0.0136  0.0555 -1.2006
   88SAPS  H11Y 8522   2.278   5.151   9.380  0.1514  0.4187  0.0526
   88SAPS  C312 8523   2.168   5.095   9.198  0.2689  0.3616  0.3821
   88SAPS  H12X 8524   2.156   5.200   9.165 -3.5163  0.2885  1.1474
   88SAPS  H12Y 8525   2.078   5.037   9.169 -0.2797  1.4577 -0.1446
   88SAPS  C313 8526   2.298   5.044   9.139  0.6285 -0.3497  0.4943
   88SAPS  H13X 8527   2.385   5.084   9.194  0.2794 -0.1428  0.9055
   88SAPS  H13Y 8528   2.303   5.079   9.034 -0.4098 -2.1271 -0.1827
   88SAPS  C314 8529   2.306   4.892   9.133  0.8528  0.1246 -0.5211
   88SAPS  H14X 8530   2.221   4.837   9.087  0.1191  0.3368  0.5510
   88SAPS  H14Y 8531   2.294   4.865   9.240 -4.8156  0.3340 -0.8272
   88SAPS  C315 8532   2.435   4.837   9.078 -0.3672  0.4428  0.6659
   88SAPS  H15X 8533   2.516   4.900   9.118 -0.9292  2.7527 -1.5667
   88SAPS  H15Y 8534   2.419   4.852   8.969 -0.6224  0.6540  0.7307
   88SAPS  C316 8535   2.450   4.686   9.107  0.2669  0.2154 -0.3640
   88SAPS  H16X 8536   2.355   4.634   9.084 -0.5618  1.8482 -0.8146
   88SAPS  H16Y 8537   2.465   4.681   9.217 -1.0070  0.6900 -0.1527
   88SAPS  C317 8538   2.574   4.627   9.031 -0.0598 -0.5559 -0.8040
   88SAPS  H17X 8539   2.602   4.535   9.087  1.6101 -0.2893 -1.1258
   88SAPS  H17Y 8540   2.658   4.700   9.039 -0.4733  0.2009 -2.7485
   88SAPS  C318 8541   2.551   4.601   8.882 -0.2395  0.4910  0.1096
   88SAPS  H18X 8542   2.642   4.547   8.847 -1.1113  0.0073 -1.4955
   88SAPS  H18Y 8543   2.543   4.696   8.825  1.7365  0.9431  0.5078
   88SAPS  H18Z 8544   2.474   4.524   8.866  0.8465 -0.6688  0.3352
   89SAPS     N 8545   2.466   1.607  11.278  0.3149  0.3829 -0.4541
   89SAPS   HN1 8546   2.488   1.690  11.337  0.8107 -1.7717  2.6249
   89SAPS   HN2 8547   2.365   1.612  11.252  0.9114  0.0719 -3.0985
   89SAPS   HN3 8548   2.484   1.521  11.334  0.9997  0.2151 -0.9289
   89SAPS   C12 8549   2.542   1.619  11.149  0.7011  0.4876 -0.4163
   89SAPS  H12A 8550   2.644   1.624  11.187  0.6716 -2.7927  0.4033
   89SAPS   C13 8551   2.534   1.485  11.069  0.2158  0.0397  0.0617
   89SAPS  O13A 8552   2.475   1.380  11.115  0.0933 -0.1253 -0.7428
   89SAPS  O13B 8553   2.598   1.476  10.954 -0.2024 -0.1351 -0.2518
   89SAPS   C11 8554   2.498   1.742  11.058 -0.2655  0.1739  0.1302
   89SAPS  H11A 8555   2.390   1.745  11.031 -0.5904 -0.8551  1.1954
   89SAPS  H11B 8556   2.551   1.728  10.962  0.9728  0.0834  0.7991
   89SAPS     P 8557   2.566   1.990  11.043  0.2134 -0.8089  0.5501
   89SAPS   O13 8558   2.592   2.107  11.133 -0.6362 -0.3629 -0.0165
   89SAPS   O14 8559   2.677   1.968  10.946 -0.1459 -0.4142  0.1199
   89SAPS   O12 8560   2.538   1.857  11.125 -0.0978  0.1321  0.2415
   89SAPS   O11 8561   2.436   2.007  10.959 -0.6607 -0.0502 -0.0599
   89SAPS    C1 8562   2.310   2.034  11.016  0.1706 -0.0209 -0.7254
   89SAPS    HA 8563   2.279   1.942  11.070  0.3318 -0.5963 -1.5959
   89SAPS    HB 8564   2.315   2.125  11.079  0.0507 -2.0226  2.3970
   89SAPS    C2 8565   2.205   2.054  10.904  0.1011 -0.5575  0.8020
   89SAPS    HS 8566   2.119   1.987  10.929 -1.2896  0.5091 -0.9066
   89SAPS   O21 8567   2.252   2.031  10.764 -0.0228 -0.0069 -0.5243
   89SAPS   C21 8568   2.261   1.913  10.721 -0.2631  0.0686 -0.0407
   89SAPS   O22 8569   2.235   1.803  10.777  0.0671  0.1397  0.1062
   89SAPS   C22 8570   2.326   1.921  10.587  0.1184  0.0816 -0.2901
   89SAPS   H2R 8571   2.266   1.994  10.529  0.4734 -1.1113 -2.2386
   89SAPS   H2S 8572   2.430   1.954  10.611  0.7531 -1.8288 -0.2276
   89SAPS    C3 8573   2.141   2.197  10.902 -0.3436 -0.1899 -0.2782
   89SAPS    HX 8574   2.228   2.264  10.887  1.4425 -1.7392  2.4112
   89SAPS    HY 8575   2.096   2.223  11.000 -1.9795 -0.3473 -0.9459
   89SAPS   O31 8576   2.034   2.215  10.803 -0.3735 -0.1131 -0.0317
   89SAPS   C31 8577   2.077   2.262  10.682 -0.2397 -0.3339 -1.0322
   89SAPS   O32 8578   2.193   2.277  10.656  0.5318 -0.1650  0.2531
   89SAPS   C32 8579   1.965   2.289  10.590 -0.2846 -0.0757 -0.1183
   89SAPS   H2X 8580   1.942   2.398  10.591  0.8747  0.1909 -0.2755
   89SAPS   H2Y 8581   1.882   2.222  10.619  1.3204 -0.8489  3.1176
   89SAPS   C23 8582   2.327   1.786  10.518  0.7514  1.0417 -0.4646
   89SAPS   H3R 8583   2.220   1.755  10.511  1.0238 -0.2250  0.6078
   89SAPS   H3S 8584   2.381   1.719  10.589  0.0155 -0.1537 -0.9965
   89SAPS   C24 8585   2.418   1.773  10.394 -0.1243 -0.2819  0.0436
   89SAPS   H4R 8586   2.514   1.815  10.429 -1.9371  1.7292  2.9461
   89SAPS   H4S 8587   2.389   1.838  10.309 -1.6278 -2.5199 -1.2696
   89SAPS   C25 8588   2.447   1.632  10.347  0.1232 -0.3457  0.1729
   89SAPS   H5R 8589   2.398   1.554  10.406 -2.1463 -0.0937 -1.2468
   89SAPS   C26 8590   2.520   1.598  10.238 -0.0644 -0.4956  0.3787
   89SAPS   H6R 8591   2.538   1.491  10.218 -0.4554 -0.4963  0.0018
   89SAPS   C27 8592   2.586   1.686  10.133  0.2104  0.3573 -0.1191
   89SAPS   H7R 8593   2.667   1.633  10.080 -0.1902 -1.1752  0.7426
   89SAPS   H7S 8594   2.633   1.777  10.175  0.5273  0.1731 -0.0760
   89SAPS   C28 8595   2.474   1.733  10.042 -0.1160 -0.1255 -0.0908
   89SAPS   H8R 8596   2.395   1.791  10.092 -0.9025  0.2540 -1.7242
   89SAPS   C29 8597   2.473   1.719   9.909  0.3461  0.5116 -0.5411
   89SAPS   H9R 8598   2.384   1.760   9.861 -0.8430 -1.5149 -0.1728
   89SAPS  C210 8599   2.579   1.644   9.832 -0.1264  0.5848 -0.1521
   89SAPS  H10R 8600   2.631   1.570   9.896 -1.9108 -0.0005  0.6926
   89SAPS  H10S 8601   2.651   1.717   9.790  2.2676 -1.0898  0.8761
   89SAPS  C211 8602   2.528   1.562   9.720 -0.3199  0.3660  0.8312
   89SAPS  H11R 8603   2.422   1.535   9.727 -1.1042  2.9343 -0.1631
   89SAPS  C212 8604   2.598   1.525   9.604  0.9789 -0.2996  0.1303
   89SAPS  H12R 8605   2.547   1.462   9.530  3.8233 -2.4480 -0.1686
   89SAPS  C213 8606   2.741   1.558   9.560  0.5072 -0.7504 -0.1792
   89SAPS  H13R 8607   2.769   1.482   9.483  3.2334 -0.1778  0.1332
   89SAPS  H13S 8608   2.809   1.555   9.648  2.0611 -1.2297 -1.3322
   89SAPS  C214 8609   2.748   1.701   9.502  0.6540  0.0918 -0.1840
   89SAPS  H14R 8610   2.692   1.778   9.558  1.9657 -0.3168  1.7490
   89SAPS  C215 8611   2.804   1.728   9.385  0.1847  0.4110 -0.5105
   89SAPS  H15R 8612   2.791   1.826   9.338 -1.6599 -0.1602 -1.2741
   89SAPS  C216 8613   2.892   1.638   9.295  0.4467 -0.4402 -0.0158
   89SAPS  H16R 8614   2.852   1.534   9.305 -2.8413  0.6811 -0.4987
   89SAPS  H16S 8615   2.999   1.636   9.324 -0.0652 -0.1883  2.0886
   89SAPS  C217 8616   2.879   1.672   9.142 -0.6922  0.0201  0.1377
   89SAPS  H17R 8617   2.776   1.707   9.123 -1.5092 -1.0129  2.3920
   89SAPS  H17S 8618   2.883   1.580   9.079  0.3625 -0.3433  0.6971
   89SAPS  C218 8619   2.992   1.758   9.092 -0.2234 -0.2310  0.7860
   89SAPS  H18R 8620   3.096   1.734   9.124  1.1485  0.5466 -2.6513
   89SAPS  H18S 8621   2.960   1.850   9.146 -1.9820 -0.5404  0.3187
   89SAPS  C219 8622   3.003   1.774   8.942 -0.0787  0.2140 -0.0056
   89SAPS  H19R 8623   3.013   1.676   8.889 -3.0633  0.3398 -0.9954
   89SAPS  H19S 8624   3.095   1.834   8.927  0.8514 -1.3003 -0.6464
   89SAPS  C220 8625   2.888   1.842   8.880 -0.4211  0.3494 -0.7090
   89SAPS  H20R 8626   2.898   1.853   8.770  0.8359  2.1856 -0.4628
   89SAPS  H20S 8627   2.875   1.943   8.924  1.7326 -0.0033  0.9080
   89SAPS  H20T 8628   2.791   1.793   8.900  0.9597 -2.4580 -0.4629
   89SAPS   C33 8629   2.001   2.258  10.439  0.6147 -0.2730  0.1683
   89SAPS   H3X 8630   2.102   2.301  10.421  0.4431 -0.7400 -2.2395
   89SAPS   H3Y 8631   1.924   2.309  10.377  1.3253 -0.8104 -1.1858
   89SAPS   C34 8632   2.004   2.108  10.409  0.1409  0.4668 -0.1604
   89SAPS   H4X 8633   1.898   2.076  10.421 -0.5431  1.3233 -3.0254
   89SAPS   H4Y 8634   2.068   2.062  10.487 -0.0096  1.4273  0.5489
   89SAPS   C35 8635   2.038   2.067  10.264  0.0965  0.2678 -0.8104
   89SAPS   H5X 8636   2.139   2.108  10.245  0.3988 -0.1021 -0.0540
   89SAPS   H5Y 8637   1.971   2.125  10.197 -0.6824  1.2862  0.7894
   89SAPS   C36 8638   2.037   1.911  10.240  0.5508 -0.1965 -0.2102
   89SAPS   H6X 8639   1.946   1.855  10.270  0.3374  0.3844  0.2391
   89SAPS   H6Y 8640   2.117   1.871  10.306 -0.3152 -1.1231  0.2980
   89SAPS   C37 8641   2.067   1.871  10.098 -0.0621  0.1790  0.1490
   89SAPS   H7X 8642   2.081   1.760  10.100 -0.4771  0.0892 -1.2613
   89SAPS   H7Y 8643   2.153   1.928  10.058 -0.5983  0.7173 -0.2365
   89SAPS   C38 8644   1.949   1.894  10.004  0.2720  0.0134  0.0553
   89SAPS   H8X 8645   1.924   2.002  10.000  0.4294  0.0177 -1.2747
   89SAPS   H8Y 8646   1.867   1.840  10.056  1.0980  0.0395  1.4347
   89SAPS   C39 8647   1.971   1.840   9.861 -0.1313  0.2904  0.4668
   89SAPS   H9X 8648   1.881   1.788   9.821  1.5267 -2.1758 -0.3139
   89SAPS   H9Y 8649   2.047   1.759   9.863 -1.2221 -0.7442  1.1653
   89SAPS  C310 8650   2.022   1.941   9.759 -0.6333  0.0868 -0.0167
   89SAPS  H10X 8651   2.132   1.955   9.765 -0.7420  2.4096 -1.8455
   89SAPS  H10Y 8652   1.977   2.039   9.784  1.7127  0.9890  0.8940
   89SAPS  C311 8653   1.995   1.901   9.616 -0.4974  0.1482 -0.2128
   89SAPS  H11X 8654   2.061   1.950   9.541  0.2144 -0.1675  0.2069
   89SAPS  H11Y 8655   1.886   1.913   9.597 -0.6754 -1.7408 -0.5210
   89SAPS  C312 8656   2.032   1.759   9.575  0.2965  0.4250  0.2405
   89SAPS  H12X 8657   1.980   1.741   9.479  0.1915 -0.3531  0.4385
   89SAPS  H12Y 8658   1.993   1.684   9.647  0.4957 -2.1806 -2.2066
   89SAPS  C313 8659   2.184   1.735   9.564 -0.9125  0.2173 -0.5587
   89SAPS  H13X 8660   2.210   1.629   9.586  1.2025  0.6831 -0.5682
   89SAPS  H13Y 8661   2.248   1.781   9.643  2.0146 -2.9400 -0.8754
   89SAPS  C314 8662   2.244   1.764   9.430  0.4884 -0.1095  0.1353
   89SAPS  H14X 8663   2.352   1.787   9.444  0.4629 -0.2117  0.5104
   89SAPS  H14Y 8664   2.201   1.859   9.392  0.4078  0.5873  1.8373
   89SAPS  C315 8665   2.233   1.655   9.319  0.5390 -0.3884 -0.3243
   89SAPS  H15X 8666   2.141   1.597   9.341  0.3610  0.6801  2.1708
   89SAPS  H15Y 8667   2.316   1.586   9.343  1.4888  0.5873 -0.6927
   89SAPS  C316 8668   2.261   1.704   9.178  0.2922 -0.4654 -0.9951
   89SAPS  H16X 8669   2.356   1.762   9.182 -1.0497  1.8761 -0.8315
   89SAPS  H16Y 8670   2.180   1.775   9.150  1.5710  0.6030 -2.1590
   89SAPS  C317 8671   2.268   1.598   9.067 -0.7899 -0.1536 -0.2665
   89SAPS  H17X 8672   2.243   1.657   8.976 -2.8963  1.6422  1.3798
   89SAPS  H17Y 8673   2.187   1.523   9.077  0.2789 -1.0468  3.4687
   89SAPS  C318 8674   2.400   1.532   9.045  0.4765 -0.0309  0.0654
   89SAPS  H18X 8675   2.487   1.602   9.049 -0.4435  1.2253 -0.9874
   89SAPS  H18Y 8676   2.399   1.474   8.951  1.0566  0.5793 -0.3248
   89SAPS  H18Z 8677   2.419   1.461   9.128 -0.5320 -1.5638 -0.9840
   90SAPS     N 8678   3.391   1.353  10.874  0.2384  0.1292  0.0627
   90SAPS   HN1 8679   3.459   1.429  10.897  1.9254 -1.7254  1.6092
   90SAPS   HN2 8680   3.385   1.351  10.770 -1.9023  1.6452  0.0978
   90SAPS   HN3 8681   3.297   1.389  10.898  0.1893 -0.9217  1.5318
   90SAPS   C12 8682   3.415   1.230  10.949 -0.1620  0.2788 -0.4603
   90SAPS  H12A 8683   3.511   1.199  10.910  0.6811  0.0332  1.6955
   90SAPS   C13 8684   3.436   1.243  11.104 -0.0794  0.2873  0.2090
   90SAPS  O13A 8685   3.438   1.348  11.162  0.5714 -0.5005  0.4572
   90SAPS  O13B 8686   3.397   1.143  11.165 -0.2874  0.2087 -0.7181
   90SAPS   C11 8687   3.301   1.137  10.913 -0.1478 -0.2533  0.0947
   90SAPS  H11A 8688   3.207   1.193  10.893  0.8781  1.2902 -0.6127
   90SAPS  H11B 8689   3.279   1.065  10.994  2.0597  0.0146  1.0068
   90SAPS     P 8690   3.385   0.917  10.789 -0.3967 -0.1593  0.2646
   90SAPS   O13 8691   3.509   0.917  10.860 -0.6638 -0.0534 -0.3449
   90SAPS   O14 8692   3.275   0.830  10.839 -0.3379 -0.1023 -0.5649
   90SAPS   O12 8693   3.340   1.068  10.797  0.0995  0.0695  0.1271
   90SAPS   O11 8694   3.427   0.892  10.642 -0.0021 -0.1464 -0.2074
   90SAPS    C1 8695   3.421   0.986  10.538 -0.2583 -0.0638 -0.0814
   90SAPS    HA 8696   3.455   0.945  10.440  0.0561  1.5866 -0.7003
   90SAPS    HB 8697   3.319   1.028  10.524  0.1162  0.6930 -0.6137
   90SAPS    C2 8698   3.524   1.096  10.555 -0.3907  0.2928  0.3525
   90SAPS    HS 8699   3.524   1.137  10.658 -1.4134 -1.2159  1.0000
   90SAPS   O21 8700   3.500   1.197  10.451 -0.4822  0.1557 -0.3901
   90SAPS   C21 8701   3.458   1.325  10.491  0.3621 -0.5184 -0.2925
   90SAPS   O22 8702   3.443   1.361  10.604  0.2441  0.9975 -0.5874
   90SAPS   C22 8703   3.457   1.412  10.372 -0.5586  0.1723 -0.2088
   90SAPS   H2R 8704   3.556   1.461  10.362 -0.9278  0.8591 -0.5636
   90SAPS   H2S 8705   3.443   1.348  10.282 -1.7429 -0.3064  0.2932
   90SAPS    C3 8706   3.666   1.037  10.540 -0.0572 -0.5973  0.5830
   90SAPS    HX 8707   3.698   0.985  10.633  1.4090  0.9463  1.0002
   90SAPS    HY 8708   3.734   1.126  10.541 -0.6702 -0.0509 -1.3313
   90SAPS   O31 8709   3.678   0.951  10.424  0.6068  0.2606  0.2309
   90SAPS   C31 8710   3.754   0.848  10.447 -0.2733  0.6669  0.2231
   90SAPS   O32 8711   3.847   0.838  10.528 -0.3057 -0.7990  0.1893
   90SAPS   C32 8712   3.739   0.748  10.330 -0.0485  0.1284 -0.1673
   90SAPS   H2X 8713   3.705   0.799  10.238  1.4630 -0.4145 -1.0609
   90SAPS   H2Y 8714   3.656   0.679  10.358 -0.5883 -0.2389 -2.4761
   90SAPS   C23 8715   3.357   1.525  10.384  0.2842 -0.8805 -0.1400
   90SAPS   H3R 8716   3.368   1.570  10.485  0.9857 -2.4902  0.5458
   90SAPS   H3S 8717   3.257   1.481  10.363 -0.1153  0.8543 -2.3184
   90SAPS   C24 8718   3.387   1.636  10.273 -0.0190 -0.1546 -0.1247
   90SAPS   H4R 8719   3.466   1.710  10.300 -2.3242  2.2965  0.3814
   90SAPS   H4S 8720   3.293   1.695  10.278 -1.0565 -1.6280 -1.5953
   90SAPS   C25 8721   3.406   1.588  10.130  0.7081  0.3962  0.5760
   90SAPS   H5R 8722   3.347   1.497  10.113  1.2759  0.4704 -2.2426
   90SAPS   C26 8723   3.478   1.649  10.036 -0.1633  0.1480 -0.0921
   90SAPS   H6R 8724   3.463   1.617   9.932 -0.3431 -2.1831  0.5927
   90SAPS   C27 8725   3.548   1.775  10.067  0.2536  0.3613 -0.6460
   90SAPS   H7R 8726   3.622   1.772  10.150  1.8924  3.4553 -1.8053
   90SAPS   H7S 8727   3.475   1.857  10.085  0.1907 -0.0429  1.0861
   90SAPS   C28 8728   3.629   1.826   9.953  0.3900 -0.4265  0.2375
   90SAPS   H8R 8729   3.692   1.753   9.900  1.3621  1.1405 -0.8543
   90SAPS   C29 8730   3.653   1.959   9.929 -0.5357 -0.0756 -0.4444
   90SAPS   H9R 8731   3.724   1.993   9.852 -1.3297  3.2563  0.1482
   90SAPS  C210 8732   3.606   2.070  10.020 -0.0418 -0.5157  0.3561
   90SAPS  H10R 8733   3.612   2.037  10.126  0.1710 -0.3032  0.4121
   90SAPS  H10S 8734   3.501   2.091   9.993  0.2499  0.3245 -0.1704
   90SAPS  C211 8735   3.662   2.211  10.013  0.2836 -0.0125 -0.0010
   90SAPS  H11R 8736   3.696   2.251  10.109  1.0789 -2.6909  0.9070
   90SAPS  C212 8737   3.692   2.296   9.918 -0.7355  0.4612  0.2906
   90SAPS  H12R 8738   3.757   2.381   9.945 -1.4897  0.7690  1.2133
   90SAPS  C213 8739   3.660   2.268   9.769  0.8045  0.1871 -0.3267
   90SAPS  H13R 8740   3.571   2.201   9.768  0.1865  0.8713  2.3072
   90SAPS  H13S 8741   3.735   2.196   9.730  1.1777  0.0129  0.6952
   90SAPS  C214 8742   3.632   2.387   9.681 -0.5169 -0.5742  0.0375
   90SAPS  H14R 8743   3.607   2.484   9.728  3.2114  0.6329 -0.1967
   90SAPS  C215 8744   3.636   2.404   9.546 -0.4094 -0.6009 -0.6797
   90SAPS  H15R 8745   3.599   2.505   9.521  1.3463  0.5659  1.1670
   90SAPS  C216 8746   3.673   2.304   9.437  0.0131 -0.3707 -0.3204
   90SAPS  H16R 8747   3.586   2.295   9.368 -1.9493  0.1923  1.9502
   90SAPS  H16S 8748   3.677   2.197   9.466  1.2049 -0.5024 -0.9284
   90SAPS  C217 8749   3.803   2.340   9.367  0.3822  0.7936  0.0487
   90SAPS  H17R 8750   3.894   2.312   9.425  1.1149 -1.4281 -1.9767
   90SAPS  H17S 8751   3.811   2.445   9.330 -0.4462  0.7016 -0.4016
   90SAPS  C218 8752   3.819   2.258   9.232 -0.5494 -0.5959 -0.5786
   90SAPS  H18R 8753   3.847   2.153   9.252 -2.5497 -0.8052  1.5523
   90SAPS  H18S 8754   3.907   2.302   9.181  0.3662  1.1225  2.2192
   90SAPS  C219 8755   3.703   2.273   9.128 -0.8853 -0.5572 -0.1447
   90SAPS  H19R 8756   3.686   2.381   9.143  0.6207 -0.2689 -0.4345
   90SAPS  H19S 8757   3.623   2.199   9.150  0.1657 -1.7481 -0.2292
   90SAPS  C220 8758   3.745   2.263   8.980 -0.2278  0.0900  0.1745
   90SAPS  H20R 8759   3.844   2.309   8.961 -0.7815  2.2770  2.1281
   90SAPS  H20S 8760   3.672   2.318   8.917  1.4749  2.7566  0.3618
   90SAPS  H20T 8761   3.748   2.156   8.948  0.7708  0.1053  0.1954
   90SAPS   C33 8762   3.861   0.671  10.293 -0.8420 -0.1843 -0.0242
   90SAPS   H3X 8763   3.892   0.605  10.377 -0.4467 -2.2654 -1.7249
   90SAPS   H3Y 8764   3.945   0.740  10.267 -1.7474  1.3731  1.0296
   90SAPS   C34 8765   3.832   0.581  10.171  0.2027  0.1853  0.9708
   90SAPS   H4X 8766   3.791   0.643  10.089  3.2623 -0.0506 -0.8722
   90SAPS   H4Y 8767   3.767   0.495  10.200  0.8220 -0.9428 -0.7737
   90SAPS   C35 8768   3.959   0.526  10.102  0.6765  0.2019  0.2352
   90SAPS   H5X 8769   4.020   0.461  10.168  0.7736 -0.9420 -0.9475
   90SAPS   H5Y 8770   4.017   0.618  10.076 -0.0999  1.0670  1.4718
   90SAPS   C36 8771   3.916   0.455   9.973 -1.0185  0.2600 -0.1880
   90SAPS   H6X 8772   3.857   0.524   9.909  1.4535  3.4958  0.7397
   90SAPS   H6Y 8773   3.851   0.369   9.999 -0.8719  0.1992 -0.0197
   90SAPS   C37 8774   4.033   0.399   9.904 -0.5024  0.5469 -0.0714
   90SAPS   H7X 8775   4.080   0.313   9.957 -0.2092  0.4084 -0.5450
   90SAPS   H7Y 8776   4.108   0.481   9.910  0.4592 -0.3937  1.3567
   90SAPS   C38 8777   4.011   0.348   9.756  0.5751 -0.2351 -0.0403
   90SAPS   H8X 8778   4.097   0.353   9.685  0.0233  1.3193 -0.6276
   90SAPS   H8Y 8779   3.934   0.415   9.714  1.3711  1.1065  0.5875
   90SAPS   C39 8780   3.955   0.208   9.767 -0.0213 -0.0531  0.4851
   90SAPS   H9X 8781   3.857   0.201   9.818 -0.1804  1.5970  0.4381
   90SAPS   H9Y 8782   4.023   0.146   9.829 -0.1788 -1.1377 -0.3962
   90SAPS  C310 8783   3.961   0.129   9.633  0.0176 -0.2002  1.0374
   90SAPS  H10X 8784   3.917   0.029   9.653  0.2320 -0.5392 -0.0972
   90SAPS  H10Y 8785   4.065   0.109   9.602  1.0039  1.7429  2.8693
   90SAPS  C311 8786   3.888   0.200   9.514  0.7566  0.3147  0.5454
   90SAPS  H11X 8787   3.936   0.299   9.500  0.6418  0.3963  0.7339
   90SAPS  H11Y 8788   3.785   0.215   9.552 -0.2880  0.1601 -1.9999
   90SAPS  C312 8789   3.876   0.135   9.377  0.3419  0.3658  0.2324
   90SAPS  H12X 8790   3.801   0.189   9.316  1.9103  1.1281 -1.0951
   90SAPS  H12Y 8791   3.837   0.031   9.382 -1.2173  0.9181  0.1599
   90SAPS  C313 8792   3.997   0.152   9.285  0.1512 -1.0302 -0.4264
   90SAPS  H13X 8793   3.994   0.072   9.208  3.0535 -0.5441 -1.1567
   90SAPS  H13Y 8794   4.093   0.138   9.340  0.0882 -2.0299 -0.5627
   90SAPS  C314 8795   3.992   0.292   9.222 -0.5663  0.7910  0.2573
   90SAPS  H14X 8796   4.026   0.364   9.299  1.1778  0.2814  0.0285
   90SAPS  H14Y 8797   3.890   0.321   9.189 -0.0229  0.6987 -1.6590
   90SAPS  C315 8798   4.098   0.312   9.118 -0.1862 -0.2011  0.1034
   90SAPS  H15X 8799   4.192   0.260   9.146 -0.7608 -1.5277 -0.3771
   90SAPS  H15Y 8800   4.128   0.419   9.116  2.1244 -0.7860 -2.7844
   90SAPS  C316 8801   4.058   0.266   8.979 -0.3473 -0.1147 -0.5255
   90SAPS  H16X 8802   3.957   0.300   8.949 -0.5044  2.0536  2.0238
   90SAPS  H16Y 8803   4.052   0.155   8.987  2.1788 -0.1772  1.9344
   90SAPS  C317 8804   4.160   0.306   8.873 -0.5381 -0.8358 -0.7259
   90SAPS  H17X 8805   4.132   0.260   8.775  1.6831  0.7679 -2.2091
   90SAPS  H17Y 8806   4.261   0.270   8.901 -0.3333 -0.5367 -1.0685
   90SAPS  C318 8807   4.190   0.453   8.859  0.1808 -0.2738  0.5139
   90SAPS  H18X 8808   4.250   0.476   8.768 -0.0821 -1.3228  0.0535
   90SAPS  H18Y 8809   4.241   0.482   8.953  0.3730 -1.6342  0.8568
   90SAPS  H18Z 8810   4.099   0.516   8.855 -1.0035 -1.9365 -0.6199
   91SAPS     N 8811   2.096   6.092   5.860  0.5213  0.4947  0.3392
   91SAPS   HN1 8812   2.029   6.027   5.906  1.0441 -1.1677 -1.1267
   91SAPS   HN2 8813   2.080   6.075   5.758 -0.4733 -3.5011  0.9637
   91SAPS   HN3 8814   2.186   6.045   5.882 -1.2219 -2.7358  1.2363
   91SAPS   C12 8815   2.084   6.231   5.896  0.7317  0.1655  0.4870
   91SAPS  H12A 8816   2.179   6.269   5.862  0.5911 -0.4533 -0.6502
   91SAPS   C13 8817   1.977   6.315   5.813 -0.0698 -0.4790 -0.4959
   91SAPS  O13A 8818   1.917   6.263   5.714 -0.2138 -0.1801  0.0143
   91SAPS  O13B 8819   1.956   6.439   5.841 -0.6223  0.7042 -0.0423
   91SAPS   C11 8820   2.044   6.233   6.054  0.3583  0.3639  0.1638
   91SAPS  H11A 8821   1.977   6.318   6.078 -2.0474 -1.0868 -1.1035
   91SAPS  H11B 8822   2.135   6.236   6.119 -1.0262  0.3783  2.2048
   91SAPS     P 8823   1.878   6.097   6.223 -0.2212  0.2184  0.0501
   91SAPS   O13 8824   1.736   6.108   6.184 -0.4611 -0.2267  0.0468
   91SAPS   O14 8825   1.914   5.977   6.300  0.2869  0.2786  0.3660
   91SAPS   O12 8826   1.979   6.105   6.104  0.3145 -0.4542  0.1927
   91SAPS   O11 8827   1.911   6.225   6.309 -0.4010  0.5022 -0.1038
   91SAPS    C1 8828   2.040   6.258   6.362 -0.0792 -0.1616  0.1778
   91SAPS    HA 8829   2.117   6.179   6.343  0.2506  0.1881  0.0329
   91SAPS    HB 8830   2.080   6.349   6.313  0.6765 -0.5664  0.0102
   91SAPS    C2 8831   2.029   6.306   6.510 -0.0839 -0.0169 -0.7243
   91SAPS    HS 8832   2.134   6.329   6.538  0.5121 -1.3306 -1.7536
   91SAPS   O21 8833   1.970   6.210   6.597  0.5744 -0.1540 -0.0815
   91SAPS   C21 8834   2.025   6.095   6.608  0.0607  0.1797  0.5835
   91SAPS   O22 8835   2.131   6.060   6.550  0.3199  0.0391 -0.1364
   91SAPS   C22 8836   1.941   6.010   6.703 -0.0363  0.5558  0.0419
   91SAPS   H2R 8837   1.845   6.062   6.722  0.0279  0.6864  0.0164
   91SAPS   H2S 8838   1.919   5.914   6.653 -1.3724  0.7815  0.1816
   91SAPS    C3 8839   1.940   6.426   6.521 -0.0343 -0.2104 -0.4425
   91SAPS    HX 8840   1.837   6.399   6.487 -0.1878 -0.1610 -0.0162
   91SAPS    HY 8841   1.970   6.503   6.447 -2.2500  1.3737  0.2177
   91SAPS   O31 8842   1.941   6.484   6.658 -0.0050  0.2292  0.1570
   91SAPS   C31 8843   1.832   6.464   6.732 -0.3210 -0.0749 -0.0374
   91SAPS   O32 8844   1.726   6.418   6.693  0.2246 -0.2191 -0.8953
   91SAPS   C32 8845   1.856   6.519   6.876 -0.1898 -0.2382  0.0127
   91SAPS   H2X 8846   1.945   6.584   6.887  1.8770 -2.8764  0.1101
   91SAPS   H2Y 8847   1.885   6.428   6.932 -1.6929 -1.3385 -0.9072
   91SAPS   C23 8848   2.018   6.004   6.835  0.5283 -0.3886 -0.1829
   91SAPS   H3R 8849   2.127   5.990   6.818  0.6176  1.6115 -1.5241
   91SAPS   H3S 8850   1.974   5.924   6.899 -1.6072  0.6000 -0.3266
   91SAPS   C24 8851   2.014   6.136   6.915 -0.3015  0.3739 -0.2732
   91SAPS   H4R 8852   2.037   6.225   6.852  2.4845  0.4484  0.7107
   91SAPS   H4S 8853   2.098   6.125   6.987 -2.2421  1.3880  2.3450
   91SAPS   C25 8854   1.884   6.145   6.996 -0.8406 -0.3424  0.1376
   91SAPS   H5R 8855   1.792   6.166   6.940 -0.4380 -0.7828 -0.6969
   91SAPS   C26 8856   1.876   6.146   7.129  0.2645  0.2020  0.2333
   91SAPS   H6R 8857   1.773   6.163   7.165 -0.2178 -2.2815  0.1842
   91SAPS   C27 8858   1.989   6.137   7.233 -0.5101 -0.3270 -0.0453
   91SAPS   H7R 8859   1.940   6.186   7.320 -1.3754 -2.0482  0.4863
   91SAPS   H7S 8860   2.081   6.193   7.205 -0.2872 -0.1253  1.0182
   91SAPS   C28 8861   2.018   5.996   7.273 -0.3915  0.2862 -0.5469
   91SAPS   H8R 8862   2.071   5.938   7.195 -1.1606 -2.0438  0.5578
   91SAPS   C29 8863   1.994   5.932   7.391  0.1733  0.0111  0.1978
   91SAPS   H9R 8864   2.007   5.823   7.385 -2.7880 -0.3849 -0.6987
   91SAPS  C210 8865   1.919   5.995   7.506 -0.3827  0.5597 -0.2252
   91SAPS  H10R 8866   1.829   6.049   7.468  0.3449  1.7170 -0.3585
   91SAPS  H10S 8867   1.996   6.064   7.546  2.8696 -1.8262 -1.8754
   91SAPS  C211 8868   1.876   5.894   7.602  0.4040 -0.5367 -0.3068
   91SAPS  H11R 8869   1.803   5.819   7.567  0.4450 -1.6712  1.8350
   91SAPS  C212 8870   1.920   5.877   7.726 -0.5989 -0.6126  0.2325
   91SAPS  H12R 8871   1.892   5.782   7.773 -0.0616 -0.2995  1.2049
   91SAPS  C213 8872   2.018   5.955   7.814  0.3898 -0.1184 -0.5200
   91SAPS  H13R 8873   2.075   6.023   7.746  1.5890 -0.6305 -0.0543
   91SAPS  H13S 8874   2.095   5.888   7.858 -1.0311 -1.5864 -0.1860
   91SAPS  C214 8875   1.944   6.033   7.919  0.2847 -0.0596  0.1157
   91SAPS  H14R 8876   1.848   6.076   7.886 -0.9112 -3.0218 -0.5974
   91SAPS  C215 8877   1.998   6.060   8.041 -0.0327  0.5311  0.0438
   91SAPS  H15R 8878   1.939   6.122   8.110 -1.8803  1.8475 -2.5690
   91SAPS  C216 8879   2.128   6.013   8.104  0.3635 -1.1368  0.6709
   91SAPS  H16R 8880   2.169   5.926   8.047  0.3539 -1.1595  0.6986
   91SAPS  H16S 8881   2.114   5.970   8.206  1.2864 -1.4759  0.6658
   91SAPS  C217 8882   2.227   6.130   8.115 -0.4521 -0.4932 -0.5989
   91SAPS  H17R 8883   2.180   6.208   8.180  0.7042 -1.3943  1.4310
   91SAPS  H17S 8884   2.250   6.161   8.011  3.6748  0.9866  0.5579
   91SAPS  C218 8885   2.372   6.099   8.163  0.8468  0.7227 -0.0202
   91SAPS  H18R 8886   2.445   6.175   8.129  0.0531  1.2081 -0.6891
   91SAPS  H18S 8887   2.396   5.998   8.123  2.6719  1.2242 -0.2683
   91SAPS  C219 8888   2.384   6.090   8.312 -0.1883 -0.6794  0.1646
   91SAPS  H19R 8889   2.289   6.060   8.361 -0.2081  0.9541  1.2029
   91SAPS  H19S 8890   2.407   6.190   8.355  1.7173 -1.2881  0.6994
   91SAPS  C220 8891   2.489   5.990   8.351 -0.0765 -0.2503 -0.6320
   91SAPS  H20R 8892   2.471   5.892   8.302 -0.4972 -0.2887 -0.4075
   91SAPS  H20S 8893   2.487   5.973   8.461 -0.7008 -0.1675 -0.6280
   91SAPS  H20T 8894   2.589   6.031   8.323  1.1373 -2.4275  0.2449
   91SAPS   C33 8895   1.724   6.579   6.932 -0.5446  0.0832 -0.5118
   91SAPS   H3X 8896   1.642   6.508   6.909 -0.7800  0.6104 -1.3852
   91SAPS   H3Y 8897   1.695   6.672   6.878  1.6025 -1.0150 -3.9271
   91SAPS   C34 8898   1.724   6.603   7.082 -0.2882  0.0161  0.2185
   91SAPS   H4X 8899   1.650   6.679   7.113 -0.2613  0.5132 -0.8830
   91SAPS   H4Y 8900   1.823   6.650   7.100  0.6403 -2.3880  1.7350
   91SAPS   C35 8901   1.712   6.471   7.157  0.2369  0.0918  0.5824
   91SAPS   H5X 8902   1.784   6.402   7.106  1.1339  2.4797 -1.6254
   91SAPS   H5Y 8903   1.609   6.430   7.143  0.2971  0.0709  0.1934
   91SAPS   C36 8904   1.755   6.487   7.301 -0.6215 -0.0443  0.1282
   91SAPS   H6X 8905   1.708   6.581   7.338  1.5919  1.9441 -1.7402
   91SAPS   H6Y 8906   1.866   6.497   7.303 -0.6576  0.3558  0.1975
   91SAPS   C37 8907   1.720   6.362   7.383  0.2961  0.3056 -0.0020
   91SAPS   H7X 8908   1.716   6.277   7.313 -0.2441 -1.1397  1.7090
   91SAPS   H7Y 8909   1.614   6.377   7.414 -0.0212 -1.6693 -0.0481
   91SAPS   C38 8910   1.816   6.348   7.498  0.5824 -1.0755 -0.7043
   91SAPS   H8X 8911   1.913   6.391   7.466  0.3465  2.7169  2.8241
   91SAPS   H8Y 8912   1.811   6.246   7.543 -1.5362 -0.7047  0.0401
   91SAPS   C39 8913   1.773   6.437   7.620  0.3141  0.5942 -0.5743
   91SAPS   H9X 8914   1.674   6.419   7.665  1.5980  1.7211  3.0796
   91SAPS   H9Y 8915   1.782   6.542   7.584  0.0422  0.0474 -2.3460
   91SAPS  C310 8916   1.874   6.427   7.733 -0.5916  0.6881 -0.0243
   91SAPS  H10X 8917   1.968   6.471   7.695 -1.1567  1.4308 -0.5834
   91SAPS  H10Y 8918   1.888   6.321   7.763  0.0573  0.4523 -1.1210
   91SAPS  C311 8919   1.829   6.507   7.857  0.7409  0.3435 -0.5236
   91SAPS  H11X 8920   1.740   6.455   7.899  0.1477 -0.4587 -2.6452
   91SAPS  H11Y 8921   1.786   6.606   7.833 -0.5144  0.3002  1.3419
   91SAPS  C312 8922   1.930   6.514   7.970 -0.5508 -0.0480  0.5165
   91SAPS  H12X 8923   2.004   6.593   7.947  0.5292 -0.7743  1.4203
   91SAPS  H12Y 8924   1.987   6.419   7.969 -0.8889 -0.2676 -0.8849
   91SAPS  C313 8925   1.868   6.535   8.104  0.9838  0.0911 -0.4543
   91SAPS  H13X 8926   1.800   6.449   8.123  0.6604 -0.0544 -2.0914
   91SAPS  H13Y 8927   1.799   6.622   8.105  3.1386  1.8615  0.1221
   91SAPS  C314 8928   1.971   6.544   8.220  1.0879  0.1888  0.6322
   91SAPS  H14X 8929   2.063   6.605   8.205  0.8365  0.0868 -1.7658
   91SAPS  H14Y 8930   2.000   6.437   8.230  1.1189  0.1915  0.5718
   91SAPS  C315 8931   1.906   6.585   8.350  0.4268 -0.1605 -0.1669
   91SAPS  H15X 8932   1.845   6.670   8.312 -0.5729 -1.8379 -2.5231
   91SAPS  H15Y 8933   1.978   6.633   8.420  0.2699 -1.7867  1.1695
   91SAPS  C316 8934   1.831   6.494   8.434 -0.0953  0.3305 -0.2560
   91SAPS  H16X 8935   1.802   6.404   8.376 -1.9596 -1.0319  2.5595
   91SAPS  H16Y 8936   1.736   6.542   8.466  0.1457 -1.5812  4.0382
   91SAPS  C317 8937   1.917   6.438   8.550  0.4721 -0.0936 -0.3168
   91SAPS  H17X 8938   1.848   6.385   8.619 -0.1814 -0.1022 -0.9584
   91SAPS  H17Y 8939   1.952   6.533   8.595  0.5161  0.6165 -1.7822
   91SAPS  C318 8940   2.028   6.350   8.506  0.3275 -0.1047  0.7899
   91SAPS  H18X 8941   1.981   6.268   8.450  0.7946 -0.5969  1.1056
   91SAPS  H18Y 8942   2.080   6.309   8.595  1.7676  1.3215  0.6746
   91SAPS  H18Z 8943   2.098   6.408   8.442 -0.4493 -2.4254 -2.3979
   92SAPS     N 8944   2.447   3.583   6.038 -0.5385  0.4790  0.3408
   92SAPS   HN1 8945   2.488   3.656   6.100 -0.0670  0.9823 -0.5443
   92SAPS   HN2 8946   2.524   3.544   5.981 -1.9490  0.6120 -1.7878
   92SAPS   HN3 8947   2.372   3.622   5.976  0.5008 -1.6191 -2.4252
   92SAPS   C12 8948   2.383   3.482   6.131  0.8475 -0.2474 -0.0207
   92SAPS  H12A 8949   2.291   3.524   6.169  0.3737  0.6432 -2.0201
   92SAPS   C13 8950   2.346   3.347   6.073  0.0295 -0.6018  0.8641
   92SAPS  O13A 8951   2.372   3.314   5.953 -0.2920 -0.1863 -0.2171
   92SAPS  O13B 8952   2.301   3.261   6.148  0.1970  0.5671 -0.4591
   92SAPS   C11 8953   2.490   3.457   6.239 -0.5006  0.0612 -0.1455
   92SAPS  H11A 8954   2.573   3.402   6.189 -1.1993  0.4948 -1.8818
   92SAPS  H11B 8955   2.434   3.390   6.307 -1.8579 -0.2998 -1.5610
   92SAPS     P 8956   2.658   3.553   6.404 -0.2837  0.2106 -0.1344
   92SAPS   O13 8957   2.719   3.417   6.393 -0.4715  0.1257 -0.0091
   92SAPS   O14 8958   2.755   3.665   6.404 -0.3509  0.3205  0.2479
   92SAPS   O12 8959   2.536   3.577   6.309  0.2823  0.9461 -0.1649
   92SAPS   O11 8960   2.577   3.560   6.539 -0.4052 -0.1089  0.4285
   92SAPS    C1 8961   2.642   3.552   6.670  0.0704  0.8807  0.0919
   92SAPS    HA 8962   2.750   3.532   6.658 -0.1903 -0.5440 -0.1155
   92SAPS    HB 8963   2.625   3.653   6.715 -0.8193  0.4895  0.6759
   92SAPS    C2 8964   2.582   3.438   6.750 -0.4321  0.0457  0.1286
   92SAPS    HS 8965   2.472   3.453   6.757 -0.6081 -1.0479 -0.1865
   92SAPS   O21 8966   2.639   3.434   6.885  0.0871  0.6079 -0.1780
   92SAPS   C21 8967   2.581   3.515   6.965 -0.2753  0.1069  0.8120
   92SAPS   O22 8968   2.490   3.591   6.934 -0.4157  0.1270 -0.0960
   92SAPS   C22 8969   2.669   3.524   7.090  0.3034  0.1254 -0.6551
   92SAPS   H2R 8970   2.775   3.529   7.056  1.1807 -3.5122  1.0215
   92SAPS   H2S 8971   2.659   3.611   7.158  1.3857 -0.1856 -0.0809
   92SAPS    C3 8972   2.622   3.300   6.695  0.0437  0.5122  0.5133
   92SAPS    HX 8973   2.733   3.301   6.690  0.0401  2.7981 -3.2206
   92SAPS    HY 8974   2.585   3.275   6.593 -3.4396 -1.6222  2.1226
   92SAPS   O31 8975   2.563   3.199   6.781 -0.0537 -0.0504  0.1193
   92SAPS   C31 8976   2.602   3.071   6.750  0.6863 -0.3349 -0.3868
   92SAPS   O32 8977   2.683   3.043   6.664  0.1062 -0.5525 -0.3614
   92SAPS   C32 8978   2.527   2.965   6.832 -0.1465  0.6394 -0.0266
   92SAPS   H2X 8979   2.447   2.925   6.766  0.3402  0.8144 -0.7172
   92SAPS   H2Y 8980   2.490   3.016   6.924 -0.0680 -2.2373  1.7456
   92SAPS   C23 8981   2.645   3.390   7.165 -0.5327  0.6357 -0.2804
   92SAPS   H3R 8982   2.707   3.379   7.257 -0.9625  0.5464  0.0047
   92SAPS   H3S 8983   2.659   3.297   7.107 -1.4759 -0.1265  0.6707
   92SAPS   C24 8984   2.496   3.392   7.229 -0.2159 -0.2809  0.0600
   92SAPS   H4R 8985   2.419   3.392   7.148 -1.2301 -1.0790  0.9850
   92SAPS   H4S 8986   2.484   3.491   7.277 -1.2596  2.5464 -5.2872
   92SAPS   C25 8987   2.481   3.274   7.326  0.2655  0.0530 -0.6191
   92SAPS   H5R 8988   2.455   3.177   7.282  2.5331 -1.6409  1.4547
   92SAPS   C26 8989   2.515   3.274   7.461  0.1093  0.6925 -0.1749
   92SAPS   H6R 8990   2.498   3.181   7.517 -2.0972  0.2419 -1.4593
   92SAPS   C27 8991   2.577   3.388   7.542  0.2466 -0.1057 -0.7784
   92SAPS   H7R 8992   2.557   3.486   7.492  1.1192 -0.6546 -2.2586
   92SAPS   H7S 8993   2.688   3.386   7.536  0.3434  1.8672 -0.4849
   92SAPS   C28 8994   2.516   3.387   7.681 -0.2267 -0.4566 -0.7021
   92SAPS   H8R 8995   2.407   3.384   7.695 -0.1621 -1.6191 -0.3474
   92SAPS   C29 8996   2.585   3.382   7.797  0.7301 -0.2468 -0.4309
   92SAPS   H9R 8997   2.535   3.388   7.895 -1.4522 -3.0566 -1.2367
   92SAPS  C210 8998   2.733   3.380   7.821 -0.0849 -0.3686 -0.0872
   92SAPS  H10R 8999   2.755   3.459   7.896  0.2041  0.0693 -0.6181
   92SAPS  H10S 9000   2.792   3.414   7.733  0.7950  1.0133  0.9769
   92SAPS  C211 9001   2.784   3.244   7.861 -0.9032  0.2580 -0.0440
   92SAPS  H11R 9002   2.809   3.177   7.778 -2.5094 -0.9035  0.3539
   92SAPS  C212 9003   2.781   3.190   7.988  0.0320 -0.2607  0.4666
   92SAPS  H12R 9004   2.825   3.091   8.009  0.5935  0.0018  0.5248
   92SAPS  C213 9005   2.727   3.257   8.115 -0.1186  0.3503 -0.8160
   92SAPS  H13R 9006   2.718   3.367   8.108  0.4938  0.4685  0.0961
   92SAPS  H13S 9007   2.792   3.234   8.202 -1.1095  1.8341  0.3507
   92SAPS  C214 9008   2.587   3.203   8.147 -0.0710 -0.2689 -0.2518
   92SAPS  H14R 9009   2.517   3.208   8.062 -2.4013  2.1715  1.6340
   92SAPS  C215 9010   2.530   3.175   8.268 -0.4234  0.2327  0.4955
   92SAPS  H15R 9011   2.429   3.132   8.275 -1.0907  1.9892  2.9054
   92SAPS  C216 9012   2.602   3.170   8.394 -0.0461 -0.2123 -0.2440
   92SAPS  H16R 9013   2.695   3.232   8.398  0.9722 -1.7385  2.5959
   92SAPS  H16S 9014   2.649   3.071   8.409 -0.5882 -0.2792  1.2051
   92SAPS  C217 9015   2.517   3.206   8.522  0.0511  0.0368  0.1146
   92SAPS  H17R 9016   2.417   3.158   8.514 -1.5934  2.6156  3.1096
   92SAPS  H17S 9017   2.507   3.317   8.516  2.0575  0.2033 -1.2729
   92SAPS  C218 9018   2.587   3.181   8.648 -0.7483  0.3296 -0.0567
   92SAPS  H18R 9019   2.616   3.074   8.657 -0.9283  0.2739 -0.1312
   92SAPS  H18S 9020   2.524   3.202   8.737  2.4342 -0.1646  2.5269
   92SAPS  C219 9021   2.696   3.278   8.676 -0.2086 -0.3077  0.3386
   92SAPS  H19R 9022   2.670   3.381   8.644 -0.4161 -0.6664 -0.6906
   92SAPS  H19S 9023   2.787   3.251   8.617 -0.4169  0.1060 -0.1847
   92SAPS  C220 9024   2.728   3.292   8.822 -1.1506 -0.2658 -1.1487
   92SAPS  H20R 9025   2.641   3.316   8.886 -0.2004  2.4229 -0.7084
   92SAPS  H20S 9026   2.800   3.376   8.836 -0.1182 -1.1897 -0.7584
   92SAPS  H20T 9027   2.780   3.203   8.864  0.8544  1.7198  0.8860
   92SAPS   C33 9028   2.623   2.849   6.881  0.6521  0.3123  0.3662
   92SAPS   H3X 9029   2.673   2.805   6.792 -2.5028 -2.8275 -0.0838
   92SAPS   H3Y 9030   2.564   2.762   6.915  0.3170 -0.1667 -1.3741
   92SAPS   C34 9031   2.718   2.884   6.999  0.7935  0.0231  0.2659
   92SAPS   H4X 9032   2.782   2.965   6.958  1.4931 -0.7297 -0.1527
   92SAPS   H4Y 9033   2.781   2.793   7.004 -2.0508 -2.1080 -0.2561
   92SAPS   C35 9034   2.654   2.919   7.131  0.2755  0.5733  0.8094
   92SAPS   H5X 9035   2.556   2.869   7.128 -0.0806  1.3031 -1.2808
   92SAPS   H5Y 9036   2.641   3.029   7.121 -1.1793  0.2710 -1.1287
   92SAPS   C36 9037   2.733   2.870   7.260 -0.8018 -0.2549 -0.2152
   92SAPS   H6X 9038   2.828   2.927   7.266 -0.7601 -0.2688 -0.7002
   92SAPS   H6Y 9039   2.744   2.762   7.236  1.3534 -0.5536  1.7280
   92SAPS   C37 9040   2.660   2.892   7.395 -0.1673  0.2705 -0.2687
   92SAPS   H7X 9041   2.567   2.834   7.378 -0.7671  1.0815  0.1987
   92SAPS   H7Y 9042   2.632   2.998   7.414 -1.0396 -0.1394  0.8957
   92SAPS   C38 9043   2.744   2.830   7.513  0.2056  0.4881  0.1069
   92SAPS   H8X 9044   2.835   2.891   7.533  0.6069  0.3120 -1.0883
   92SAPS   H8Y 9045   2.778   2.726   7.491 -2.2887 -0.0542 -1.5656
   92SAPS   C39 9046   2.656   2.852   7.641 -0.1608 -0.1719 -0.2162
   92SAPS   H9X 9047   2.559   2.798   7.640 -1.6418  2.1814 -3.1993
   92SAPS   H9Y 9048   2.634   2.961   7.653 -0.7997 -0.3786  0.5698
   92SAPS  C310 9049   2.730   2.800   7.766  0.1055  0.2806 -0.9121
   92SAPS  H10X 9050   2.833   2.840   7.775 -0.0452  0.5115 -0.2056
   92SAPS  H10Y 9051   2.732   2.689   7.753 -0.4791  0.0805  0.5363
   92SAPS  C311 9052   2.662   2.823   7.904 -0.3610  0.3217  0.3763
   92SAPS  H11X 9053   2.560   2.781   7.902  0.5680 -2.1625  1.0854
   92SAPS  H11Y 9054   2.658   2.930   7.935  1.9641  0.6523 -0.2363
   92SAPS  C312 9055   2.741   2.741   8.012  0.7844 -0.7062  0.8407
   92SAPS  H12X 9056   2.848   2.771   8.011  1.1572 -1.9646  0.0307
   92SAPS  H12Y 9057   2.732   2.632   7.991 -1.3721 -0.2724 -0.8312
   92SAPS  C313 9058   2.708   2.776   8.160  0.2539  0.5662 -0.2158
   92SAPS  H13X 9059   2.609   2.743   8.198  2.7225 -4.5845  2.9966
   92SAPS  H13Y 9060   2.716   2.887   8.161 -3.1935  1.1781 -4.6732
   92SAPS  C314 9061   2.818   2.726   8.246  0.1485 -0.0931  0.0811
   92SAPS  H14X 9062   2.916   2.711   8.194 -0.0366  0.0407 -0.3126
   92SAPS  H14Y 9063   2.792   2.624   8.281  0.8926 -0.6034 -0.8020
   92SAPS  C315 9064   2.834   2.827   8.362 -0.5833  0.6571 -0.4346
   92SAPS  H15X 9065   2.742   2.823   8.426 -0.5334 -0.7695 -0.4084
   92SAPS  H15Y 9066   2.854   2.928   8.320  0.6272  0.7871  0.4125
   92SAPS  C316 9067   2.956   2.789   8.439  0.4016 -0.1895  0.2359
   92SAPS  H16X 9068   3.034   2.766   8.363  0.3205 -0.0981  0.1243
   92SAPS  H16Y 9069   2.946   2.697   8.501  1.6520 -1.0945 -0.8238
   92SAPS  C317 9070   3.013   2.910   8.522 -0.3762  0.6047 -0.5225
   92SAPS  H17X 9071   2.998   3.003   8.463  0.9830  1.3284  0.2232
   92SAPS  H17Y 9072   3.122   2.899   8.538 -0.1717  0.5123 -1.8653
   92SAPS  C318 9073   2.940   2.922   8.656  0.5961  1.0455  0.3407
   92SAPS  H18X 9074   2.955   2.827   8.713  0.9682  0.8211 -0.1247
   92SAPS  H18Y 9075   2.830   2.923   8.637  0.5132  0.2823  0.7068
   92SAPS  H18Z 9076   2.965   3.009   8.721  0.7397  1.5939 -0.4464
   93SAPS     N 9077   2.399   4.217   6.094 -0.2835 -1.3439 -0.1663
   93SAPS   HN1 9078   2.310   4.207   6.041 -2.5711  2.4162  2.5003
   93SAPS   HN2 9079   2.381   4.288   6.167  2.0566  0.1578 -0.9428
   93SAPS   HN3 9080   2.474   4.256   6.033 -0.6228  0.3970  0.4704
   93SAPS   C12 9081   2.442   4.091   6.163 -0.2282  0.7205  0.6325
   93SAPS  H12A 9082   2.360   4.057   6.224  1.6574  0.7799  3.3708
   93SAPS   C13 9083   2.497   3.982   6.068  0.7455 -0.0716 -0.8350
   93SAPS  O13A 9084   2.476   3.989   5.942  0.0462  0.1633 -0.1252
   93SAPS  O13B 9085   2.523   3.875   6.128 -0.0283  0.2167  0.1660
   93SAPS   C11 9086   2.566   4.117   6.268  0.2456 -0.3930  0.1790
   93SAPS  H11A 9087   2.649   4.149   6.201 -0.3122  0.5669 -0.0803
   93SAPS  H11B 9088   2.596   4.023   6.318  0.3437  0.1873  1.2364
   93SAPS     P 9089   2.526   4.211   6.518  0.0891  0.2629 -0.2887
   93SAPS   O13 9090   2.572   4.338   6.580 -0.3822 -0.4137 -0.2150
   93SAPS   O14 9091   2.394   4.151   6.550  0.4334  0.1395 -0.1847
   93SAPS   O12 9092   2.537   4.224   6.362  0.3204 -0.1885  0.3431
   93SAPS   O11 9093   2.625   4.101   6.557 -0.2122  0.1748 -0.4479
   93SAPS    C1 9094   2.606   3.989   6.644  0.5179 -0.1831 -0.0683
   93SAPS    HA 9095   2.529   3.917   6.607 -0.9106  0.4812  1.4672
   93SAPS    HB 9096   2.701   3.932   6.649  1.0922  0.6298 -1.2922
   93SAPS    C2 9097   2.567   4.026   6.794  0.0005  0.2346  0.4445
   93SAPS    HS 9098   2.463   4.062   6.783 -0.0803 -0.1480 -0.0802
   93SAPS   O21 9099   2.652   4.124   6.854 -0.8907  0.1398 -0.0037
   93SAPS   C21 9100   2.595   4.186   6.947  0.0503 -0.6918  0.2607
   93SAPS   O22 9101   2.478   4.189   6.970  0.5721  0.2395  0.1246
   93SAPS   C22 9102   2.705   4.257   7.038  0.4450 -0.7490  0.3146
   93SAPS   H2R 9103   2.728   4.352   6.986  0.3508 -1.9548 -2.0544
   93SAPS   H2S 9104   2.657   4.297   7.130 -2.7137 -0.2110 -1.4189
   93SAPS    C3 9105   2.567   3.893   6.882 -0.5487  0.1602  0.2742
   93SAPS    HX 9106   2.671   3.860   6.900  0.0869  0.6277 -2.1651
   93SAPS    HY 9107   2.522   3.808   6.825  2.2305 -1.4035  0.2477
   93SAPS   O31 9108   2.512   3.917   7.006  0.0764  0.1612 -0.0198
   93SAPS   C31 9109   2.379   3.927   7.006  0.5485 -0.1629 -1.0248
   93SAPS   O32 9110   2.309   3.934   6.906  0.1380  0.1555  0.0892
   93SAPS   C32 9111   2.336   3.919   7.151  0.2888 -0.1717 -0.4181
   93SAPS   H2X 9112   2.227   3.902   7.134  0.0332 -0.0083  0.9605
   93SAPS   H2Y 9113   2.352   4.008   7.215 -3.4247 -0.5971  1.3413
   93SAPS   C23 9114   2.833   4.180   7.090 -0.5878 -0.5760  0.1736
   93SAPS   H3R 9115   2.931   4.230   7.074 -0.4091 -0.4819  1.4088
   93SAPS   H3S 9116   2.840   4.088   7.029  1.8342 -0.6428  0.4486
   93SAPS   C24 9117   2.831   4.154   7.240  0.4948  0.2875  0.2473
   93SAPS   H4R 9118   2.846   4.244   7.303  2.2891 -0.7265  1.3608
   93SAPS   H4S 9119   2.924   4.101   7.272  0.2144  0.9532  2.3221
   93SAPS   C25 9120   2.714   4.067   7.284 -0.0022  0.3179 -0.4337
   93SAPS   H5R 9121   2.684   3.982   7.221 -1.3322  1.0552 -0.8202
   93SAPS   C26 9122   2.640   4.069   7.400  0.1453 -0.2937 -0.5972
   93SAPS   H6R 9123   2.550   4.006   7.410 -1.4854  1.8096 -1.3494
   93SAPS   C27 9124   2.656   4.163   7.516  0.4040 -0.5012  1.0036
   93SAPS   H7R 9125   2.721   4.250   7.495  0.8036 -0.7000  1.4108
   93SAPS   H7S 9126   2.705   4.113   7.602  0.8487  0.7406  1.4960
   93SAPS   C28 9127   2.518   4.208   7.564 -0.3110 -0.7721 -0.6821
   93SAPS   H8R 9128   2.446   4.228   7.483  1.2837  1.6936 -1.6015
   93SAPS   C29 9129   2.489   4.247   7.693  0.7447  0.5264  0.1420
   93SAPS   H9R 9130   2.386   4.284   7.709  0.8150  0.0976  1.7056
   93SAPS  C210 9131   2.585   4.241   7.806  0.0403 -0.1072 -0.3223
   93SAPS  H10R 9132   2.689   4.266   7.777  0.0662  0.2140  0.0365
   93SAPS  H10S 9133   2.594   4.132   7.829 -0.8258 -0.9753 -3.5378
   93SAPS  C211 9134   2.545   4.326   7.923  0.1306 -0.2357  0.5441
   93SAPS  H11R 9135   2.587   4.427   7.927 -2.1974  0.8475 -0.2864
   93SAPS  C212 9136   2.458   4.283   8.019  0.2335 -0.2548 -0.5538
   93SAPS  H12R 9137   2.434   4.343   8.108 -0.7187 -1.0923 -0.2266
   93SAPS  C213 9138   2.391   4.150   8.030  0.8467 -0.1423  0.2996
   93SAPS  H13R 9139   2.432   4.070   7.964 -0.9710 -0.8281 -0.0626
   93SAPS  H13S 9140   2.285   4.157   8.001  0.7530 -0.6789  0.4867
   93SAPS  C214 9141   2.410   4.090   8.164 -0.0353  0.0428  0.2879
   93SAPS  H14R 9142   2.508   4.087   8.215 -0.5850 -1.8457  1.3229
   93SAPS  C215 9143   2.321   4.024   8.233 -0.3283 -0.2408 -0.2654
   93SAPS  H15R 9144   2.330   3.986   8.336  1.0338 -1.1090 -0.6757
   93SAPS  C216 9145   2.184   3.998   8.185  0.4267 -0.4957  0.5650
   93SAPS  H16R 9146   2.183   3.931   8.097  1.0222  2.4598 -1.8575
   93SAPS  H16S 9147   2.128   4.090   8.155 -2.5075 -1.9596  1.2159
   93SAPS  C217 9148   2.075   3.940   8.284  0.2696  0.1897 -0.5604
   93SAPS  H17R 9149   2.122   3.855   8.339 -1.1962 -0.8308 -0.8223
   93SAPS  H17S 9150   1.987   3.905   8.227 -0.2642 -0.1788  0.4764
   93SAPS  C218 9151   2.037   4.041   8.391  0.1914 -0.0386 -0.7779
   93SAPS  H18R 9152   1.969   4.110   8.336 -2.5446 -1.3817  0.6677
   93SAPS  H18S 9153   2.126   4.097   8.426 -0.8756  1.2222  0.0497
   93SAPS  C219 9154   1.950   3.995   8.507  0.1129 -0.0621 -0.3011
   93SAPS  H19R 9155   1.849   3.959   8.477  0.0221  0.0968 -0.1908
   93SAPS  H19S 9156   1.937   4.081   8.576 -0.9394  1.2658 -2.0590
   93SAPS  C220 9157   2.011   3.887   8.601 -0.1859 -0.1969 -0.9004
   93SAPS  H20R 9158   1.947   3.886   8.692  0.2580  1.0097 -0.5539
   93SAPS  H20S 9159   2.116   3.915   8.627 -0.5212  0.7000 -0.5018
   93SAPS  H20T 9160   2.009   3.787   8.552  4.2857 -0.1071 -1.6949
   93SAPS   C33 9161   2.393   3.796   7.223  0.7003 -0.1029  0.7087
   93SAPS   H3X 9162   2.491   3.821   7.269 -0.5329 -0.2035  3.5898
   93SAPS   H3Y 9163   2.415   3.705   7.162  1.0293 -0.9739  2.0774
   93SAPS   C34 9164   2.306   3.748   7.331  0.4411  0.2584 -0.2444
   93SAPS   H4X 9165   2.343   3.646   7.357  0.4040  0.0396 -1.0436
   93SAPS   H4Y 9166   2.204   3.738   7.288  1.2438 -0.6958 -2.0337
   93SAPS   C35 9167   2.321   3.833   7.456 -0.2770 -0.1522 -0.2955
   93SAPS   H5X 9168   2.294   3.940   7.448  1.5133  0.5419  1.8418
   93SAPS   H5Y 9169   2.427   3.838   7.491 -0.2609 -2.0178  0.0265
   93SAPS   C36 9170   2.245   3.775   7.582  0.1145  0.1102  0.2470
   93SAPS   H6X 9171   2.282   3.676   7.618  0.6025 -0.7003 -2.2646
   93SAPS   H6Y 9172   2.142   3.758   7.544 -0.1029  0.7089  0.5616
   93SAPS   C37 9173   2.239   3.871   7.695 -0.0905  0.3755 -0.2198
   93SAPS   H7X 9174   2.202   3.971   7.663 -3.6158 -0.1819  1.5978
   93SAPS   H7Y 9175   2.342   3.869   7.734 -0.5633  0.7505  1.0819
   93SAPS   C38 9176   2.147   3.830   7.813  0.2259 -0.1064  0.7262
   93SAPS   H8X 9177   2.046   3.811   7.771  0.4782 -2.4855  1.0529
   93SAPS   H8Y 9178   2.129   3.916   7.881 -1.3283 -0.8619  1.3154
   93SAPS   C39 9179   2.193   3.713   7.899  0.0899 -0.4037  1.3714
   93SAPS   H9X 9180   2.288   3.741   7.949  0.9764  0.5632 -0.7386
   93SAPS   H9Y 9181   2.218   3.631   7.828 -1.5859  0.8579 -0.7884
   93SAPS  C310 9182   2.088   3.665   8.001 -0.2233 -0.4944 -0.4063
   93SAPS  H10X 9183   2.017   3.606   7.939  1.8881 -0.7607 -2.7327
   93SAPS  H10Y 9184   2.033   3.750   8.046 -1.9448 -1.3050 -0.8774
   93SAPS  C311 9185   2.156   3.579   8.106 -0.6408 -0.3219 -0.6141
   93SAPS  H11X 9186   2.218   3.645   8.170 -0.3678 -1.1917  0.0462
   93SAPS  H11Y 9187   2.231   3.509   8.062  1.3460 -0.9002  3.2521
   93SAPS  C312 9188   2.067   3.494   8.199  0.0015  0.3935 -0.1936
   93SAPS  H12X 9189   1.984   3.554   8.242  0.1931  0.2347  0.4034
   93SAPS  H12Y 9190   2.140   3.461   8.275  1.1566  1.2178 -0.9230
   93SAPS  C313 9191   2.013   3.375   8.129 -0.1916 -0.4548  0.4263
   93SAPS  H13X 9192   2.089   3.298   8.100 -0.2704 -0.3054 -0.2019
   93SAPS  H13Y 9193   1.972   3.395   8.028 -2.3790  1.7917  1.6560
   93SAPS  C314 9194   1.900   3.300   8.199 -0.5545  0.0557  0.2028
   93SAPS  H14X 9195   1.856   3.223   8.131  1.9625 -0.8604 -0.5042
   93SAPS  H14Y 9196   1.820   3.374   8.221 -0.6878  0.2358 -0.8286
   93SAPS  C315 9197   1.957   3.237   8.332 -0.7123  0.9570 -0.5943
   93SAPS  H15X 9198   2.011   3.310   8.396  0.7937 -0.6045 -0.0012
   93SAPS  H15Y 9199   2.029   3.161   8.295 -0.1193  0.0135  2.3038
   93SAPS  C316 9200   1.856   3.158   8.411  0.1565  0.3188 -0.3068
   93SAPS  H16X 9201   1.824   3.073   8.347  1.1362 -1.0928  1.0145
   93SAPS  H16Y 9202   1.766   3.216   8.440 -0.3106 -1.1858  1.3914
   93SAPS  C317 9203   1.922   3.099   8.545 -0.2632  0.0504  0.2978
   93SAPS  H17X 9204   1.980   3.189   8.572  1.8954 -0.9321 -0.8394
   93SAPS  H17Y 9205   1.995   3.021   8.516 -1.5825 -0.4455 -1.9995
   93SAPS  C318 9206   1.822   3.066   8.652  0.4553 -0.0628  0.2935
   93SAPS  H18X 9207   1.757   2.980   8.626  0.3732 -0.1171  0.6723
   93SAPS  H18Y 9208   1.751   3.151   8.667 -1.8011 -1.1983 -2.9590
   93SAPS  H18Z 9209   1.877   3.056   8.748 -0.9119  2.0762  1.3999
   94SAPS     N 9210   2.187   5.622   6.245  0.1734 -0.2321  0.5426
   94SAPS   HN1 9211   2.126   5.558   6.300 -1.5792  0.9064  0.0198
   94SAPS   HN2 9212   2.289   5.610   6.262  0.2419  1.4452  1.6771
   94SAPS   HN3 9213   2.171   5.719   6.281  1.1134 -0.0411  0.4678
   94SAPS   C12 9214   2.159   5.612   6.106 -0.0363  0.8746 -0.1382
   94SAPS  H12A 9215   2.204   5.521   6.071  0.8398  0.3417  2.1838
   94SAPS   C13 9216   2.013   5.607   6.062  0.3601  0.1263 -0.5314
   94SAPS  O13A 9217   1.918   5.611   6.144  0.5704 -0.9517  0.0721
   94SAPS  O13B 9218   1.990   5.585   5.940  0.1218 -0.5120 -0.4718
   94SAPS   C11 9219   2.229   5.738   6.037  0.7132  1.1103  0.2294
   94SAPS  H11A 9220   2.172   5.831   6.057  1.0052  1.6923 -1.5141
   94SAPS  H11B 9221   2.231   5.720   5.928 -0.8031  0.6566  0.2625
   94SAPS     P 9222   2.448   5.875   6.020 -0.3419  0.5650 -0.1004
   94SAPS   O13 9223   2.574   5.826   5.952  0.5929  1.0805 -0.2088
   94SAPS   O14 9224   2.359   5.959   5.938 -0.0694  0.2176  0.1677
   94SAPS   O12 9225   2.367   5.752   6.074 -0.5380 -0.1752  0.4812
   94SAPS   O11 9226   2.488   5.947   6.150  0.0577  0.3006 -0.1367
   94SAPS    C1 9227   2.508   5.895   6.280 -0.5589 -0.2479 -0.0157
   94SAPS    HA 9228   2.414   5.899   6.339  0.0913 -0.7891  1.0910
   94SAPS    HB 9229   2.533   5.787   6.289 -1.5073 -0.4489  0.2597
   94SAPS    C2 9230   2.622   5.972   6.370  0.8189 -1.2479  0.0829
   94SAPS    HS 9231   2.649   5.904   6.453  3.0214  0.7693  1.1542
   94SAPS   O21 9232   2.565   6.087   6.428 -0.5172  0.1025 -0.3025
   94SAPS   C21 9233   2.515   6.067   6.547  0.0293  0.9034 -1.1704
   94SAPS   O22 9234   2.518   5.964   6.617 -0.3217  1.2052 -0.3189
   94SAPS   C22 9235   2.444   6.198   6.600  0.6557  0.4427 -0.1607
   94SAPS   H2R 9236   2.524   6.274   6.589  1.6340 -0.5240  0.1005
   94SAPS   H2S 9237   2.353   6.210   6.538  0.9853  0.3113 -0.6780
   94SAPS    C3 9238   2.749   6.010   6.295  0.2109 -0.4420  0.0011
   94SAPS    HX 9239   2.714   6.068   6.206  0.2464 -1.5018 -0.7284
   94SAPS    HY 9240   2.785   5.914   6.251 -0.3339 -0.7348  0.1861
   94SAPS   O31 9241   2.843   6.077   6.388 -0.7990  0.0675  0.7814
   94SAPS   C31 9242   2.903   5.994   6.474  0.3325  0.2094  0.5905
   94SAPS   O32 9243   2.877   5.874   6.489 -0.0028  0.1150 -0.0397
   94SAPS   C32 9244   3.005   6.077   6.556 -0.0119  0.1605 -0.2524
   94SAPS   H2X 9245   3.057   6.146   6.487 -1.6145 -0.2972 -2.0211
   94SAPS   H2Y 9246   3.076   6.000   6.593 -1.3411 -1.4151 -0.8192
   94SAPS   C23 9247   2.408   6.177   6.743  0.7998 -0.6277 -0.7162
   94SAPS   H3R 9248   2.485   6.111   6.788 -0.9473 -0.5614  2.7490
   94SAPS   H3S 9249   2.313   6.121   6.755  0.8282 -0.1897  2.3565
   94SAPS   C24 9250   2.425   6.301   6.821  0.8506 -0.3354  0.5151
   94SAPS   H4R 9251   2.364   6.381   6.775 -0.4688 -0.7516  1.4811
   94SAPS   H4S 9252   2.533   6.324   6.810  0.8999 -1.5132 -2.4555
   94SAPS   C25 9253   2.392   6.292   6.967  1.1682  0.4130 -0.1902
   94SAPS   H5R 9254   2.442   6.213   7.024  0.7005  1.2595  1.4393
   94SAPS   C26 9255   2.304   6.361   7.036 -0.5542 -0.4276 -1.0450
   94SAPS   H6R 9256   2.306   6.342   7.144  1.2611  3.8158 -0.1274
   94SAPS   C27 9257   2.219   6.474   6.983  0.0101  0.1573 -0.2720
   94SAPS   H7R 9258   2.112   6.460   7.011  0.3741  0.5720  1.4676
   94SAPS   H7S 9259   2.222   6.471   6.872  1.0060 -0.4913 -0.2427
   94SAPS   C28 9260   2.254   6.616   7.029  0.1870 -0.0511 -0.0597
   94SAPS   H8R 9261   2.310   6.672   6.953  0.1686 -1.7097 -1.3426
   94SAPS   C29 9262   2.233   6.669   7.153  0.5868 -0.6648  0.5331
   94SAPS   H9R 9263   2.250   6.776   7.170 -2.4243 -0.4354  3.0434
   94SAPS  C210 9264   2.171   6.603   7.273  1.1940 -0.2885  0.3609
   94SAPS  H10R 9265   2.189   6.493   7.269  0.0821 -0.4559 -1.6442
   94SAPS  H10S 9266   2.063   6.628   7.265  0.7729 -0.7188  3.4807
   94SAPS  C211 9267   2.223   6.664   7.397  0.2585  0.1765  0.6018
   94SAPS  H11R 9268   2.185   6.764   7.421 -0.6175 -0.1227  0.5174
   94SAPS  C212 9269   2.284   6.590   7.491 -0.7428 -0.1040 -0.4278
   94SAPS  H12R 9270   2.303   6.636   7.589  1.7058 -2.8205  0.5262
   94SAPS  C213 9271   2.327   6.447   7.490  0.2743 -0.4921  0.6321
   94SAPS  H13R 9272   2.436   6.440   7.511  0.3157 -0.0243  0.5825
   94SAPS  H13S 9273   2.325   6.401   7.389  2.4562  1.9406 -0.6592
   94SAPS  C214 9274   2.247   6.357   7.575 -0.5258  0.8034 -0.5303
   94SAPS  H14R 9275   2.161   6.320   7.519  0.3828 -0.1858 -1.3175
   94SAPS  C215 9276   2.264   6.326   7.704 -0.5250 -0.4708 -1.4367
   94SAPS  H15R 9277   2.183   6.277   7.759  0.4732  0.8736  1.4366
   94SAPS  C216 9278   2.373   6.393   7.796  0.0793 -0.2858 -0.5556
   94SAPS  H16R 9279   2.433   6.472   7.746  3.2919 -1.8847  0.5109
   94SAPS  H16S 9280   2.452   6.316   7.807  2.2646  2.0041  0.5290
   94SAPS  C217 9281   2.337   6.457   7.935  0.6496  0.3595  0.2728
   94SAPS  H17R 9282   2.280   6.381   7.991  0.8421 -1.0598 -1.3945
   94SAPS  H17S 9283   2.274   6.546   7.914  0.0252 -0.1001  0.1794
   94SAPS  C218 9284   2.458   6.511   8.009 -0.0192  0.1475 -0.9684
   94SAPS  H18R 9285   2.503   6.590   7.944 -0.7034  0.1213 -1.4872
   94SAPS  H18S 9286   2.530   6.429   8.028 -1.6183 -0.4511  3.5899
   94SAPS  C219 9287   2.423   6.575   8.146  0.5206  0.0023  0.2328
   94SAPS  H19R 9288   2.335   6.638   8.119  0.2063 -0.4261  0.2515
   94SAPS  H19S 9289   2.503   6.650   8.167 -0.4039  0.8937  0.6462
   94SAPS  C220 9290   2.397   6.479   8.270  0.1905 -0.3625 -0.1258
   94SAPS  H20R 9291   2.337   6.529   8.349  0.1831  2.4558 -1.7792
   94SAPS  H20S 9292   2.496   6.444   8.308 -0.3801 -0.4864  1.2938
   94SAPS  H20T 9293   2.329   6.396   8.243 -2.0780  1.4624 -0.2653
   94SAPS   C33 9294   2.941   6.140   6.678  0.9479 -0.5955 -0.6412
   94SAPS   H3X 9295   2.836   6.169   6.655  0.1159 -0.7186  2.5029
   94SAPS   H3Y 9296   3.002   6.227   6.713 -1.8878  0.4548  2.2819
   94SAPS   C34 9297   2.936   6.056   6.806 -0.1185  0.2538 -0.4845
   94SAPS   H4X 9298   3.038   6.018   6.828 -0.1499  0.9905  1.0328
   94SAPS   H4Y 9299   2.866   5.971   6.789  0.2852 -0.0404 -0.6941
   94SAPS   C35 9300   2.886   6.136   6.925 -0.2082 -0.2016  0.6164
   94SAPS   H5X 9301   2.785   6.174   6.898  0.8687  0.7050 -2.5215
   94SAPS   H5Y 9302   2.953   6.222   6.947 -1.5810  1.2705 -0.6996
   94SAPS   C36 9303   2.877   6.056   7.056  0.0634 -0.1612 -0.2157
   94SAPS   H6X 9304   2.977   6.012   7.072 -0.1328 -0.2696  0.7871
   94SAPS   H6Y 9305   2.804   5.976   7.034  1.2138 -1.2794 -0.0396
   94SAPS   C37 9306   2.832   6.139   7.183  0.4198  0.5995  0.3029
   94SAPS   H7X 9307   2.736   6.194   7.170 -0.4186 -0.5557  1.3437
   94SAPS   H7Y 9308   2.910   6.215   7.207 -0.1436  0.1562  4.1665
   94SAPS   C38 9309   2.817   6.040   7.304  0.2451  0.3773 -0.3971
   94SAPS   H8X 9310   2.910   5.983   7.324 -0.7050 -2.1814 -2.7312
   94SAPS   H8Y 9311   2.737   5.967   7.283  0.4865  0.3344 -1.2029
   94SAPS   C39 9312   2.788   6.128   7.425  0.3798  0.7808  0.2858
   94SAPS   H9X 9313   2.697   6.181   7.390  0.2653  0.5192  0.1874
   94SAPS   H9Y 9314   2.856   6.208   7.463 -0.5916  2.2671 -0.9477
   94SAPS  C310 9315   2.761   6.040   7.555  0.5900 -0.1430  0.7811
   94SAPS  H10X 9316   2.858   5.991   7.580 -0.1559 -3.0764 -1.5253
   94SAPS  H10Y 9317   2.688   5.961   7.529 -0.3767  0.9732 -0.0196
   94SAPS  C311 9318   2.697   6.126   7.657  0.9090 -0.5131 -0.2874
   94SAPS  H11X 9319   2.639   6.055   7.719  1.0557 -1.2708 -0.9933
   94SAPS  H11Y 9320   2.623   6.201   7.620 -0.6633 -2.1037 -0.5179
   94SAPS  C312 9321   2.793   6.204   7.747 -0.5022 -0.0697 -0.7813
   94SAPS  H12X 9322   2.843   6.288   7.695  0.8007  1.3448  2.5091
   94SAPS  H12Y 9323   2.872   6.132   7.778 -0.5776 -0.3886 -1.3152
   94SAPS  C313 9324   2.714   6.274   7.863  0.1613  0.5810  0.0237
   94SAPS  H13X 9325   2.644   6.195   7.898  1.0236  0.4139  1.4633
   94SAPS  H13Y 9326   2.663   6.364   7.822  1.9795  0.9391 -1.6188
   94SAPS  C314 9327   2.804   6.304   7.982  0.1009 -0.2484 -0.8702
   94SAPS  H14X 9328   2.768   6.384   8.049  1.5061 -2.0645  2.3061
   94SAPS  H14Y 9329   2.899   6.348   7.946  1.2114  0.9576  2.9818
   94SAPS  C315 9330   2.848   6.187   8.071 -0.4843  0.1192  0.0533
   94SAPS  H15X 9331   2.893   6.100   8.018  1.5545  0.7375  0.6601
   94SAPS  H15Y 9332   2.759   6.159   8.131 -0.0467 -0.0560  0.6283
   94SAPS  C316 9333   2.962   6.242   8.166 -1.0416 -0.3854 -0.2491
   94SAPS  H16X 9334   2.935   6.330   8.229  1.4700  0.0486  0.3136
   94SAPS  H16Y 9335   3.054   6.270   8.111 -0.4660  0.6394  1.1618
   94SAPS  C317 9336   3.014   6.143   8.272  0.2017  0.1256  0.6847
   94SAPS  H17X 9337   3.093   6.199   8.325  0.9211  1.3505 -1.5257
   94SAPS  H17Y 9338   3.058   6.052   8.225  0.1675  1.3706 -1.9267
   94SAPS  C318 9339   2.906   6.100   8.374  0.1137  0.3236  0.1759
   94SAPS  H18X 9340   2.822   6.054   8.318  1.5707 -1.8613 -0.3323
   94SAPS  H18Y 9341   2.877   6.195   8.424  1.4051  0.2611  1.1119
   94SAPS  H18Z 9342   2.949   6.026   8.445  1.0483 -0.2257 -0.9222
   95SAPS     N 9343   0.182   3.580   6.129 -0.0023 -0.2219  0.0701
   95SAPS   HN1 9344   0.196   3.676   6.165  0.6890 -0.3544  0.1685
   95SAPS   HN2 9345   0.217   3.577   6.031 -1.3278 -1.9529 -0.4109
   95SAPS   HN3 9346   0.078   3.567   6.127 -0.1009  0.5321  0.0632
   95SAPS   C12 9347   0.236   3.472   6.216 -0.5316 -0.0923 -0.5844
   95SAPS  H12A 9348   0.217   3.378   6.166 -0.7940  0.2659 -1.1785
   95SAPS   C13 9349   0.385   3.482   6.244  0.5435 -0.7431  0.0455
   95SAPS  O13A 9350   0.453   3.572   6.185 -0.2069 -0.1110  0.1357
   95SAPS  O13B 9351   0.442   3.414   6.333 -1.0123 -0.4725  0.1647
   95SAPS   C11 9352   0.172   3.474   6.355  0.3166  0.1644 -0.3813
   95SAPS  H11A 9353   0.183   3.571   6.407 -1.5881 -0.7959  1.9972
   95SAPS  H11B 9354   0.213   3.413   6.438 -0.1275 -0.3625 -0.5451
   95SAPS     P 9355  -0.037   3.312   6.364 -0.4144  0.5549  0.5681
   95SAPS   O13 9356  -0.181   3.330   6.343  0.5717  0.0034  0.1066
   95SAPS   O14 9357   0.033   3.207   6.285  0.4058 -0.0883 -0.0477
   95SAPS   O12 9358   0.031   3.449   6.334 -0.0846  0.4201 -0.3550
   95SAPS   O11 9359  -0.014   3.290   6.520 -0.5539  0.6026  0.1831
   95SAPS    C1 9360  -0.006   3.387   6.622 -0.1951 -0.1222 -0.1727
   95SAPS    HA 9361   0.099   3.397   6.657  0.4408 -0.0977 -1.9797
   95SAPS    HB 9362  -0.040   3.489   6.592  0.0264  0.3415  1.0827
   95SAPS    C2 9363  -0.092   3.347   6.745  0.8527 -0.4436  0.4439
   95SAPS    HS 9364  -0.098   3.427   6.823 -1.4863 -0.8421  0.7529
   95SAPS   O21 9365  -0.050   3.226   6.806 -0.1453 -0.0618  0.4728
   95SAPS   C21 9366   0.046   3.247   6.894  0.4391 -0.7293  0.2969
   95SAPS   O22 9367   0.110   3.350   6.913 -0.2648 -0.1624 -0.3245
   95SAPS   C22 9368   0.053   3.118   6.974  0.4403 -0.2562 -0.6070
   95SAPS   H2R 9369  -0.041   3.101   7.030  1.1421 -0.2116  0.6270
   95SAPS   H2S 9370   0.054   3.033   6.903  0.2073 -0.2794 -0.5841
   95SAPS    C3 9371  -0.237   3.339   6.678 -0.4151  0.1168  0.2191
   95SAPS    HX 9372  -0.234   3.260   6.600  1.7814 -1.3594  1.6669
   95SAPS    HY 9373  -0.257   3.432   6.620  0.9142 -0.0122 -0.4761
   95SAPS   O31 9374  -0.353   3.311   6.762  0.7552 -0.2937 -0.2458
   95SAPS   C31 9375  -0.351   3.179   6.796  0.0616  0.0020  0.4575
   95SAPS   O32 9376  -0.276   3.096   6.749  0.2197 -0.2294 -0.2849
   95SAPS   C32 9377  -0.462   3.141   6.887 -0.1790 -1.0168 -0.4936
   95SAPS   H2X 9378  -0.500   3.041   6.858  2.3639 -1.6317 -1.9920
   95SAPS   H2Y 9379  -0.549   3.208   6.865  0.6402  0.7772  1.3398
   95SAPS   C23 9380   0.165   3.114   7.083  0.4566 -0.4777 -1.4498
   95SAPS   H3R 9381   0.151   3.181   7.171  1.0959 -1.7681 -0.3188
   95SAPS   H3S 9382   0.254   3.149   7.027  0.1056  2.7633 -0.1981
   95SAPS   C24 9383   0.200   2.972   7.143 -0.0802  0.2662  0.3511
   95SAPS   H4R 9384   0.223   2.893   7.068  0.6500 -0.8047  1.6628
   95SAPS   H4S 9385   0.112   2.954   7.208 -1.0373  2.1804 -0.3503
   95SAPS   C25 9386   0.315   2.981   7.233  0.0549 -1.0623 -1.0154
   95SAPS   H5R 9387   0.403   3.030   7.188 -0.0141  0.9688  0.8678
   95SAPS   C26 9388   0.323   2.950   7.368  0.1919  0.2936 -0.5549
   95SAPS   H6R 9389   0.420   2.965   7.417  1.1743 -1.9046 -1.6586
   95SAPS   C27 9390   0.216   2.890   7.461 -0.0679 -0.5956  0.0274
   95SAPS   H7R 9391   0.131   2.960   7.472 -1.2147 -1.7235 -1.3231
   95SAPS   H7S 9392   0.280   2.884   7.552  0.5154 -0.4463 -0.3623
   95SAPS   C28 9393   0.167   2.758   7.420  0.5400  0.3292 -0.8501
   95SAPS   H8R 9394   0.124   2.742   7.320 -1.0032  0.9316 -0.3181
   95SAPS   C29 9395   0.137   2.667   7.516  0.5518 -0.1229  0.2557
   95SAPS   H9R 9396   0.095   2.570   7.484  0.1430  0.0200  0.3631
   95SAPS  C210 9397   0.174   2.683   7.667  0.5041  0.3134  0.7096
   95SAPS  H10R 9398   0.154   2.787   7.700 -1.4481 -0.1923  1.2405
   95SAPS  H10S 9399   0.281   2.663   7.686  0.4259  0.1721  1.0086
   95SAPS  C211 9400   0.086   2.592   7.755  0.6098 -0.3509  0.6133
   95SAPS  H11R 9401   0.003   2.545   7.701 -0.1286  2.0165 -0.4255
   95SAPS  C212 9402   0.094   2.574   7.884  0.2676 -0.6075 -0.4811
   95SAPS  H12R 9403   0.014   2.515   7.932 -2.0581  1.2471 -1.8714
   95SAPS  C213 9404   0.192   2.640   7.975  0.0306  0.0653  0.2105
   95SAPS  H13R 9405   0.154   2.737   8.013  1.9071  1.1112 -0.4293
   95SAPS  H13S 9406   0.281   2.670   7.915 -1.2302  0.1845 -1.7070
   95SAPS  C214 9407   0.231   2.571   8.103 -0.2602 -0.1323  0.1214
   95SAPS  H14R 9408   0.323   2.511   8.094  2.1771  3.3785 -0.3226
   95SAPS  C215 9409   0.161   2.582   8.222 -0.0770 -0.0397  0.6976
   95SAPS  H15R 9410   0.185   2.500   8.291 -1.5261 -0.8750  0.2584
   95SAPS  C216 9411   0.039   2.665   8.253 -0.6984 -0.6103  0.4654
   95SAPS  H16R 9412  -0.020   2.616   8.334 -0.3742  0.9741  1.7218
   95SAPS  H16S 9413  -0.023   2.654   8.162 -0.4368 -0.1652  0.2313
   95SAPS  C217 9414   0.067   2.810   8.288  0.0122  0.1912 -0.1983
   95SAPS  H17R 9415   0.020   2.882   8.217  1.8761 -0.6246 -2.4165
   95SAPS  H17S 9416   0.173   2.837   8.271  0.2491 -0.6314 -0.0237
   95SAPS  C218 9417   0.026   2.832   8.433  0.3047  0.2019 -0.0453
   95SAPS  H18R 9418   0.083   2.765   8.501  0.3667 -0.2887 -0.5718
   95SAPS  H18S 9419  -0.080   2.805   8.455  0.7718 -1.9124 -0.1851
   95SAPS  C219 9420   0.051   2.974   8.467 -0.1780 -0.3100 -0.4393
   95SAPS  H19R 9421   0.003   3.025   8.380 -0.9705  0.9717  0.7087
   95SAPS  H19S 9422   0.158   3.004   8.466  0.7499 -3.2668 -0.2097
   95SAPS  C220 9423  -0.016   3.012   8.596  0.6017  0.2930  1.2008
   95SAPS  H20R 9424  -0.001   3.121   8.612 -1.4961  0.5952  1.4441
   95SAPS  H20S 9425   0.029   2.947   8.674  0.3606 -3.0833 -1.2475
   95SAPS  H20T 9426  -0.123   2.983   8.594  0.3759  1.1093  0.8149
   95SAPS   C33 9427  -0.420   3.145   7.036  0.2278  0.0111 -0.4810
   95SAPS   H3X 9428  -0.380   3.246   7.059  0.8637  0.2160 -2.3076
   95SAPS   H3Y 9429  -0.341   3.068   7.051  0.8017  0.8615  1.0234
   95SAPS   C34 9430  -0.534   3.124   7.134  0.7284 -0.0989  0.5262
   95SAPS   H4X 9431  -0.579   3.023   7.128 -2.5332  1.1108  1.9617
   95SAPS   H4Y 9432  -0.619   3.193   7.111  1.0663 -0.2048 -1.1063
   95SAPS   C35 9433  -0.491   3.147   7.272 -0.6292  0.8443  0.4752
   95SAPS   H5X 9434  -0.467   3.250   7.306 -0.4233  0.2955  2.0636
   95SAPS   H5Y 9435  -0.401   3.084   7.287  0.4264  1.7159 -1.6489
   95SAPS   C36 9436  -0.582   3.101   7.391 -0.0433 -0.1367  1.0495
   95SAPS   H6X 9437  -0.630   3.004   7.365  0.5889 -0.7219  2.0308
   95SAPS   H6Y 9438  -0.660   3.180   7.394  1.2264  1.1382  1.5505
   95SAPS   C37 9439  -0.536   3.102   7.540 -0.0390 -0.3563 -0.0645
   95SAPS   H7X 9440  -0.482   3.198   7.554  0.6509 -0.4752 -1.6809
   95SAPS   H7Y 9441  -0.463   3.019   7.542  1.8051  1.1883  0.9635
   95SAPS   C38 9442  -0.637   3.073   7.645 -0.6768  0.1286  0.5084
   95SAPS   H8X 9443  -0.698   2.988   7.606 -0.1156 -1.6005  3.1139
   95SAPS   H8Y 9444  -0.698   3.165   7.653 -2.4276 -1.0205  1.0647
   95SAPS   C39 9445  -0.580   3.052   7.788  0.1631 -0.2019  0.2866
   95SAPS   H9X 9446  -0.491   3.114   7.811  0.9777 -1.1531 -0.2494
   95SAPS   H9Y 9447  -0.522   2.958   7.791  1.2236  0.4238  0.0533
   95SAPS  C310 9448  -0.691   3.058   7.899 -0.5238  0.0977 -0.0612
   95SAPS  H10X 9449  -0.749   3.152   7.889 -1.8221 -0.8147 -1.5511
   95SAPS  H10Y 9450  -0.636   3.045   7.995 -0.1196 -1.4564 -0.4715
   95SAPS  C311 9451  -0.792   2.943   7.894  0.9442  0.7847 -0.0359
   95SAPS  H11X 9452  -0.750   2.846   7.927 -1.7275 -0.5561 -0.3447
   95SAPS  H11Y 9453  -0.840   2.936   7.795  1.8742 -1.2958 -0.3990
   95SAPS  C312 9454  -0.903   2.955   8.006  0.0203 -0.0805 -0.2266
   95SAPS  H12X 9455  -0.956   3.052   7.989 -0.4523 -0.4627 -1.0244
   95SAPS  H12Y 9456  -0.852   2.951   8.104 -0.7987  0.7453  0.2466
   95SAPS  C313 9457  -1.007   2.850   7.993 -0.8693 -0.6702 -0.6025
   95SAPS  H13X 9458  -0.965   2.749   8.016  2.4018  1.3387  3.4165
   95SAPS  H13Y 9459  -1.051   2.855   7.891 -0.7763  0.4205 -0.5983
   95SAPS  C314 9460  -1.128   2.882   8.085 -0.1270  0.3382  0.0092
   95SAPS  H14X 9461  -1.195   2.794   8.089  1.1857 -0.7290  4.5536
   95SAPS  H14Y 9462  -1.176   2.968   8.034  2.3121  2.2227  0.6694
   95SAPS  C315 9463  -1.097   2.925   8.230  0.7779 -0.3882  0.4259
   95SAPS  H15X 9464  -1.189   2.953   8.286  0.1013  0.1039 -0.8911
   95SAPS  H15Y 9465  -1.037   3.018   8.222  0.6127 -0.4324 -1.8392
   95SAPS  C316 9466  -1.035   2.820   8.319 -0.5941 -0.2406 -0.1626
   95SAPS  H16X 9467  -0.993   2.864   8.412  2.3343 -1.1136 -0.9761
   95SAPS  H16Y 9468  -0.944   2.780   8.270  0.3736  0.6653  0.8533
   95SAPS  C317 9469  -1.127   2.705   8.356 -0.2339  1.1520 -0.9105
   95SAPS  H17X 9470  -1.150   2.643   8.267  0.3321 -1.1138  0.4503
   95SAPS  H17Y 9471  -1.228   2.737   8.391 -0.1028 -0.8673  1.6123
   95SAPS  C318 9472  -1.073   2.618   8.470  0.1507 -0.0290 -0.2768
   95SAPS  H18X 9473  -1.073   2.676   8.565 -0.4321  3.6140 -2.2896
   95SAPS  H18Y 9474  -0.973   2.579   8.442  0.5074  0.4030  0.3655
   95SAPS  H18Z 9475  -1.150   2.539   8.485  0.2108 -0.2131 -0.8914
   96SAPS     N 9476   0.125   5.007   6.419 -0.0045 -0.0828  0.3080
   96SAPS   HN1 9477   0.138   4.914   6.373 -1.1987 -1.2715  2.2358
   96SAPS   HN2 9478   0.217   5.043   6.452 -0.4731  1.7534 -0.2641
   96SAPS   HN3 9479   0.067   4.981   6.501 -0.0007 -2.0676 -0.2740
   96SAPS   C12 9480   0.064   5.093   6.317 -0.7848 -0.4093  0.3744
   96SAPS  H12A 9481   0.138   5.098   6.239 -1.1313  1.2666  0.1176
   96SAPS   C13 9482  -0.068   5.037   6.263  0.8875 -0.3652 -0.0069
   96SAPS  O13A 9483  -0.119   4.932   6.314 -0.4046  0.3290 -0.2934
   96SAPS  O13B 9484  -0.110   5.085   6.154  0.1240 -0.5105 -0.1647
   96SAPS   C11 9485   0.037   5.232   6.369 -0.5295  0.2878 -0.2302
   96SAPS  H11A 9486  -0.045   5.229   6.443 -0.4914 -0.2150 -0.2059
   96SAPS  H11B 9487  -0.016   5.290   6.290 -2.2490 -0.6750  0.1732
   96SAPS     P 9488   0.231   5.415   6.347 -0.1702  0.8078  0.3822
   96SAPS   O13 9489   0.366   5.376   6.294 -0.4768 -0.0260 -0.4225
   96SAPS   O14 9490   0.130   5.490   6.262  0.2333 -0.4552 -0.1359
   96SAPS   O12 9491   0.154   5.293   6.419  0.0234 -0.3451  0.0747
   96SAPS   O11 9492   0.261   5.498   6.481  0.0140  0.0402 -1.1752
   96SAPS    C1 9493   0.151   5.577   6.528  0.2384  0.3719  0.1096
   96SAPS    HA 9494   0.159   5.680   6.490  0.6231  0.1838 -0.3284
   96SAPS    HB 9495   0.052   5.539   6.496  0.4537  1.5520 -2.1465
   96SAPS    C2 9496   0.147   5.567   6.686 -0.6438 -0.0159  0.2752
   96SAPS    HS 9497   0.245   5.599   6.728 -0.1868 -1.3390  0.2762
   96SAPS   O21 9498   0.106   5.430   6.712  0.1687  0.9046  0.2264
   96SAPS   C21 9499   0.206   5.345   6.735  0.0020 -0.3462  0.3689
   96SAPS   O22 9500   0.325   5.374   6.748 -0.1786 -0.2761 -0.2199
   96SAPS   C22 9501   0.162   5.201   6.748 -0.1908  0.3116 -0.6926
   96SAPS   H2R 9502   0.051   5.206   6.749 -0.2606 -0.1134  2.4435
   96SAPS   H2S 9503   0.197   5.146   6.657  0.0843  0.9689 -0.9915
   96SAPS    C3 9504   0.044   5.669   6.740 -0.7252  0.8986 -0.0154
   96SAPS    HX 9505  -0.051   5.615   6.722 -0.1453 -1.1288  2.4673
   96SAPS    HY 9506   0.044   5.769   6.690 -0.6990  0.0828 -1.7188
   96SAPS   O31 9507   0.045   5.685   6.883 -0.2071 -0.0679  0.0993
   96SAPS   C31 9508   0.147   5.759   6.918  0.8913  0.3735 -0.1147
   96SAPS   O32 9509   0.247   5.793   6.853  0.3438  0.2449 -0.2484
   96SAPS   C32 9510   0.140   5.793   7.074  0.5279  0.3121  0.2132
   96SAPS   H2X 9511   0.036   5.771   7.107 -0.0543 -0.0752 -1.7681
   96SAPS   H2Y 9512   0.165   5.900   7.091  1.9550  0.0376 -0.0123
   96SAPS   C23 9513   0.207   5.132   6.882 -0.2415  0.2931 -0.6133
   96SAPS   H3R 9514   0.302   5.177   6.918 -0.7716  2.8425 -2.1417
   96SAPS   H3S 9515   0.203   5.021   6.869  0.1563  0.1850  0.1414
   96SAPS   C24 9516   0.105   5.154   6.999  0.0638  0.1642 -0.5096
   96SAPS   H4R 9517   0.135   5.087   7.082 -2.3690  1.0877  1.2449
   96SAPS   H4S 9518   0.017   5.105   6.951 -0.7827 -1.5845  2.5644
   96SAPS   C25 9519   0.073   5.297   7.051  0.0493  0.0425 -0.3243
   96SAPS   H5R 9520   0.041   5.370   6.975 -2.3980 -0.1503  0.4245
   96SAPS   C26 9521   0.067   5.327   7.182  0.4872  0.1247  0.6288
   96SAPS   H6R 9522   0.044   5.433   7.200  2.3018  0.5655  0.5838
   96SAPS   C27 9523   0.100   5.239   7.301 -0.3419 -0.4625 -0.3924
   96SAPS   H7R 9524   0.024   5.161   7.323 -1.7580  1.5280  2.4357
   96SAPS   H7S 9525   0.094   5.306   7.390  2.9020 -0.2252 -0.2484
   96SAPS   C28 9526   0.240   5.169   7.309 -0.3187  0.0550  0.8637
   96SAPS   H8R 9527   0.300   5.169   7.217 -1.9487 -0.6802 -0.2477
   96SAPS   C29 9528   0.284   5.102   7.416  0.2231 -0.2686  0.0482
   96SAPS   H9R 9529   0.383   5.055   7.406 -0.4969 -1.9102  0.3810
   96SAPS  C210 9530   0.216   5.085   7.551 -0.8203 -0.1290  0.2257
   96SAPS  H10R 9531   0.153   4.993   7.547  0.2707 -0.8939  0.2598
   96SAPS  H10S 9532   0.152   5.168   7.587  0.0430  0.6577 -0.0328
   96SAPS  C211 9533   0.321   5.060   7.659  0.3603 -0.2363  0.3313
   96SAPS  H11R 9534   0.342   4.952   7.648 -1.7015 -0.6461 -0.0317
   96SAPS  C212 9535   0.368   5.136   7.760  0.1323 -0.3107  0.4529
   96SAPS  H12R 9536   0.440   5.090   7.830 -1.9224  0.9922  3.6228
   96SAPS  C213 9537   0.322   5.276   7.797 -0.3439 -0.3376 -0.3209
   96SAPS  H13R 9538   0.245   5.273   7.877  0.9127 -1.4574  0.8918
   96SAPS  H13S 9539   0.274   5.314   7.704 -1.1355  1.1519  0.6584
   96SAPS  C214 9540   0.430   5.371   7.841 -0.5152  0.0366 -0.1881
   96SAPS  H14R 9541   0.530   5.355   7.798 -0.2712  0.1881  0.3113
   96SAPS  C215 9542   0.438   5.443   7.953  0.2233 -0.0089 -0.5416
   96SAPS  H15R 9543   0.520   5.516   7.961 -0.8270  1.1172  0.3675
   96SAPS  C216 9544   0.345   5.465   8.076 -0.3565 -1.0281 -0.5995
   96SAPS  H16R 9545   0.242   5.444   8.040 -0.4087  0.6793 -1.5488
   96SAPS  H16S 9546   0.340   5.574   8.095 -2.2194 -1.1716 -0.0974
   96SAPS  C217 9547   0.383   5.388   8.207 -0.5571  0.3742 -0.3738
   96SAPS  H17R 9548   0.328   5.431   8.293  1.3031 -1.6239  1.9465
   96SAPS  H17S 9549   0.487   5.421   8.229 -1.0848  0.9508  1.3952
   96SAPS  C218 9550   0.369   5.236   8.200  0.0171 -0.7951 -0.8118
   96SAPS  H18R 9551   0.456   5.194   8.145 -0.6316  0.5539 -2.9983
   96SAPS  H18S 9552   0.277   5.212   8.142 -0.3625  0.5789 -0.8126
   96SAPS  C219 9553   0.366   5.170   8.341 -0.0930  1.2882 -0.0015
   96SAPS  H19R 9554   0.273   5.212   8.386 -2.3756 -0.7512 -2.4503
   96SAPS  H19S 9555   0.462   5.187   8.393  0.4041  1.5230 -0.9816
   96SAPS  C220 9556   0.356   5.017   8.341  0.8231 -0.3557 -0.0553
   96SAPS  H20R 9557   0.379   4.979   8.443 -0.7367 -2.9284 -0.5962
   96SAPS  H20S 9558   0.437   4.972   8.280  1.4418 -0.4298  0.8016
   96SAPS  H20T 9559   0.251   4.989   8.319 -1.9876  5.0508  4.0603
   96SAPS   C33 9560   0.243   5.702   7.143 -0.0727  0.0480 -0.0747
   96SAPS   H3X 9561   0.348   5.733   7.124 -0.3884  0.9319 -0.4333
   96SAPS   H3Y 9562   0.247   5.607   7.087 -0.1685 -0.8985  1.4698
   96SAPS   C34 9563   0.225   5.682   7.294 -0.6786 -0.7714  0.3220
   96SAPS   H4X 9564   0.142   5.609   7.309 -2.6044  1.4386  1.1445
   96SAPS   H4Y 9565   0.208   5.783   7.337 -0.0040 -0.6266  0.2560
   96SAPS   C35 9566   0.343   5.625   7.370  0.4636 -0.2931  0.3433
   96SAPS   H5X 9567   0.328   5.610   7.479  1.2825 -3.4260  0.1062
   96SAPS   H5Y 9568   0.424   5.699   7.350  1.0623 -0.1589  2.9449
   96SAPS   C36 9569   0.385   5.484   7.318 -0.5783  0.1817  0.0214
   96SAPS   H6X 9570   0.367   5.471   7.209  0.9216  1.9627 -0.4896
   96SAPS   H6Y 9571   0.329   5.407   7.375 -0.5354 -0.1757 -0.4140
   96SAPS   C37 9572   0.533   5.475   7.344 -0.8076 -0.6330 -0.1335
   96SAPS   H7X 9573   0.589   5.560   7.300  0.5541 -0.2469  2.1655
   96SAPS   H7Y 9574   0.573   5.378   7.307  0.6789 -0.6806  1.4938
   96SAPS   C38 9575   0.576   5.485   7.490 -0.3938 -0.1363 -0.5475
   96SAPS   H8X 9576   0.538   5.397   7.546 -1.3925  0.1588 -0.7491
   96SAPS   H8Y 9577   0.526   5.572   7.538  0.3462  0.0387 -0.0722
   96SAPS   C39 9578   0.726   5.478   7.506  0.7643 -0.1738  0.3919
   96SAPS   H9X 9579   0.762   5.581   7.486  0.2881  0.4658  2.5557
   96SAPS   H9Y 9580   0.771   5.401   7.440 -1.2777 -2.3088  1.3310
   96SAPS  C310 9581   0.763   5.445   7.651 -0.0334  0.4438  0.0085
   96SAPS  H10X 9582   0.874   5.437   7.651 -0.1031 -0.6658 -0.9041
   96SAPS  H10Y 9583   0.718   5.350   7.687  0.8310  0.2457  0.6007
   96SAPS  C311 9584   0.728   5.549   7.749  0.3662 -0.6619  0.5249
   96SAPS  H11X 9585   0.617   5.549   7.743  0.3416  0.3014  0.8004
   96SAPS  H11Y 9586   0.754   5.652   7.718 -0.4785 -0.7344 -0.4784
   96SAPS  C312 9587   0.798   5.543   7.887  0.2940  0.5370 -0.4850
   96SAPS  H12X 9588   0.749   5.617   7.954  0.6050 -0.8343  1.3341
   96SAPS  H12Y 9589   0.901   5.584   7.884 -0.1569  1.6668 -1.1163
   96SAPS  C313 9590   0.802   5.403   7.945  0.0508  0.1452  0.4062
   96SAPS  H13X 9591   0.848   5.336   7.869 -0.1050  0.8545 -0.3183
   96SAPS  H13Y 9592   0.698   5.367   7.962 -0.6490  1.5636 -0.6479
   96SAPS  C314 9593   0.872   5.393   8.080 -0.6190 -0.3832 -0.6295
   96SAPS  H14X 9594   0.967   5.450   8.083 -0.5038 -0.4441 -2.0895
   96SAPS  H14Y 9595   0.894   5.291   8.119 -0.8905  0.0780  0.7721
   96SAPS  C315 9596   0.773   5.441   8.195 -0.1814  0.1052  0.6070
   96SAPS  H15X 9597   0.681   5.380   8.180  0.9805 -1.5832  0.1224
   96SAPS  H15Y 9598   0.750   5.547   8.168  0.2000  0.5120  1.8136
   96SAPS  C316 9599   0.822   5.433   8.335 -0.7088 -0.0948  0.2453
   96SAPS  H16X 9600   0.916   5.492   8.348 -1.3066  1.3841 -1.7764
   96SAPS  H16Y 9601   0.853   5.329   8.359 -0.5646 -0.1612 -0.2202
   96SAPS  C317 9602   0.714   5.462   8.442 -0.3629 -0.1436  0.5067
   96SAPS  H17X 9603   0.751   5.428   8.541 -3.4544 -2.6166  1.0163
   96SAPS  H17Y 9604   0.629   5.391   8.431 -1.2689  0.5349  2.7202
   96SAPS  C318 9605   0.667   5.608   8.445  0.4094 -0.1517 -0.6565
   96SAPS  H18X 9606   0.607   5.631   8.355  1.2274 -0.2508 -1.2368
   96SAPS  H18Y 9607   0.758   5.672   8.439  1.0352 -1.1212 -2.2203
   96SAPS  H18Z 9608   0.607   5.633   8.535  1.4319  0.3616 -0.0971
   97SAPS     N 9609   0.701   3.496   6.341  0.3579 -0.1387  0.0367
   97SAPS   HN1 9610   0.690   3.584   6.286 -2.2433 -0.4934 -0.1397
   97SAPS   HN2 9611   0.610   3.448   6.329 -0.4523  1.5806 -1.1349
   97SAPS   HN3 9612   0.719   3.523   6.440 -1.7411 -2.4375  1.1332
   97SAPS   C12 9613   0.817   3.424   6.288  0.8700 -0.1900 -0.8530
   97SAPS  H12A 9614   0.795   3.392   6.188 -0.9051 -0.1941 -0.4816
   97SAPS   C13 9615   0.947   3.511   6.283 -0.4802 -0.5441  0.2433
   97SAPS  O13A 9616   0.961   3.626   6.335 -0.1002 -0.6900  0.4230
   97SAPS  O13B 9617   1.045   3.461   6.224 -0.1139  0.0054  0.4791
   97SAPS   C11 9618   0.842   3.299   6.375 -0.3843 -0.1860 -0.0042
   97SAPS  H11A 9619   0.887   3.340   6.468 -0.3957  0.1178 -0.1316
   97SAPS  H11B 9620   0.913   3.232   6.321  0.5532  0.8264 -0.0673
   97SAPS     P 9621   0.694   3.136   6.534 -0.4388  0.0943  0.5253
   97SAPS   O13 9622   0.586   3.201   6.610 -0.0371  0.2329  0.4227
   97SAPS   O14 9623   0.667   2.993   6.502 -0.0799  0.1736 -0.5072
   97SAPS   O12 9624   0.729   3.216   6.399  0.3589 -0.0104  0.1569
   97SAPS   O11 9625   0.824   3.155   6.622  0.6629 -0.8559  0.5494
   97SAPS    C1 9626   0.952   3.098   6.600  0.1008  0.4710 -0.1027
   97SAPS    HA 9627   0.957   3.034   6.509  0.4254 -0.4393  0.5423
   97SAPS    HB 9628   1.023   3.182   6.581  0.2316  0.1330 -1.2052
   97SAPS    C2 9629   1.001   3.028   6.725 -0.2471 -0.1383  0.1664
   97SAPS    HS 9630   0.972   2.921   6.728 -0.4567 -0.0659  0.8935
   97SAPS   O21 9631   0.947   3.094   6.841  0.0904  0.5469  1.0805
   97SAPS   C21 9632   0.845   3.031   6.897 -0.1548 -0.0411  0.4748
   97SAPS   O22 9633   0.796   2.925   6.858 -0.4652 -1.1398 -0.5292
   97SAPS   C22 9634   0.786   3.123   7.004 -0.8866 -1.0630  0.0460
   97SAPS   H2R 9635   0.867   3.192   7.034  0.2350 -1.2799 -2.2478
   97SAPS   H2S 9636   0.703   3.183   6.960  0.8479  1.7085  0.3467
   97SAPS    C3 9637   1.156   3.036   6.743 -0.3418 -0.9852  0.0395
   97SAPS    HX 9638   1.174   3.140   6.777 -3.6636 -1.1343  2.8499
   97SAPS    HY 9639   1.209   3.026   6.646  3.2987  2.6223  1.3858
   97SAPS   O31 9640   1.209   2.937   6.829  0.2472  0.5934 -0.0938
   97SAPS   C31 9641   1.270   2.972   6.941 -0.2751  0.5634 -0.3660
   97SAPS   O32 9642   1.299   3.087   6.980  0.3249 -0.0465  0.5342
   97SAPS   C32 9643   1.301   2.842   7.030  0.5977 -0.3207  0.3929
   97SAPS   H2X 9644   1.369   2.776   6.972  0.7591 -0.7263  1.0362
   97SAPS   H2Y 9645   1.201   2.797   7.045  0.0301  0.3859 -1.0655
   97SAPS   C23 9646   0.730   3.046   7.122 -0.6932 -0.3746 -0.1101
   97SAPS   H3R 9647   0.672   2.952   7.109 -1.0962  0.0568 -1.5971
   97SAPS   H3S 9648   0.662   3.118   7.173 -0.2373  1.8223 -2.3952
   97SAPS   C24 9649   0.842   3.015   7.223  0.2208  0.1318  0.3638
   97SAPS   H4R 9650   0.903   3.107   7.230  0.4331  0.0444 -0.2727
   97SAPS   H4S 9651   0.915   2.949   7.171 -0.4916  0.8327 -1.6179
   97SAPS   C25 9652   0.800   2.955   7.348  0.5858  0.2090 -0.2231
   97SAPS   H5R 9653   0.747   2.860   7.334  0.3805  0.0678  1.4204
   97SAPS   C26 9654   0.813   2.999   7.476 -0.0935  0.5016  0.5834
   97SAPS   H6R 9655   0.781   2.929   7.554  2.1553 -0.0962  1.0188
   97SAPS   C27 9656   0.888   3.127   7.508 -0.3873 -0.2458  0.4455
   97SAPS   H7R 9657   0.849   3.168   7.603  2.1689 -1.2788  2.0366
   97SAPS   H7S 9658   0.873   3.206   7.431 -1.3914  1.0001  1.8582
   97SAPS   C28 9659   1.032   3.098   7.526  0.2466 -0.1164  0.1882
   97SAPS   H8R 9660   1.096   3.120   7.439 -0.3613  1.2262  0.0620
   97SAPS   C29 9661   1.091   3.078   7.646  0.0215 -0.5302  0.5121
   97SAPS   H9R 9662   1.200   3.067   7.647 -0.0707 -1.8346 -0.4046
   97SAPS  C210 9663   1.042   3.082   7.787 -0.8050  0.9702 -0.2555
   97SAPS  H10R 9664   0.934   3.106   7.796 -1.1862 -0.5775 -0.4316
   97SAPS  H10S 9665   1.099   3.156   7.848  1.1342  0.1153 -0.9447
   97SAPS  C211 9666   1.071   2.947   7.845  0.5286 -0.1372 -0.3146
   97SAPS  H11R 9667   1.109   2.879   7.768  1.2676  0.6943 -0.7074
   97SAPS  C212 9668   1.069   2.908   7.970 -0.5406 -0.0426 -0.6721
   97SAPS  H12R 9669   1.088   2.804   8.000 -1.1485  0.1933  0.6067
   97SAPS  C213 9670   1.014   2.991   8.090  0.8531 -0.2044  0.2109
   97SAPS  H13R 9671   0.906   2.973   8.112  1.2392 -1.0364  1.5995
   97SAPS  H13S 9672   1.003   3.097   8.059 -0.7613 -0.2666  0.4486
   97SAPS  C214 9673   1.108   2.972   8.203 -0.1326 -0.0162  0.8795
   97SAPS  H14R 9674   1.197   3.036   8.201  0.9535 -1.4791  0.6388
   97SAPS  C215 9675   1.091   2.894   8.309  0.4509  0.1433  0.5664
   97SAPS  H15R 9676   1.168   2.886   8.387 -0.7502 -0.3502  1.7596
   97SAPS  C216 9677   0.972   2.803   8.332 -0.2803 -0.7512  0.2310
   97SAPS  H16R 9678   1.006   2.698   8.344  0.0467 -0.5435  1.2161
   97SAPS  H16S 9679   0.905   2.803   8.243  2.7887 -1.7123 -2.2459
   97SAPS  C217 9680   0.886   2.835   8.456  0.1844  0.2497 -0.0983
   97SAPS  H17R 9681   0.934   2.829   8.556 -0.6463  0.2964  0.3120
   97SAPS  H17S 9682   0.797   2.769   8.452  0.3048  0.1249 -1.2754
   97SAPS  C218 9683   0.820   2.983   8.451  0.1790 -0.1146 -0.8210
   97SAPS  H18R 9684   0.787   2.993   8.345  1.5428 -2.2410 -1.5166
   97SAPS  H18S 9685   0.897   3.063   8.462 -1.9621  1.7706  1.5604
   97SAPS  C219 9686   0.726   3.020   8.570  0.0295  0.4729  0.0449
   97SAPS  H19R 9687   0.640   2.954   8.548  1.2059 -0.0739 -3.5183
   97SAPS  H19S 9688   0.675   3.118   8.558  1.4692  1.1459 -0.9151
   97SAPS  C220 9689   0.777   3.004   8.712  0.4614 -0.3832 -0.5942
   97SAPS  H20R 9690   0.693   3.032   8.780  0.7882  0.6331 -0.5854
   97SAPS  H20S 9691   0.857   3.079   8.727 -0.2393  0.2003  0.3688
   97SAPS  H20T 9692   0.793   2.898   8.737 -0.8155 -0.6159 -0.6578
   97SAPS   C33 9693   1.368   2.892   7.153 -0.2511 -0.0383 -0.7711
   97SAPS   H3X 9694   1.456   2.956   7.130  0.1477 -0.2101  0.2087
   97SAPS   H3Y 9695   1.415   2.803   7.200  1.0999 -0.7501 -3.3299
   97SAPS   C34 9696   1.277   2.960   7.261  0.3432 -0.7227  0.3273
   97SAPS   H4X 9697   1.209   3.035   7.217  0.3622 -1.3580 -0.8215
   97SAPS   H4Y 9698   1.349   2.999   7.336  0.7792 -0.8476 -0.0218
   97SAPS   C35 9699   1.188   2.849   7.326 -0.3616 -0.3200 -0.1722
   97SAPS   H5X 9700   1.178   2.763   7.258  0.3701 -1.0089  0.5778
   97SAPS   H5Y 9701   1.093   2.904   7.345  1.2741  2.8552 -0.3931
   97SAPS   C36 9702   1.237   2.776   7.452 -0.0797 -0.3776 -0.1145
   97SAPS   H6X 9703   1.150   2.716   7.488  0.0460 -1.3457 -1.3423
   97SAPS   H6Y 9704   1.273   2.849   7.527 -1.6104 -0.5044  0.7790
   97SAPS   C37 9705   1.350   2.672   7.444  0.0570  0.0248  0.7013
   97SAPS   H7X 9706   1.447   2.724   7.455  0.8051 -1.4331  1.2657
   97SAPS   H7Y 9707   1.353   2.614   7.350 -0.0880  0.6448  0.3043
   97SAPS   C38 9708   1.346   2.574   7.562 -0.4590  0.7067  0.2989
   97SAPS   H8X 9709   1.441   2.519   7.546  0.1513  1.9775 -0.6302
   97SAPS   H8Y 9710   1.253   2.517   7.545  0.6059 -0.5590 -1.6972
   97SAPS   C39 9711   1.349   2.644   7.699  0.0309  0.3940 -0.3443
   97SAPS   H9X 9712   1.260   2.709   7.711  1.7010  2.9053 -0.7765
   97SAPS   H9Y 9713   1.433   2.715   7.713 -1.9660  2.2789  3.6556
   97SAPS  C310 9714   1.339   2.536   7.815 -0.0455 -1.0895  0.2819
   97SAPS  H10X 9715   1.429   2.471   7.819  3.1614  2.9201  1.6018
   97SAPS  H10Y 9716   1.262   2.467   7.776  0.4363 -1.2589 -0.3837
   97SAPS  C311 9717   1.306   2.582   7.953  0.3254  0.7402 -0.3324
   97SAPS  H11X 9718   1.206   2.630   7.965  0.3047  0.2844  1.5743
   97SAPS  H11Y 9719   1.385   2.657   7.973  1.0850 -0.1132 -0.0645
   97SAPS  C312 9720   1.321   2.473   8.070 -0.0770  0.1779  0.1771
   97SAPS  H12X 9721   1.427   2.440   8.080 -0.0494 -1.0307 -2.8639
   97SAPS  H12Y 9722   1.264   2.387   8.030 -1.6902  0.9576  0.7444
   97SAPS  C313 9723   1.258   2.534   8.198  0.4746 -0.3007 -0.0037
   97SAPS  H13X 9724   1.150   2.551   8.179  0.7385  0.6602 -0.7034
   97SAPS  H13Y 9725   1.295   2.635   8.225 -1.3791  0.3522  0.2621
   97SAPS  C314 9726   1.268   2.433   8.309 -0.2388 -0.4403  0.0989
   97SAPS  H14X 9727   1.366   2.382   8.314  0.8761  1.6609  1.7543
   97SAPS  H14Y 9728   1.189   2.363   8.275 -0.3570 -1.3547  2.1504
   97SAPS  C315 9729   1.220   2.492   8.445  0.4909 -0.3208 -0.6226
   97SAPS  H15X 9730   1.204   2.412   8.521  0.9683  0.4215  0.2860
   97SAPS  H15Y 9731   1.124   2.538   8.412  1.1513 -0.8067 -3.4953
   97SAPS  C316 9732   1.317   2.598   8.503  0.2607 -0.0014 -0.3600
   97SAPS  H16X 9733   1.332   2.684   8.434 -3.0489  1.3923  0.4295
   97SAPS  H16Y 9734   1.412   2.546   8.526 -1.2822 -2.2413  1.3663
   97SAPS  C317 9735   1.252   2.667   8.621  0.7100 -0.0724 -0.3646
   97SAPS  H17X 9736   1.220   2.590   8.695  0.2356  1.7760  1.4660
   97SAPS  H17Y 9737   1.161   2.718   8.582 -0.0268 -0.7177  0.4713
   97SAPS  C318 9738   1.350   2.772   8.678  0.4820 -0.2148 -0.4573
   97SAPS  H18X 9739   1.427   2.719   8.738  0.0505  3.3018  3.7519
   97SAPS  H18Y 9740   1.287   2.837   8.743 -1.4800 -0.0101 -2.4599
   97SAPS  H18Z 9741   1.390   2.845   8.605 -1.3699  1.4336  0.0764
   98SAPS     N 9742   5.960   2.328   6.150  0.4199 -0.2177 -0.3285
   98SAPS   HN1 9743   5.903   2.295   6.069  0.9765 -1.5410 -0.2173
   98SAPS   HN2 9744   6.034   2.394   6.120 -0.1343 -0.0475 -1.3826
   98SAPS   HN3 9745   6.001   2.245   6.198 -0.1033 -0.3557 -0.1138
   98SAPS   C12 9746   5.869   2.408   6.243  0.1716  0.1016  0.0218
   98SAPS  H12A 9747   5.933   2.468   6.307 -1.3692  2.9302 -0.9402
   98SAPS   C13 9748   5.773   2.514   6.180  0.0526 -0.4510  0.1057
   98SAPS  O13A 9749   5.784   2.547   6.058  0.1560  0.0348 -0.0353
   98SAPS  O13B 9750   5.703   2.586   6.256  0.0514 -0.3954 -0.3112
   98SAPS   C11 9751   5.785   2.303   6.328  0.2643 -0.1389  0.2332
   98SAPS  H11A 9752   5.728   2.366   6.399  0.2874  1.5183 -1.1379
   98SAPS  H11B 9753   5.863   2.248   6.384  0.4268 -1.6070 -1.3618
   98SAPS     P 9754   5.717   2.059   6.266 -0.0673  0.4298 -0.5401
   98SAPS   O13 9755   5.594   2.000   6.212  0.4795 -0.4745 -0.7540
   98SAPS   O14 9756   5.846   2.010   6.204  0.0710  0.3418  0.1959
   98SAPS   O12 9757   5.706   2.216   6.247  0.3771 -0.2805  0.0931
   98SAPS   O11 9758   5.719   2.051   6.421 -0.1970  0.2260 -0.4564
   98SAPS    C1 9759   5.659   1.939   6.496 -0.0660 -0.6675  0.1163
   98SAPS    HA 9760   5.555   1.928   6.459  0.4904  1.4950 -2.4800
   98SAPS    HB 9761   5.704   1.840   6.472  0.0953 -0.7291  0.6638
   98SAPS    C2 9762   5.647   1.961   6.653 -0.3016 -0.3404  0.8794
   98SAPS    HS 9763   5.554   1.915   6.691  0.3697 -0.8880  1.9108
   98SAPS   O21 9764   5.672   2.099   6.688 -0.0323 -0.0248  0.2197
   98SAPS   C21 9765   5.568   2.172   6.650 -0.5368 -0.1173 -0.4534
   98SAPS   O22 9766   5.464   2.139   6.606 -0.1184  0.1702 -0.7390
   98SAPS   C22 9767   5.600   2.311   6.707 -0.2147  0.2292  0.5335
   98SAPS   H2R 9768   5.700   2.314   6.756  1.3040  2.3111 -2.4165
   98SAPS   H2S 9769   5.608   2.381   6.621 -1.8769 -0.2760 -0.0673
   98SAPS    C3 9770   5.754   1.885   6.732 -0.6755  1.2155  0.6639
   98SAPS    HX 9771   5.842   1.951   6.747  0.6308 -0.0813 -0.8598
   98SAPS    HY 9772   5.782   1.799   6.667 -0.0222  0.5463  1.7925
   98SAPS   O31 9773   5.693   1.834   6.852 -0.7486  0.5399 -0.1923
   98SAPS   C31 9774   5.768   1.808   6.955  0.5631  0.0156  0.3093
   98SAPS   O32 9775   5.890   1.813   6.955 -0.4405  0.0443  0.0736
   98SAPS   C32 9776   5.683   1.753   7.065 -0.3037 -0.1721 -0.3985
   98SAPS   H2X 9777   5.605   1.688   7.019  1.1492 -2.1745 -0.2111
   98SAPS   H2Y 9778   5.634   1.835   7.122 -0.5573 -0.9817  0.5985
   98SAPS   C23 9779   5.498   2.360   6.815  0.8199  0.3438 -0.0530
   98SAPS   H3R 9780   5.397   2.357   6.770  0.6325 -1.5128  0.3726
   98SAPS   H3S 9781   5.521   2.466   6.838  2.0564  0.1503 -0.3107
   98SAPS   C24 9782   5.481   2.270   6.946  0.4425 -0.6960 -0.2500
   98SAPS   H4R 9783   5.500   2.168   6.905  0.7586 -0.0776 -1.7081
   98SAPS   H4S 9784   5.375   2.280   6.978  0.7903  0.4138  0.6038
   98SAPS   C25 9785   5.584   2.284   7.050 -0.0064 -0.6778  0.5777
   98SAPS   H5R 9786   5.689   2.280   7.015  0.4642  2.0861  1.4191
   98SAPS   C26 9787   5.566   2.310   7.186 -0.6091 -0.1017  0.4970
   98SAPS   H6R 9788   5.658   2.329   7.243  0.6516  1.4027 -1.8769
   98SAPS   C27 9789   5.434   2.337   7.247  0.0524 -0.2425 -0.2349
   98SAPS   H7R 9790   5.387   2.241   7.277 -1.7587  1.0409  1.2921
   98SAPS   H7S 9791   5.366   2.383   7.172 -0.4245 -0.2396  0.1949
   98SAPS   C28 9792   5.448   2.424   7.370  0.1121 -0.7124  0.5251
   98SAPS   H8R 9793   5.420   2.528   7.351  2.6003  0.0229  0.4760
   98SAPS   C29 9794   5.480   2.374   7.494 -0.4763 -0.0559 -0.1682
   98SAPS   H9R 9795   5.499   2.446   7.576  3.4863 -0.8381 -0.2339
   98SAPS  C210 9796   5.501   2.231   7.530 -0.9530 -0.2059 -0.3605
   98SAPS  H10R 9797   5.555   2.189   7.442 -2.0411 -0.4230 -0.9438
   98SAPS  H10S 9798   5.401   2.183   7.537 -0.9715  0.0533  2.1601
   98SAPS  C211 9799   5.569   2.219   7.667 -0.2104  0.2936 -0.0141
   98SAPS  H11R 9800   5.674   2.250   7.663 -0.1128 -0.0990 -0.6653
   98SAPS  C212 9801   5.504   2.197   7.784 -0.2345 -0.3054  0.2576
   98SAPS  H12R 9802   5.568   2.186   7.873  1.0122  1.6092 -0.3301
   98SAPS  C213 9803   5.356   2.187   7.811 -0.7071  0.4207 -0.5792
   98SAPS  H13R 9804   5.335   2.102   7.879 -1.7029  1.0340 -0.0828
   98SAPS  H13S 9805   5.295   2.170   7.719 -0.3184 -0.5838 -0.6594
   98SAPS  C214 9806   5.312   2.306   7.880  0.0100 -0.4477  0.2736
   98SAPS  H14R 9807   5.325   2.397   7.819 -1.9228  0.8651  1.6987
   98SAPS  C215 9808   5.255   2.324   8.001  0.1180  1.7415 -0.1977
   98SAPS  H15R 9809   5.225   2.425   8.034 -2.5486  1.1678 -0.6531
   98SAPS  C216 9810   5.243   2.212   8.103  0.3904  0.1848 -0.2600
   98SAPS  H16R 9811   5.213   2.117   8.053  1.9409 -0.1122 -0.6883
   98SAPS  H16S 9812   5.167   2.238   8.179 -0.9876 -0.6166 -1.3051
   98SAPS  C217 9813   5.379   2.183   8.164 -0.6243  0.6698 -0.0997
   98SAPS  H17R 9814   5.457   2.148   8.093 -1.7259  1.1593 -1.6027
   98SAPS  H17S 9815   5.359   2.096   8.230  0.7297  1.3345  1.2360
   98SAPS  C218 9816   5.438   2.296   8.248 -0.8625  0.6502  0.1505
   98SAPS  H18R 9817   5.363   2.340   8.317  0.1510 -1.8491  3.1025
   98SAPS  H18S 9818   5.485   2.370   8.180  0.0511 -1.2719 -1.4099
   98SAPS  C219 9819   5.553   2.253   8.344  0.3282 -0.2738  0.8021
   98SAPS  H19R 9820   5.609   2.345   8.371  1.0240 -0.0721 -1.1922
   98SAPS  H19S 9821   5.625   2.196   8.281  1.4925  1.7229  0.2547
   98SAPS  C220 9822   5.531   2.167   8.465  0.4537  1.3589  0.0203
   98SAPS  H20R 9823   5.495   2.230   8.550  0.6427  0.9996  0.3665
   98SAPS  H20S 9824   5.611   2.102   8.506 -0.5089  1.2358  1.8304
   98SAPS  H20T 9825   5.449   2.095   8.443  0.7859  1.6591 -2.4818
   98SAPS   C33 9826   5.769   1.675   7.160 -0.4663 -0.1958  0.1021
   98SAPS   H3X 9827   5.837   1.753   7.201 -0.5286  2.5900 -4.4061
   98SAPS   H3Y 9828   5.830   1.592   7.121  1.3092  0.4439  1.4063
   98SAPS   C34 9829   5.697   1.621   7.283  0.0787 -0.4553  0.5190
   98SAPS   H4X 9830   5.621   1.543   7.258  0.4247 -0.5170 -0.3591
   98SAPS   H4Y 9831   5.649   1.712   7.325  2.8376  0.9294  0.9041
   98SAPS   C35 9832   5.800   1.563   7.384 -0.5216 -0.2337 -0.1386
   98SAPS   H5X 9833   5.876   1.642   7.400 -1.2128  0.1979  1.1432
   98SAPS   H5Y 9834   5.839   1.465   7.350 -1.1365 -0.4962 -0.0914
   98SAPS   C36 9835   5.738   1.532   7.522  0.3719 -0.2706  0.2926
   98SAPS   H6X 9836   5.647   1.470   7.505  1.5169 -1.7252 -0.7929
   98SAPS   H6Y 9837   5.703   1.625   7.571  0.5743 -0.0490  0.0137
   98SAPS   C37 9838   5.834   1.462   7.609  0.2971  0.7178 -0.2597
   98SAPS   H7X 9839   5.928   1.520   7.610  1.8560 -1.6399  0.9072
   98SAPS   H7Y 9840   5.853   1.363   7.561  0.2606  0.0015  1.1411
   98SAPS   C38 9841   5.779   1.429   7.748 -0.4973 -0.1991 -0.1092
   98SAPS   H8X 9842   5.696   1.355   7.742  1.0599 -2.1957  1.5039
   98SAPS   H8Y 9843   5.752   1.529   7.790 -1.2930  0.6985 -2.5667
   98SAPS   C39 9844   5.887   1.357   7.830 -0.0559 -0.0456  0.3536
   98SAPS   H9X 9845   5.956   1.440   7.859 -0.6663  0.5626  0.0991
   98SAPS   H9Y 9846   5.940   1.292   7.757 -1.1813  0.8456 -1.3364
   98SAPS  C310 9847   5.844   1.273   7.948 -0.1325 -0.0264  0.3872
   98SAPS  H10X 9848   5.922   1.205   7.987 -1.0862 -0.1402  2.2399
   98SAPS  H10Y 9849   5.757   1.215   7.909  0.3930  1.0203 -2.6391
   98SAPS  C311 9850   5.797   1.362   8.065 -0.1587 -0.1440 -0.6205
   98SAPS  H11X 9851   5.726   1.443   8.038  1.8860  1.5256 -1.2405
   98SAPS  H11Y 9852   5.883   1.414   8.112 -0.7368 -1.4780  2.1229
   98SAPS  C312 9853   5.738   1.273   8.182  0.6653  0.3664  0.3977
   98SAPS  H12X 9854   5.808   1.191   8.210  1.6891  1.0194 -0.1834
   98SAPS  H12Y 9855   5.661   1.210   8.132 -1.3547  2.7257  0.3067
   98SAPS  C313 9856   5.668   1.349   8.296  0.5891  0.0798 -0.2195
   98SAPS  H13X 9857   5.584   1.299   8.349  0.8597 -1.4435 -1.1756
   98SAPS  H13Y 9858   5.623   1.434   8.242  0.4292 -0.8096 -1.5283
   98SAPS  C314 9859   5.765   1.410   8.404  0.1416  0.6597  0.0518
   98SAPS  H14X 9860   5.710   1.454   8.490  0.3504  0.7654  0.1352
   98SAPS  H14Y 9861   5.797   1.503   8.352 -1.5000  1.3628  0.2370
   98SAPS  C315 9862   5.879   1.321   8.440 -0.2194  0.9694  0.8444
   98SAPS  H15X 9863   5.950   1.312   8.356  2.7945  1.1024  3.2194
   98SAPS  H15Y 9864   5.841   1.221   8.469  1.0177  0.0382 -0.6514
   98SAPS  C316 9865   5.954   1.366   8.566  0.3864 -0.1407  0.5129
   98SAPS  H16X 9866   5.883   1.435   8.616  2.7913  2.2807  0.8616
   98SAPS  H16Y 9867   6.040   1.419   8.520  0.2917 -1.1000 -0.8460
   98SAPS  C317 9868   5.987   1.243   8.657 -0.6797  0.5253  0.0509
   98SAPS  H17X 9869   5.890   1.202   8.690 -1.0769 -0.0604 -1.7149
   98SAPS  H17Y 9870   6.032   1.287   8.749 -0.3567  1.7321 -0.6647
   98SAPS  C318 9871   6.085   1.139   8.592  0.2277 -0.1964  0.0738
   98SAPS  H18X 9872   6.192   1.168   8.584  0.4778 -0.9299  0.6578
   98SAPS  H18Y 9873   6.049   1.110   8.491 -1.1698  0.8258  0.2561
   98SAPS  H18Z 9874   6.082   1.043   8.648  1.5281 -0.6383 -0.5586
   99SAPS     N 9875   3.804   0.740   6.028  0.3891  0.0884 -0.0993
   99SAPS   HN1 9876   3.777   0.840   6.028  0.0009  0.0456  2.3563
   99SAPS   HN2 9877   3.886   0.731   6.091  0.5370  1.8967  0.0074
   99SAPS   HN3 9878   3.836   0.708   5.934  2.4962 -1.3947  1.0437
   99SAPS   C12 9879   3.696   0.651   6.069  0.2832  0.2722  0.4947
   99SAPS  H12A 9880   3.626   0.653   5.987 -0.3955  0.9721  1.0727
   99SAPS   C13 9881   3.736   0.512   6.119  0.5455 -0.6533  0.0518
   99SAPS  O13A 9882   3.853   0.468   6.114 -0.0947  0.2378 -0.5901
   99SAPS  O13B 9883   3.643   0.431   6.142  0.4567 -0.3621 -0.1031
   99SAPS   C11 9884   3.623   0.730   6.179 -0.4028 -0.3150 -0.1045
   99SAPS  H11A 9885   3.686   0.793   6.245  1.1207 -2.1976  0.3366
   99SAPS  H11B 9886   3.577   0.662   6.253 -1.0966  1.2711  0.9618
   99SAPS     P 9887   3.369   0.803   6.170 -0.1852  0.5578 -0.0066
   99SAPS   O13 9888   3.283   0.911   6.119 -0.3579 -0.8120 -0.6345
   99SAPS   O14 9889   3.322   0.658   6.158  0.3616 -0.0891  0.4586
   99SAPS   O12 9890   3.520   0.813   6.115  0.0993 -0.1731 -0.3183
   99SAPS   O11 9891   3.396   0.823   6.325  0.4857  0.3783 -0.4197
   99SAPS    C1 9892   3.288   0.775   6.411  0.1473 -0.0654 -0.1265
   99SAPS    HA 9893   3.188   0.799   6.368  0.5373  2.4497  0.1929
   99SAPS    HB 9894   3.295   0.666   6.428 -0.8220 -0.4263 -1.8302
   99SAPS    C2 9895   3.277   0.848   6.547  0.0894  0.8907  0.2239
   99SAPS    HS 9896   3.258   0.956   6.530 -2.3365  0.7683  1.6359
   99SAPS   O21 9897   3.391   0.821   6.622  0.0417  0.1773 -0.4843
   99SAPS   C21 9898   3.413   0.914   6.715  1.2842 -0.1771 -0.0270
   99SAPS   O22 9899   3.339   1.010   6.742 -0.1599 -0.0697  0.1766
   99SAPS   C22 9900   3.546   0.881   6.774 -0.0718  0.2364  0.2306
   99SAPS   H2R 9901   3.553   0.773   6.797 -0.4216 -0.3800 -2.3133
   99SAPS   H2S 9902   3.610   0.897   6.685  1.2396  0.8308  1.2548
   99SAPS    C3 9903   3.149   0.798   6.625  0.4383  0.0104  0.0667
   99SAPS    HX 9904   3.069   0.837   6.559  1.1262 -1.1458 -1.5429
   99SAPS    HY 9905   3.141   0.856   6.719 -0.2352  0.8121 -0.4781
   99SAPS   O31 9906   3.143   0.649   6.637 -0.0647  0.2205 -0.3838
   99SAPS   C31 9907   3.138   0.614   6.767 -0.9489 -0.4386  0.5921
   99SAPS   O32 9908   3.156   0.688   6.860  0.5932 -0.1659  0.5525
   99SAPS   C32 9909   3.113   0.465   6.768 -0.1826  0.5702 -0.0292
   99SAPS   H2X 9910   3.156   0.403   6.686  1.7137 -0.5796  1.7277
   99SAPS   H2Y 9911   3.002   0.455   6.764 -0.2072 -0.1718  1.5970
   99SAPS   C23 9912   3.578   0.965   6.902 -0.4686 -0.2123  0.6484
   99SAPS   H3R 9913   3.520   1.059   6.910  1.2442  0.9407  0.0718
   99SAPS   H3S 9914   3.684   0.995   6.886 -0.2908 -1.0492  0.1748
   99SAPS   C24 9915   3.568   0.886   7.033 -0.4208  0.1207 -0.3733
   99SAPS   H4R 9916   3.622   0.792   7.011 -1.2551 -0.3525 -0.4204
   99SAPS   H4S 9917   3.461   0.863   7.049 -0.2387  0.1331  1.0853
   99SAPS   C25 9918   3.640   0.960   7.146  0.3479 -0.3480  0.0115
   99SAPS   H5R 9919   3.613   1.066   7.158  1.1036 -0.4018  2.5827
   99SAPS   C26 9920   3.740   0.921   7.226 -0.6271  0.2828 -0.3714
   99SAPS   H6R 9921   3.780   0.985   7.306 -1.8787 -1.3086  1.6251
   99SAPS   C27 9922   3.804   0.785   7.222  0.6374 -0.8514  0.0892
   99SAPS   H7R 9923   3.836   0.768   7.117 -0.2583  0.3216 -0.4004
   99SAPS   H7S 9924   3.723   0.714   7.245  2.0500 -2.4603  0.2943
   99SAPS   C28 9925   3.918   0.769   7.312 -0.4792  0.2733  0.8124
   99SAPS   H8R 9926   4.012   0.818   7.284  0.9730 -2.3540  0.7738
   99SAPS   C29 9927   3.932   0.689   7.422 -0.0310  0.0214  0.3438
   99SAPS   H9R 9928   4.031   0.682   7.469  0.1296  0.1819  0.0323
   99SAPS  C210 9929   3.827   0.603   7.489 -0.3111  0.2061 -0.4039
   99SAPS  H10R 9930   3.870   0.560   7.582 -1.2012  2.9295  1.3605
   99SAPS  H10S 9931   3.807   0.509   7.432  3.5009 -3.2609  3.2280
   99SAPS  C211 9932   3.697   0.676   7.523  0.0468 -1.0365  0.4399
   99SAPS  H11R 9933   3.650   0.726   7.437 -2.4368 -1.1188  1.6827
   99SAPS  C212 9934   3.646   0.694   7.646  0.3400 -0.1203 -0.2760
   99SAPS  H12R 9935   3.556   0.756   7.659  0.0929 -0.4605 -0.3561
   99SAPS  C213 9936   3.697   0.637   7.776 -0.2224  0.5658 -0.1248
   99SAPS  H13R 9937   3.722   0.531   7.754 -1.9304  0.2247 -0.5907
   99SAPS  H13S 9938   3.614   0.634   7.849 -3.0823  0.0716 -3.1305
   99SAPS  C214 9939   3.819   0.700   7.833  0.1887  0.6541 -0.2362
   99SAPS  H14R 9940   3.887   0.744   7.758 -1.4190 -3.2943 -4.4980
   99SAPS  C215 9941   3.852   0.690   7.964  0.5922 -0.4210 -1.2710
   99SAPS  H15R 9942   3.952   0.726   7.994  0.1612  1.0579 -1.5172
   99SAPS  C216 9943   3.781   0.619   8.073  0.5432 -0.4720 -0.1991
   99SAPS  H16R 9944   3.671   0.618   8.060  0.7015 -1.7188 -1.6644
   99SAPS  H16S 9945   3.806   0.658   8.175 -0.6642 -1.7883  0.6340
   99SAPS  C217 9946   3.809   0.467   8.078 -0.4926 -0.3644  0.7280
   99SAPS  H17R 9947   3.919   0.464   8.098 -0.3755 -0.6329  0.0395
   99SAPS  H17S 9948   3.793   0.413   7.983 -0.3289  0.7250  0.0703
   99SAPS  C218 9949   3.715   0.388   8.178 -0.2934  0.0370 -0.3546
   99SAPS  H18R 9950   3.760   0.286   8.177  1.7560  0.8423  1.3088
   99SAPS  H18S 9951   3.609   0.395   8.147 -0.1567 -0.8080 -1.0513
   99SAPS  C219 9952   3.720   0.441   8.321 -0.5713  0.5807  0.8543
   99SAPS  H19R 9953   3.694   0.548   8.310  1.0346  0.7481 -2.9871
   99SAPS  H19S 9954   3.824   0.434   8.360  0.7639 -0.5021 -2.5299
   99SAPS  C220 9955   3.621   0.370   8.417  0.3499 -1.0876  0.7489
   99SAPS  H20R 9956   3.630   0.416   8.518 -0.0996  0.7359 -0.0029
   99SAPS  H20S 9957   3.636   0.261   8.428 -0.6470 -1.3218 -0.1355
   99SAPS  H20T 9958   3.518   0.387   8.378  1.1844 -1.4488 -1.7917
   99SAPS   C33 9959   3.157   0.404   6.904  0.2685  0.6122  0.3060
   99SAPS   H3X 9960   3.162   0.469   6.994  2.8647 -1.2149  1.6138
   99SAPS   H3Y 9961   3.265   0.378   6.899  0.4223  1.2309  0.3216
   99SAPS   C34 9962   3.084   0.270   6.921  0.5082  0.5799  1.0443
   99SAPS   H4X 9963   3.107   0.202   6.837 -4.3688 -1.0385  0.7281
   99SAPS   H4Y 9964   2.975   0.289   6.917  0.1365 -1.4661 -0.0461
   99SAPS   C35 9965   3.103   0.199   7.057  0.0799 -0.1378 -0.0866
   99SAPS   H5X 9966   3.204   0.222   7.098 -0.6857  2.2118  0.6490
   99SAPS   H5Y 9967   3.102   0.091   7.033  0.5481  0.1341 -1.3721
   99SAPS   C36 9968   2.995   0.240   7.166  0.2110  0.1139 -0.1747
   99SAPS   H6X 9969   2.903   0.220   7.107 -0.2284  0.1919  0.4723
   99SAPS   H6Y 9970   3.006   0.347   7.196  1.2012  0.1086 -0.4668
   99SAPS   C37 9971   2.988   0.148   7.295  0.0682 -0.0150  0.3818
   99SAPS   H7X 9972   3.001   0.044   7.257  1.7324  0.8641 -1.7009
   99SAPS   H7Y 9973   2.891   0.150   7.349  0.8127  0.0823  1.7623
   99SAPS   C38 9974   3.095   0.193   7.388  0.3099  0.2862 -0.7491
   99SAPS   H8X 9975   3.080   0.300   7.413 -0.8910  0.4293 -1.9773
   99SAPS   H8Y 9976   3.196   0.185   7.341  0.7477  0.8027  0.0812
   99SAPS   C39 9977   3.098   0.096   7.512 -0.6928 -0.0698  0.4084
   99SAPS   H9X 9978   3.117  -0.010   7.487 -1.2732  0.2663 -1.7180
   99SAPS   H9Y 9979   2.992   0.095   7.545 -0.5830 -0.0139  0.7572
   99SAPS  C310 9980   3.202   0.136   7.616  0.0741 -0.4762 -0.1409
   99SAPS  H10X 9981   3.302   0.141   7.568  0.2923 -0.4028  0.3132
   99SAPS  H10Y 9982   3.199   0.066   7.702  1.9947  0.4903  0.7771
   99SAPS  C311 9983   3.178   0.275   7.678 -0.1957 -0.0630  0.1087
   99SAPS  H11X 9984   3.175   0.350   7.595  2.6107  0.8966  0.7784
   99SAPS  H11Y 9985   3.264   0.309   7.738 -0.3406  1.3394 -0.4402
   99SAPS  C312 9986   3.039   0.290   7.740 -0.2385 -0.2146 -0.1992
   99SAPS  H12X 9987   2.962   0.214   7.714  0.4451 -1.6053  1.6205
   99SAPS  H12Y 9988   3.002   0.392   7.715  0.5517  0.2130  0.3214
   99SAPS  C313 9989   3.068   0.303   7.888  0.0513 -0.3827 -0.5891
   99SAPS  H13X 9990   3.160   0.364   7.903 -0.1620 -0.1330 -0.2849
   99SAPS  H13Y 9991   3.099   0.206   7.931  3.0333  1.4470  1.8296
   99SAPS  C314 9992   2.960   0.371   7.973  0.2226  0.5372  0.2136
   99SAPS  H14X 9993   2.869   0.307   7.981  1.6626 -1.3640  4.0001
   99SAPS  H14Y 9994   2.933   0.470   7.933  1.7112  0.6305 -0.6155
   99SAPS  C315 9995   2.987   0.403   8.125  0.1542  0.3054  0.2846
   99SAPS  H15X 9996   2.904   0.473   8.146  1.4917  1.7839  0.8430
   99SAPS  H15Y 9997   3.084   0.456   8.131  1.0638 -1.0874 -1.2697
   99SAPS  C316 9998   3.000   0.286   8.223 -0.6438  0.1271 -0.0081
   99SAPS  H16X 9999   3.070   0.206   8.191 -0.9835 -0.2936  0.2855
   99SAPS  H16Y10000   2.902   0.233   8.224 -0.6628  0.1558 -0.1867
   99SAPS  C31710001   3.013   0.334   8.367  0.0683 -0.5284 -0.2216
   99SAPS  H17X10002   2.928   0.401   8.394  1.0608  0.6316  0.1376
   99SAPS  H17Y10003   3.101   0.398   8.388 -1.0946  0.7174  1.1323
   99SAPS  C31810004   3.013   0.218   8.462  0.2301  0.0327 -0.4892
   99SAPS  H18X10005   2.994   0.263   8.562 -1.8459 -1.0376 -0.3387
   99SAPS  H18Y10006   3.104   0.155   8.455 -0.9623 -2.1762  2.1987
   99SAPS  H18Z10007   2.932   0.146   8.438 -0.1706 -0.4857  2.0884
  100SAPS     N10008   1.235   3.641   6.285 -0.1878 -0.3836 -0.0979
  100SAPS   HN110009   1.247   3.693   6.374  0.9100 -0.3580 -0.2449
  100SAPS   HN210010   1.223   3.715   6.213  1.0777  0.2963  0.3566
  100SAPS   HN310011   1.154   3.577   6.290 -0.2305 -0.5704 -2.1480
  100SAPS   C1210012   1.358   3.569   6.271 -0.0760 -0.3508 -0.3833
  100SAPS  H12A10013   1.338   3.472   6.316  1.5426  0.4716  2.3744
  100SAPS   C1310014   1.400   3.549   6.127  0.4949  0.0843 -0.1182
  100SAPS  O13A10015   1.367   3.631   6.032  0.2906  0.3135  0.1122
  100SAPS  O13B10016   1.500   3.475   6.109  0.1206  0.4010 -0.2377
  100SAPS   C1110017   1.469   3.653   6.349 -0.2726 -0.0852  0.2052
  100SAPS  H11A10018   1.491   3.749   6.297 -2.0909  0.6757  0.7546
  100SAPS  H11B10019   1.565   3.598   6.349  0.1824  0.5981  2.9062
  100SAPS     P10020   1.477   3.617   6.602 -0.6908 -0.0763  0.3599
  100SAPS   O1310021   1.426   3.477   6.609 -0.5303 -0.4589 -0.3264
  100SAPS   O1410022   1.630   3.624   6.590 -0.7103 -0.5663  0.3509
  100SAPS   O1210023   1.416   3.689   6.474 -0.5439 -0.2687 -0.1053
  100SAPS   O1110024   1.430   3.711   6.720  0.5686 -0.6707  0.4016
  100SAPS    C110025   1.445   3.849   6.698 -0.5393  0.3444 -0.0611
  100SAPS    HA10026   1.479   3.887   6.599  0.7353  1.2033  0.6854
  100SAPS    HB10027   1.347   3.897   6.718  0.2660  1.5648  1.0771
  100SAPS    C210028   1.551   3.922   6.792  0.1668 -0.3255  0.6763
  100SAPS    HS10029   1.651   3.897   6.749  0.9461  1.7339  1.1512
  100SAPS   O2110030   1.541   3.881   6.928  0.0045  0.6912  0.0549
  100SAPS   C2110031   1.604   3.775   6.974  0.2185  0.4166 -0.0447
  100SAPS   O2210032   1.680   3.699   6.914  0.3013  0.0504 -0.2434
  100SAPS   C2210033   1.543   3.739   7.115  0.5307  0.8415  0.1195
  100SAPS   H2R10034   1.512   3.837   7.157  0.6305  2.1122 -2.5656
  100SAPS   H2S10035   1.454   3.679   7.086  2.3326 -2.4321  0.9624
  100SAPS    C310036   1.538   4.075   6.786  0.2020 -0.0610  0.1699
  100SAPS    HX10037   1.558   4.108   6.682 -0.4360 -1.9610 -0.6044
  100SAPS    HY10038   1.608   4.118   6.861 -0.1383  0.0314  0.4363
  100SAPS   O3110039   1.405   4.106   6.825 -0.6009  0.2714  0.0252
  100SAPS   C3110040   1.380   4.123   6.958 -0.2959  0.2619  1.4439
  100SAPS   O3210041   1.458   4.167   7.039  0.2350  0.5017  0.8774
  100SAPS   C3210042   1.227   4.114   6.981  0.1145  0.1921 -0.3491
  100SAPS   H2X10043   1.197   4.011   6.952 -0.5466  0.1275  0.5275
  100SAPS   H2Y10044   1.182   4.193   6.918  0.1289 -0.6387 -1.4433
  100SAPS   C2310045   1.637   3.666   7.218  0.3305 -0.6136  0.5352
  100SAPS   H3R10046   1.715   3.735   7.257  0.0779  1.0851 -1.7521
  100SAPS   H3S10047   1.704   3.604   7.156  0.8919  1.1930 -0.7466
  100SAPS   C2410048   1.569   3.576   7.319  0.2906  1.1189  0.1047
  100SAPS   H4R10049   1.648   3.507   7.355  0.7182  1.2022 -0.6450
  100SAPS   H4S10050   1.484   3.516   7.280  0.6552  1.4215 -1.2262
  100SAPS   C2510051   1.535   3.649   7.439 -0.5702  0.2166 -0.5118
  100SAPS   H5R10052   1.581   3.749   7.438  1.5144 -0.6441 -3.7935
  100SAPS   C2610053   1.447   3.595   7.532  0.2808 -0.2750 -0.1215
  100SAPS   H6R10054   1.423   3.652   7.623  2.8781 -0.3335  0.6670
  100SAPS   C2710055   1.379   3.460   7.506  1.0361 -0.7062 -0.1504
  100SAPS   H7R10056   1.450   3.385   7.467  0.5811 -1.4903  0.4966
  100SAPS   H7S10057   1.304   3.484   7.427  0.2506  0.5905  0.9329
  100SAPS   C2810058   1.307   3.399   7.626  0.0430  0.0113 -0.6628
  100SAPS   H8R10059   1.349   3.310   7.675 -1.5266  0.7385  2.2824
  100SAPS   C2910060   1.179   3.427   7.664  0.2990 -0.5967 -0.3798
  100SAPS   H9R10061   1.153   3.389   7.764 -0.6053  0.4493 -0.2087
  100SAPS  C21010062   1.082   3.524   7.599 -0.3184  0.5496 -0.2467
  100SAPS  H10R10063   1.088   3.538   7.489  1.1742  0.2523 -0.2143
  100SAPS  H10S10064   1.095   3.626   7.639  2.8358  0.6569 -1.2940
  100SAPS  C21110065   0.939   3.488   7.632 -0.1585  0.1265  0.8411
  100SAPS  H11R10066   0.893   3.430   7.551  2.0016 -2.8901  1.5573
  100SAPS  C21210067   0.859   3.516   7.735 -0.0793 -0.5158 -0.1915
  100SAPS  H12R10068   0.757   3.475   7.742 -0.8741  1.4984  0.8498
  100SAPS  C21310069   0.904   3.587   7.860  0.3071  1.2646 -0.0167
  100SAPS  H13R10070   0.820   3.642   7.906  0.9901  3.1444 -0.9007
  100SAPS  H13S10071   0.984   3.658   7.829  0.8555  1.0797  0.9118
  100SAPS  C21410072   0.978   3.492   7.954  0.0005 -0.4249 -0.4016
  100SAPS  H14R10073   1.085   3.514   7.966 -0.2188  0.4900 -0.1027
  100SAPS  C21510074   0.932   3.377   8.013  0.4469 -0.0108  0.4094
  100SAPS  H15R10075   1.000   3.333   8.087  0.5218  3.2410  2.4414
  100SAPS  C21610076   0.794   3.318   8.003  0.3861 -0.0045 -0.6407
  100SAPS  H16R10077   0.795   3.221   7.949 -0.7600 -1.9043  2.4816
  100SAPS  H16S10078   0.725   3.383   7.945  0.6895  1.1793  0.2720
  100SAPS  C21710079   0.748   3.300   8.147  0.0386  0.0730 -0.4793
  100SAPS  H17R10080   0.768   3.391   8.207  1.5115 -2.0539  2.5276
  100SAPS  H17S10081   0.810   3.217   8.189  1.5374  1.2975 -0.1791
  100SAPS  C21810082   0.607   3.268   8.164  0.1372 -0.1711  0.5958
  100SAPS  H18R10083   0.584   3.177   8.104 -0.4673  0.5297 -0.2634
  100SAPS  H18S10084   0.554   3.359   8.128  2.5550  0.4991 -1.6629
  100SAPS  C21910085   0.562   3.245   8.303  0.2833 -0.1377 -0.6075
  100SAPS  H19R10086   0.587   3.338   8.358  0.1783 -1.7139  2.2979
  100SAPS  H19S10087   0.629   3.165   8.343  2.1681  1.0900 -1.1903
  100SAPS  C22010088   0.411   3.220   8.323  0.0520 -0.2807  0.2007
  100SAPS  H20R10089   0.389   3.187   8.426 -0.2726  0.9518  0.5382
  100SAPS  H20S10090   0.376   3.135   8.261  2.9487 -0.5800 -1.2272
  100SAPS  H20T10091   0.355   3.311   8.293 -0.4592  0.3753  2.9310
  100SAPS   C3310092   1.184   4.139   7.129  0.2853 -0.5544  0.0048
  100SAPS   H3X10093   1.073   4.132   7.123  0.2117  1.0896 -1.5222
  100SAPS   H3Y10094   1.220   4.240   7.157 -0.6936  1.2743 -4.4249
  100SAPS   C3410095   1.245   4.034   7.227  0.1900  0.0652  0.2885
  100SAPS   H4X10096   1.356   4.041   7.232  0.2289 -0.3675  0.1603
  100SAPS   H4Y10097   1.220   3.929   7.198 -1.8216  0.4609  0.4864
  100SAPS   C3510098   1.183   4.057   7.365  0.5330 -0.1877 -0.6281
  100SAPS   H5X10099   1.076   4.034   7.352  0.0224  2.0176 -0.7642
  100SAPS   H5Y10100   1.180   4.166   7.387 -2.2053 -0.6806  1.9733
  100SAPS   C3610101   1.243   3.966   7.468  0.0418  0.1863  0.1528
  100SAPS   H6X10102   1.352   3.984   7.477  0.6899 -3.0009 -0.0619
  100SAPS   H6Y10103   1.233   3.870   7.412  1.7208  1.3081 -2.2628
  100SAPS   C3710104   1.176   3.974   7.607 -0.4290  0.2853 -0.4286
  100SAPS   H7X10105   1.068   3.947   7.600  0.3380 -3.7036  0.6299
  100SAPS   H7Y10106   1.176   4.078   7.647  0.2587 -0.5255  1.8997
  100SAPS   C3810107   1.249   3.879   7.707 -0.5761 -0.0310 -0.1999
  100SAPS   H8X10108   1.355   3.912   7.714 -0.6836  0.7920 -1.8434
  100SAPS   H8Y10109   1.257   3.779   7.659 -3.1705  0.5393 -2.0581
  100SAPS   C3910110   1.179   3.881   7.850 -0.5776  0.5563  0.4532
  100SAPS   H9X10111   1.075   3.842   7.859  0.4127 -3.2390 -2.1918
  100SAPS   H9Y10112   1.175   3.986   7.885 -0.3800  0.1238  1.8175
  100SAPS  C31010113   1.255   3.794   7.949  0.0177 -0.1773 -0.1664
  100SAPS  H10X10114   1.365   3.810   7.936  0.1809 -0.0895  1.2502
  100SAPS  H10Y10115   1.234   3.689   7.920 -0.4800 -0.2215  0.3576
  100SAPS  C31110116   1.200   3.817   8.091 -0.2728 -0.2822 -0.2243
  100SAPS  H11X10117   1.215   3.926   8.106  2.0758 -0.5614 -0.2044
  100SAPS  H11Y10118   1.263   3.763   8.165 -0.9844 -0.5644  0.1939
  100SAPS  C31210119   1.058   3.780   8.133 -0.1700 -0.1877  0.5512
  100SAPS  H12X10120   1.045   3.677   8.095  1.2930 -0.0659 -0.3277
  100SAPS  H12Y10121   0.986   3.852   8.087  0.0319  0.0961  0.6744
  100SAPS  C31310122   1.038   3.777   8.290 -0.4311 -0.2067 -0.1971
  100SAPS  H13X10123   1.035   3.881   8.326  1.8925 -0.3510  0.6011
  100SAPS  H13Y10124   1.130   3.733   8.336  0.3933  1.0855 -0.5501
  100SAPS  C31410125   0.915   3.693   8.341 -0.9223  0.2592 -0.3400
  100SAPS  H14X10126   0.930   3.687   8.451 -2.1022  1.7548 -0.0642
  100SAPS  H14Y10127   0.907   3.592   8.295 -2.0970  0.0310  0.3034
  100SAPS  C31510128   0.777   3.762   8.308  0.6084  0.2980  0.0218
  100SAPS  H15X10129   0.771   3.786   8.200  0.7342 -1.3815 -0.3868
  100SAPS  H15Y10130   0.777   3.853   8.372 -0.9576  0.4755 -0.1784
  100SAPS  C31610131   0.653   3.672   8.355 -0.0875 -0.3672 -0.1655
  100SAPS  H16X10132   0.688   3.623   8.449  1.6130 -2.8613 -1.9609
  100SAPS  H16Y10133   0.625   3.589   8.286 -3.7678 -1.9929  2.8789
  100SAPS  C31710134   0.529   3.755   8.372  0.3007  0.5613 -0.3469
  100SAPS  H17X10135   0.493   3.787   8.272 -2.9719 -2.2742 -0.2745
  100SAPS  H17Y10136   0.551   3.848   8.429 -0.6735 -0.2625  1.4602
  100SAPS  C31810137   0.407   3.673   8.431 -0.9143  0.3849  0.4317
  100SAPS  H18X10138   0.441   3.626   8.526  1.2391 -0.7153 -0.8271
  100SAPS  H18Y10139   0.390   3.590   8.359 -1.2026  2.2185 -1.7258
  100SAPS  H18Z10140   0.315   3.729   8.458 -1.2892  0.2081 -0.4469
  101OSM      N10141   5.361   2.727  11.093  0.3767  0.2410 -0.4521
  101OSM    C1510142   5.446   2.837  11.147  0.2967  0.4624  0.2482
  101OSM   H15A10143   5.426   2.925  11.088 -0.7185 -0.9636 -1.6637
  101OSM   H15B10144   5.548   2.800  11.150 -0.3880 -1.5241  0.8401
  101OSM   H15C10145   5.422   2.864  11.248  0.0059  2.6077 -0.3493
  101OSM    C1410146   5.383   2.597  11.169  0.5315 -0.5561 -0.5245
  101OSM   H14A10147   5.484   2.564  11.152  1.2456  0.5030  1.2569
  101OSM   H14B10148   5.310   2.527  11.133 -0.6912 -0.5381  1.7312
  101OSM   H14C10149   5.363   2.611  11.275 -3.7155 -2.6267 -0.8719
  101OSM    C1310150   5.213   2.768  11.096  0.3404  0.1554  0.4772
  101OSM   H13A10151   5.184   2.781  11.199 -1.6076  2.4103 -0.2758
  101OSM   H13B10152   5.155   2.683  11.064  1.4745 -1.5266  2.5651
  101OSM   H13C10153   5.196   2.858  11.040 -0.8489  1.6767  3.0995
  101OSM    C1210154   5.392   2.692  10.951  0.3360  0.3185 -0.2980
  101OSM   H12A10155   5.306   2.630  10.933  0.6178 -1.4219  3.5525
  101OSM   H12B10156   5.476   2.628  10.931 -3.0542 -4.7367 -0.2532
  101OSM    C1110157   5.412   2.808  10.860  0.5561  0.2049  0.8390
  101OSM   H11A10158   5.337   2.880  10.898  0.4568 -1.1797  3.4915
  101OSM   H11B10159   5.394   2.784  10.753  0.9097 -0.0762  0.8409
  101OSM      P10160   5.657   2.836  10.789 -0.3629 -0.3247  0.2332
  101OSM    O1310161   5.774   2.918  10.836  0.6016 -0.0166 -0.0175
  101OSM    O1410162   5.685   2.692  10.787 -0.1350  0.0886 -0.4526
  101OSM    O1110163   5.624   2.897  10.648  0.5562 -0.4292 -0.1413
  101OSM    O1210164   5.537   2.876  10.882  0.2819 -0.4020 -0.1332
  101OSM    C1S10165   5.556   3.017  10.617 -0.6666 -0.4966 -0.0523
  101OSM    H1S10166   5.630   3.094  10.649  3.2599 -4.2275  0.6752
  101OSM    H1T10167   5.456   3.017  10.666 -0.1772 -0.5652  0.9560
  101OSM     NF10168   5.478   3.164  10.440 -0.8469  0.2803  0.1327
  101OSM    HNF10169   5.380   3.179  10.435 -0.9710 -0.6168 -0.4614
  101OSM    C2S10170   5.535   3.034  10.467 -0.0638  0.7666 -0.3692
  101OSM    H2S10171   5.630   3.031  10.410 -0.0372 -0.5288 -0.2839
  101OSM    C3S10172   5.438   2.924  10.426  0.5264 -0.6142  0.1154
  101OSM    H3S10173   5.340   2.923  10.479  0.3475 -3.2954 -0.0884
  101OSM     O310174   5.485   2.802  10.468 -0.1179 -0.1618  0.2162
  101OSM    HO310175   5.544   2.822  10.540  2.6245 -3.0046 -1.0228
  101OSM    C4S10176   5.400   2.922  10.274 -0.9858 -0.5579  0.0770
  101OSM    H4S10177   5.304   2.973  10.257 -1.5070 -2.0651 -1.8148
  101OSM    C5S10178   5.480   2.876  10.171  0.1080 -1.5382  0.0921
  101OSM    H5S10179   5.582   2.839  10.190  0.9005  0.8962  0.9577
  101OSM    C6S10180   5.461   2.882  10.026  0.5662 -0.3686  0.2576
  101OSM    H6S10181   5.437   2.782   9.983  0.0993  0.3578 -1.2372
  101OSM    H6T10182   5.560   2.915   9.987  0.3590  1.6551  1.3259
  101OSM    C7S10183   5.358   2.986   9.971  0.1978 -0.2748  0.0294
  101OSM    H7S10184   5.372   3.086  10.017 -0.0438 -0.2692  0.0889
  101OSM    H7T10185   5.252   2.961   9.991 -0.0451  0.8449  0.2567
  101OSM    C8S10186   5.382   3.020   9.825 -0.0222 -0.2018 -0.4593
  101OSM    H8S10187   5.481   3.069   9.821 -1.0807  2.1057  0.1096
  101OSM    H8T10188   5.302   3.083   9.781 -0.9167 -1.3106 -0.4775
  101OSM    C9S10189   5.394   2.893   9.740  0.3508 -0.2373 -0.5061
  101OSM    H9S10190   5.318   2.815   9.765 -0.6053 -0.1331 -2.8011
  101OSM    H9T10191   5.495   2.850   9.753  1.1913  2.2112  1.7782
  101OSM   C10S10192   5.373   2.919   9.593  0.9929  0.6281  0.4486
  101OSM   H10S10193   5.427   3.009   9.556  0.1658  0.5166 -1.1068
  101OSM   H10T10194   5.269   2.939   9.560  1.1555 -0.8193 -1.0380
  101OSM   C11S10195   5.398   2.798   9.498 -0.0794  0.6660  1.2026
  101OSM   H11S10196   5.326   2.721   9.533 -1.4140  0.8974 -0.8552
  101OSM   H11T10197   5.505   2.770   9.502 -0.1373 -0.2728 -1.5764
  101OSM   C12S10198   5.379   2.832   9.349 -0.2247 -0.3984 -0.0597
  101OSM   H12S10199   5.459   2.907   9.333  1.5689 -2.3981 -0.7097
  101OSM   H12T10200   5.280   2.876   9.322 -0.2548 -0.4806 -0.0832
  101OSM   C13S10201   5.418   2.708   9.264 -0.2496  0.4252 -0.5175
  101OSM   H13S10202   5.340   2.634   9.292  0.4579 -1.2490 -2.6383
  101OSM   H13T10203   5.518   2.678   9.301 -1.2278 -1.8145  0.4898
  101OSM   C14S10204   5.407   2.744   9.117  0.0779  0.3368  0.7378
  101OSM   H14S10205   5.482   2.821   9.090 -0.4158  1.0951  1.4928
  101OSM   H14T10206   5.302   2.780   9.113 -0.5029 -0.9713  2.7325
  101OSM   C15S10207   5.432   2.614   9.029  0.5668 -0.3141  0.2528
  101OSM   H15S10208   5.400   2.644   8.927  1.4457 -0.9267 -0.2131
  101OSM   H15T10209   5.380   2.527   9.074  1.0023 -0.1064  1.1956
  101OSM   C16S10210   5.591   2.582   9.010  0.6626  0.5657  0.2752
  101OSM   H16S10211   5.628   2.540   9.106  1.4312  1.1660  0.2499
  101OSM   H16T10212   5.655   2.668   8.982  2.4603 -0.3317  1.3865
  101OSM   C17S10213   5.599   2.470   8.904  0.1882  0.1772  0.5459
  101OSM   H17S10214   5.549   2.513   8.814 -0.3049 -0.1621  0.6513
  101OSM   H17T10215   5.543   2.380   8.938 -2.1427  0.2425 -2.6015
  101OSM   C18S10216   5.744   2.436   8.861  0.1881  0.1130  0.1069
  101OSM   H18S10217   5.738   2.376   8.767  2.0814  0.8087 -0.4905
  101OSM   H18T10218   5.796   2.385   8.945 -0.7424 -1.6322 -0.3263
  101OSM   H18U10219   5.800   2.527   8.830 -1.6870  0.8435 -1.3911
  101OSM    C1F10220   5.549   3.278  10.431 -0.1091 -0.6895  0.0846
  101OSM     OF10221   5.663   3.282  10.467  0.2776  0.3280 -0.0261
  101OSM    C2F10222   5.475   3.404  10.384  0.6556  0.4706 -0.4125
  101OSM    H2F10223   5.509   3.496  10.435  1.1348  0.7310 -1.1772
  101OSM    H2G10224   5.367   3.380  10.389  0.3480  1.7581 -0.5637
  101OSM    C3F10225   5.499   3.443  10.241  1.2260 -0.2824  0.7838
  101OSM    H3F10226   5.593   3.501  10.232  0.1511  1.6843  1.6025
  101OSM    H3G10227   5.425   3.519  10.210 -0.5756 -2.0042  0.6387
  101OSM    C4F10228   5.506   3.332  10.136 -0.4589  0.5487  0.1597
  101OSM    H4F10229   5.409   3.283  10.112  0.9394 -1.6567 -1.4174
  101OSM    H4G10230   5.581   3.255  10.165 -0.0067 -0.2498 -2.7466
  101OSM    C5F10231   5.564   3.379  10.005  0.6332 -0.4958 -0.0397
  101OSM    H5F10232   5.573   3.295   9.933 -3.7794 -0.5259 -0.8066
  101OSM    H5G10233   5.668   3.417  10.014 -0.1194  1.3511  1.8044
  101OSM    C6F10234   5.481   3.502   9.939  0.1919 -0.1638 -0.1968
  101OSM    H6F10235   5.500   3.593  10.000  3.6522 -0.1893 -1.0384
  101OSM    H6G10236   5.375   3.475   9.957  0.0264  0.4790 -0.2098
  101OSM    C7F10237   5.512   3.519   9.788 -0.4702 -0.0458 -0.0662
  101OSM    H7F10238   5.619   3.548   9.790 -0.4708 -0.0528  0.3061
  101OSM    H7G10239   5.442   3.600   9.759  0.1482  0.9893  1.1843
  101OSM    C8F10240   5.491   3.420   9.683 -0.1186 -0.0811  0.0277
  101OSM    H8F10241   5.561   3.338   9.708 -0.9950 -1.1220 -0.8470
  101OSM    H8G10242   5.515   3.461   9.582 -0.8565 -1.1833 -0.6094
  101OSM    C9F10243   5.347   3.376   9.678  0.5517  0.4839 -0.7194
  101OSM    H9F10244   5.297   3.351   9.773  0.6948 -1.5916 -1.1322
  101OSM   C10F10245   5.277   3.344   9.565  0.2785  0.4849  0.0882
  101OSM   H10F10246   5.178   3.297   9.568  0.8190 -0.7351 -0.3318
  101OSM   C11F10247   5.318   3.349   9.420  0.1835  0.1901  0.0699
  101OSM   H11F10248   5.422   3.386   9.406  0.8532 -1.0472  1.5527
  101OSM   H11G10249   5.256   3.420   9.361 -1.2263 -1.2383 -0.2298
  101OSM   C12F10250   5.300   3.218   9.343  0.5202  0.5367 -0.1463
  101OSM   H12F10251   5.192   3.195   9.334  0.7307 -2.1205  2.4791
  101OSM   H12G10252   5.344   3.131   9.395 -1.7578 -0.2329  0.6043
  101OSM   C13F10253   5.359   3.212   9.197 -0.1194 -0.2096  0.0522
  101OSM   H13F10254   5.398   3.109   9.180  1.8236  0.1848  1.7005
  101OSM   H13G10255   5.453   3.272   9.200 -0.8971  1.0308  0.6330
  101OSM   C14F10256   5.257   3.240   9.093 -0.2072  0.1610 -0.3991
  101OSM   H14F10257   5.203   3.335   9.110 -0.3956  0.1468 -0.9137
  101OSM   H14G10258   5.177   3.167   9.118 -1.0026  0.7217 -1.2677
  101OSM   C15F10259   5.292   3.228   8.945 -0.2069 -0.6660 -0.4641
  101OSM   H15F10260   5.307   3.121   8.918 -0.3171 -1.0824  1.0387
  101OSM   H15G10261   5.391   3.276   8.933 -1.4671  2.1989 -0.2887
  101OSM   C16F10262   5.188   3.301   8.860 -0.4503  0.2565 -0.5534
  101OSM   H16F10263   5.195   3.407   8.893  4.3188  0.2448 -0.8542
  101OSM   H16G10264   5.089   3.264   8.894 -1.0774  3.1567  1.1209
  101OSM   C17F10265   5.212   3.291   8.714  0.0681 -0.0583  0.4174
  101OSM   H17F10266   5.207   3.184   8.684 -1.9382  0.2108 -0.3755
  101OSM   H17G10267   5.317   3.325   8.708 -0.3907  1.1420 -1.5796
  101OSM   C18F10268   5.128   3.386   8.626  0.1440  0.5388  0.9126
  101OSM   H18F10269   5.044   3.424   8.687  0.0508  0.6948  0.6905
  101OSM   H18G10270   5.087   3.334   8.536  4.0005  3.3943 -2.9184
  101OSM   H18H10271   5.182   3.473   8.583  0.0302  0.0629 -0.2538
  102OSM      N10272   4.873   3.588  11.030  0.3987  0.0335 -0.3691
  102OSM    C1510273   4.758   3.636  11.114 -0.1381 -0.0448 -0.4461
  102OSM   H15A10274   4.702   3.709  11.058  0.2785 -0.0198 -0.8313
  102OSM   H15B10275   4.788   3.693  11.201 -3.7992  0.7340  0.4753
  102OSM   H15C10276   4.687   3.561  11.146  0.6999 -0.1762  1.2745
  102OSM    C1410277   4.957   3.703  10.996  0.3629 -0.0132 -0.4168
  102OSM   H14A10278   5.053   3.664  10.968 -0.0144 -0.7136 -0.7456
  102OSM   H14B10279   4.964   3.768  11.083  1.0174 -0.6769  0.0362
  102OSM   H14C10280   4.912   3.752  10.911 -2.2076 -2.1753 -0.4599
  102OSM    C1310281   4.951   3.499  11.113 -0.4932  0.4694 -0.8244
  102OSM   H13A10282   5.036   3.455  11.062  0.3768 -1.2389  1.8475
  102OSM   H13B10283   4.891   3.413  11.142  1.1149  0.6468  3.9925
  102OSM   H13C10284   4.985   3.547  11.204  1.0887 -0.6638 -0.7797
  102OSM    C1210285   4.827   3.513  10.904 -0.8737  0.0361  0.0680
  102OSM   H12A10286   4.763   3.577  10.847 -2.4886 -0.7391  0.9385
  102OSM   H12B10287   4.771   3.425  10.932  1.1041  0.0524  5.1479
  102OSM    C1110288   4.941   3.467  10.811  0.5374  0.0787  0.1115
  102OSM   H11A10289   5.023   3.537  10.782 -0.5610  0.4672 -2.2174
  102OSM   H11B10290   4.891   3.451  10.713 -0.2487 -0.0686  0.5301
  102OSM      P10291   4.944   3.213  10.833  0.5690  0.0124 -0.1685
  102OSM    O1310292   5.027   3.117  10.906  0.4037  0.6159  0.2061
  102OSM    O1410293   4.798   3.205  10.850 -1.1483  0.1853  0.0692
  102OSM    O1110294   4.985   3.197  10.686  0.1260  0.3614 -0.0662
  102OSM    O1210295   5.001   3.352  10.868 -0.3462  0.0420 -0.2442
  102OSM    C1S10296   4.934   3.090  10.600  0.6013 -0.2449 -0.6852
  102OSM    H1S10297   4.829   3.064  10.625  1.0040 -1.6676 -0.3885
  102OSM    H1T10298   4.987   2.994  10.617  0.8645 -0.0358 -0.3166
  102OSM     NF10299   4.860   3.027  10.364  0.3270 -0.0524  0.2388
  102OSM    HNF10300   4.910   2.965  10.304  2.5673 -0.1989  2.1117
  102OSM    C2S10301   4.932   3.124  10.443 -0.0778  0.0162 -0.5402
  102OSM    H2S10302   4.884   3.223  10.430  1.2857  0.6858 -0.6725
  102OSM    C3S10303   5.078   3.141  10.397  0.4984 -0.0240  0.2460
  102OSM    H3S10304   5.132   3.046  10.412 -0.2042 -0.6857 -1.2223
  102OSM     O310305   5.163   3.229  10.469 -0.2450  0.1888 -0.4332
  102OSM    HO310306   5.112   3.239  10.550  0.1996  0.1926 -0.1470
  102OSM    C4S10307   5.087   3.170  10.248 -0.5037 -0.2914  0.1888
  102OSM    H4S10308   5.115   3.078  10.194  0.3449  0.3561 -0.5155
  102OSM    C5S10309   5.062   3.282  10.182 -0.4723  0.9078  0.3891
  102OSM    H5S10310   5.019   3.373  10.225  1.9585  0.5264  4.0445
  102OSM    C6S10311   5.076   3.298  10.032  0.1812 -0.4525 -0.1826
  102OSM    H6S10312   5.173   3.264   9.988  0.2186 -0.4537 -0.1014
  102OSM    H6T10313   5.078   3.406  10.009  1.9268 -0.4457 -0.1569
  102OSM    C7S10314   4.958   3.236   9.951 -0.3405 -0.2340 -0.3728
  102OSM    H7S10315   4.861   3.279   9.983 -0.4203 -0.0460 -0.8635
  102OSM    H7T10316   4.966   3.128   9.979  2.2189 -0.0614 -0.1845
  102OSM    C8S10317   4.968   3.255   9.800 -1.0034  0.1075 -0.5023
  102OSM    H8S10318   5.045   3.192   9.750 -0.8169  0.5520 -0.7807
  102OSM    H8T10319   4.987   3.362   9.777  0.5594 -0.4441 -2.0365
  102OSM    C9S10320   4.841   3.220   9.721  0.2451  0.2789  0.5666
  102OSM    H9S10321   4.756   3.287   9.745 -2.1013 -2.0451 -0.7091
  102OSM    H9T10322   4.808   3.116   9.744  0.7272  0.1116  0.5114
  102OSM   C10S10323   4.866   3.219   9.569  0.0794  0.2660  0.2243
  102OSM   H10S10324   4.779   3.172   9.519  2.3712 -0.4413 -3.4581
  102OSM   H10T10325   4.949   3.152   9.539 -2.9131 -3.4192 -0.4265
  102OSM   C11S10326   4.886   3.351   9.505  0.7483  0.1280 -0.3071
  102OSM   H11S10327   4.971   3.403   9.554  2.2265 -1.4374 -1.0753
  102OSM   H11T10328   4.794   3.412   9.510  0.4459 -0.3607  0.4093
  102OSM   C12S10329   4.912   3.337   9.355 -0.2098 -0.0852 -0.1545
  102OSM   H12S10330   4.831   3.284   9.301  0.4409 -1.0002 -0.2488
  102OSM   H12T10331   5.008   3.283   9.348 -0.1283 -0.2076  1.5654
  102OSM   C13S10332   4.927   3.473   9.297  1.1163  0.4843 -0.0739
  102OSM   H13S10333   5.026   3.517   9.322  1.5535  0.6601 -1.9811
  102OSM   H13T10334   4.845   3.540   9.330  0.4453 -0.7555  0.8512
  102OSM   C14S10335   4.910   3.462   9.139 -0.3361  0.2706 -0.2243
  102OSM   H14S10336   4.813   3.419   9.107 -0.3633  1.0685 -1.2509
  102OSM   H14T10337   4.991   3.396   9.100  0.0272 -2.1111  3.9391
  102OSM   C15S10338   4.923   3.601   9.080  0.1950  0.3050 -0.3321
  102OSM   H15S10339   4.999   3.658   9.138  0.2613  0.2523 -0.3682
  102OSM   H15T10340   4.831   3.663   9.082  0.9446  1.6693 -3.1602
  102OSM   C16S10341   4.973   3.609   8.932 -0.1253  0.6734 -0.4166
  102OSM   H16S10342   4.939   3.515   8.883  2.7641  0.2282 -1.7876
  102OSM   H16T10343   5.084   3.617   8.922  0.0071  0.1192  0.4293
  102OSM   C17S10344   4.918   3.731   8.852 -0.6224  0.5308 -0.6078
  102OSM   H17S10345   4.955   3.832   8.882 -1.5191  0.8933 -0.7117
  102OSM   H17T10346   4.808   3.741   8.856 -0.6762 -0.4174  1.2224
  102OSM   C18S10347   4.960   3.714   8.706 -0.4576 -0.0519  0.0661
  102OSM   H18S10348   4.947   3.810   8.650  0.6240 -0.5313 -1.0516
  102OSM   H18T10349   4.903   3.633   8.655 -0.5509 -0.4378  0.7746
  102OSM   H18U10350   5.069   3.695   8.693 -0.7562 -1.7868 -0.0944
  102OSM    C1F10351   4.726   3.026  10.360 -0.3061 -0.3942  0.4758
  102OSM     OF10352   4.655   3.065  10.449 -0.4067 -0.2750  0.4901
  102OSM    C2F10353   4.673   2.992  10.226 -0.5580 -0.8775  0.2851
  102OSM    H2F10354   4.652   2.883  10.223  1.2068 -1.2796  1.1105
  102OSM    H2G10355   4.750   3.008  10.147 -0.8239  0.7719  0.3397
  102OSM    C3F10356   4.543   3.078  10.198  0.4525 -0.0572  0.1780
  102OSM    H3F10357   4.564   3.187  10.196  0.7579 -0.1202 -0.8250
  102OSM    H3G10358   4.470   3.054  10.278 -2.0302  0.0333 -1.9529
  102OSM    C4F10359   4.476   3.038  10.065  0.4305 -0.5988  1.1320
  102OSM    H4F10360   4.382   3.088  10.034  1.7588  0.7745 -0.9449
  102OSM    H4G10361   4.437   2.935  10.077 -2.4811  0.2847  0.0561
  102OSM    C5F10362   4.560   3.064   9.940 -0.4124 -0.0362  0.3128
  102OSM    H5F10363   4.658   3.013   9.950 -0.6194 -0.2112  1.5946
  102OSM    H5G10364   4.584   3.172   9.947  2.2926 -0.5150 -0.5069
  102OSM    C6F10365   4.479   3.045   9.812  0.6032 -0.2046  0.9097
  102OSM    H6F10366   4.549   3.077   9.732  1.9024  1.0359  2.4555
  102OSM    H6G10367   4.392   3.113   9.818 -0.1611 -1.0637 -0.1856
  102OSM    C7F10368   4.425   2.905   9.779  0.2113  0.2179 -0.5116
  102OSM    H7F10369   4.359   2.873   9.862  2.6647 -2.6484  0.4926
  102OSM    H7G10370   4.510   2.833   9.786  0.0891  0.1107 -0.1260
  102OSM    C8F10371   4.349   2.891   9.647  0.1934  0.3962  0.1119
  102OSM    H8F10372   4.255   2.949   9.640 -0.3501 -0.6025 -1.2401
  102OSM    H8G10373   4.307   2.788   9.646 -1.5324  0.9119  3.8831
  102OSM    C9F10374   4.432   2.944   9.530  0.0433 -0.1714 -0.0930
  102OSM    H9F10375   4.433   3.053   9.514  1.3643 -0.2491 -0.6377
  102OSM   C10F10376   4.494   2.869   9.430  0.3668 -0.2436 -0.1865
  102OSM   H10F10377   4.545   2.925   9.351 -0.0154  0.6102  0.1565
  102OSM   C11F10378   4.496   2.721   9.418  0.1146 -0.3502 -0.1814
  102OSM   H11F10379   4.416   2.686   9.487  1.2784 -1.6059  0.5817
  102OSM   H11G10380   4.595   2.688   9.455  1.5898  2.7902 -1.0214
  102OSM   C12F10381   4.465   2.667   9.274 -0.6662 -0.2696 -0.2597
  102OSM   H12F10382   4.446   2.557   9.278  1.4887 -0.7323 -1.5299
  102OSM   H12G10383   4.540   2.708   9.204 -0.5332  1.7302  0.9927
  102OSM   C13F10384   4.327   2.711   9.223 -0.7227  0.1716 -0.1899
  102OSM   H13F10385   4.317   2.822   9.219 -2.6335  0.1453  1.7024
  102OSM   H13G10386   4.257   2.653   9.286  0.4820 -3.0054 -1.5918
  102OSM   C14F10387   4.307   2.662   9.076 -0.0087 -0.2352  0.2236
  102OSM   H14F10388   4.334   2.554   9.074  1.3626  0.0740  0.9212
  102OSM   H14G10389   4.379   2.711   9.006  0.2677 -1.2653 -0.2307
  102OSM   C15F10390   4.164   2.674   9.040  0.1756  0.6523  0.2669
  102OSM   H15F10391   4.133   2.780   9.027  1.1316  0.9389  0.2718
  102OSM   H15G10392   4.111   2.640   9.132  0.6457  1.2931  0.7791
  102OSM   C16F10393   4.117   2.591   8.924 -0.0292  0.0748 -0.1807
  102OSM   H16F10394   4.144   2.492   8.965  2.7818  1.1800  0.8743
  102OSM   H16G10395   4.178   2.611   8.834 -2.2002  1.1459 -1.5167
  102OSM   C17F10396   3.965   2.598   8.894  0.3986 -0.2816 -0.5077
  102OSM   H17F10397   3.914   2.584   8.992 -2.7452  2.2978 -1.5915
  102OSM   H17G10398   3.935   2.511   8.830 -1.8144  1.3254 -1.8033
  102OSM   C18F10399   3.913   2.723   8.823 -0.6222 -1.1871  0.2347
  102OSM   H18F10400   3.949   2.723   8.718  1.1403  3.7300  0.5701
  102OSM   H18G10401   3.948   2.815   8.874 -1.4183 -1.4770  1.3376
  102OSM   H18H10402   3.802   2.715   8.817 -0.6397 -2.1437  1.5632
  103OSM      N10403   6.770   5.606  11.217 -0.1460 -0.3616  0.0246
  103OSM    C1510404   6.718   5.751  11.221 -0.3061  0.5908  0.2697
  103OSM   H15A10405   6.746   5.796  11.315  2.2663  0.4622 -0.3527
  103OSM   H15B10406   6.610   5.749  11.222 -0.3231  1.4862  0.7985
  103OSM   H15C10407   6.747   5.819  11.143  0.2583  0.4179  0.3233
  103OSM    C1410408   6.923   5.611  11.201 -0.5049  0.0272 -0.3662
  103OSM   H14A10409   6.963   5.653  11.292  0.9055 -0.1647 -0.8841
  103OSM   H14B10410   6.943   5.666  11.111 -2.0822  2.0972  0.4731
  103OSM   H14C10411   6.956   5.509  11.186 -0.8018  0.1370 -1.9987
  103OSM    C1310412   6.725   5.544  11.349  0.2872  0.4692 -0.2449
  103OSM   H13A10413   6.764   5.444  11.363  0.8187  0.7170  0.0733
  103OSM   H13B10414   6.617   5.548  11.349  0.3013  0.8501 -0.0061
  103OSM   H13C10415   6.766   5.598  11.433  3.2992 -1.6877 -0.1584
  103OSM    C1210416   6.712   5.528  11.101  0.5362 -0.7884 -0.2176
  103OSM   H12A10417   6.782   5.513  11.020 -1.2022  0.3902 -2.0242
  103OSM   H12B10418   6.639   5.594  11.057  1.9936  1.1564  0.0959
  103OSM    C1110419   6.641   5.390  11.137  0.5249 -0.6676 -0.1577
  103OSM   H11A10420   6.718   5.338  11.199  2.8258  0.9067 -1.5374
  103OSM   H11B10421   6.613   5.332  11.046 -3.4093  0.3783  0.2107
  103OSM      P10422   6.392   5.485  11.153  0.2770 -0.0718  0.0922
  103OSM    O1310423   6.287   5.440  11.238 -0.0567 -0.5385 -0.1873
  103OSM    O1410424   6.423   5.628  11.141 -0.4244  0.0186 -0.0901
  103OSM    O1110425   6.367   5.424  11.015  0.2226  0.2915 -0.0370
  103OSM    O1210426   6.519   5.404  11.214  0.8047  0.3199  0.3809
  103OSM    C1S10427   6.242   5.446  10.953 -0.0200 -0.1778 -0.2626
  103OSM    H1S10428   6.217   5.554  10.941  1.1167 -0.1112 -2.6554
  103OSM    H1T10429   6.167   5.390  11.013  0.3725 -0.4441 -0.0170
  103OSM     NF10430   6.096   5.403  10.770  0.2290 -0.2024  0.5213
  103OSM    HNF10431   6.042   5.321  10.752  0.4121 -0.0464 -0.8134
  103OSM    C2S10432   6.228   5.386  10.810 -0.1955 -0.0216 -0.0511
  103OSM    H2S10433   6.291   5.437  10.734  2.2966 -2.6049  0.0860
  103OSM    C3S10434   6.285   5.237  10.810  0.1837 -0.2737 -0.5134
  103OSM    H3S10435   6.236   5.172  10.886  0.1537 -0.1500 -0.4253
  103OSM     O310436   6.416   5.218  10.864 -0.2519 -0.4396  0.1317
  103OSM    HO310437   6.425   5.293  10.923 -0.0652 -0.7843  0.5529
  103OSM    C4S10438   6.296   5.186  10.672  0.1082  0.1203  0.1123
  103OSM    H4S10439   6.381   5.228  10.617  0.4582  0.5337  0.9594
  103OSM    C5S10440   6.205   5.104  10.612 -0.1305  0.1391 -0.0117
  103OSM    H5S10441   6.130   5.058  10.678  1.7464  0.5552  2.5458
  103OSM    C6S10442   6.210   5.039  10.472 -0.1347  0.6027  0.4881
  103OSM    H6S10443   6.139   5.084  10.399 -0.1299  0.8223  0.6186
  103OSM    H6T10444   6.182   4.933  10.491  0.8488  0.7744  3.3944
  103OSM    C7S10445   6.340   5.049  10.397 -0.6847 -0.0223 -0.1312
  103OSM    H7S10446   6.407   4.994  10.467  1.9385  0.5452 -2.0260
  103OSM    H7T10447   6.378   5.153  10.397 -0.3018 -0.0888  2.9267
  103OSM    C8S10448   6.348   4.976  10.263 -0.2662 -0.0425 -0.0617
  103OSM    H8S10449   6.289   5.023  10.182 -0.7033  0.3210  0.4607
  103OSM    H8T10450   6.320   4.870  10.282 -0.6660  0.0618 -0.0509
  103OSM    C9S10451   6.496   4.966  10.208  0.8957 -0.3838 -0.4180
  103OSM    H9S10452   6.557   4.916  10.286  0.0049 -1.2345 -0.2530
  103OSM    H9T10453   6.536   5.070  10.204  0.4350 -0.1988 -0.3245
  103OSM   C10S10454   6.522   4.882  10.087  0.0875  0.4825  0.1108
  103OSM   H10S10455   6.496   4.776  10.106 -1.6212  1.2110  2.1404
  103OSM   H10T10456   6.633   4.880  10.075  0.1264  0.4306  0.4595
  103OSM   C11S10457   6.457   4.931   9.954 -0.3210 -0.0852 -0.7315
  103OSM   H11S10458   6.478   5.040   9.948 -1.7050  0.2173 -0.3146
  103OSM   H11T10459   6.348   4.919   9.970  0.0609  0.1311  2.8018
  103OSM   C12S10460   6.515   4.864   9.825 -0.3455 -0.2813 -0.2923
  103OSM   H12S10461   6.487   4.756   9.831 -0.1054 -0.3132  0.2832
  103OSM   H12T10462   6.625   4.862   9.842  0.0879  0.8908 -2.5159
  103OSM   C13S10463   6.483   4.943   9.695 -0.1545 -0.1240 -0.7043
  103OSM   H13S10464   6.504   5.051   9.711 -0.3602 -0.3925  1.7728
  103OSM   H13T10465   6.372   4.943   9.685 -0.4173  0.2029  1.5846
  103OSM   C14S10466   6.549   4.889   9.565 -0.4302 -0.4619  0.1975
  103OSM   H14S10467   6.518   4.782   9.555 -1.5372 -0.5632  3.4775
  103OSM   H14T10468   6.660   4.890   9.574 -0.3631  0.0033 -0.6450
  103OSM   C15S10469   6.504   4.968   9.444  0.3475 -0.0638  0.0985
  103OSM   H15S10470   6.519   5.075   9.466  3.9958 -0.0104 -1.8972
  103OSM   H15T10471   6.395   4.954   9.424  0.7817 -2.5992 -0.9092
  103OSM   C16S10472   6.589   4.929   9.324 -0.3117 -0.8612  0.1835
  103OSM   H16S10473   6.571   4.823   9.297 -2.5090 -0.0163 -2.1388
  103OSM   H16T10474   6.692   4.914   9.362 -1.0598 -0.4312  2.5544
  103OSM   C17S10475   6.602   5.030   9.197 -0.0232  0.0488 -1.3247
  103OSM   H17S10476   6.698   5.005   9.148  0.2354  0.6913 -1.1487
  103OSM   H17T10477   6.632   5.128   9.240  2.4187 -1.1792 -0.0197
  103OSM   C18S10478   6.484   5.024   9.110 -0.3664 -0.1060 -0.1580
  103OSM   H18S10479   6.517   5.053   9.008 -0.9384  2.4078  0.2936
  103OSM   H18T10480   6.395   5.080   9.146 -1.0009 -0.8792 -0.5042
  103OSM   H18U10481   6.452   4.919   9.097  2.5052 -1.2673  1.3479
  103OSM    C1F10482   6.041   5.524  10.740  0.7787  0.2202  0.0631
  103OSM     OF10483   6.109   5.624  10.756 -0.0209  0.4436 -0.3551
  103OSM    C2F10484   5.902   5.531  10.676 -0.2779  0.0153 -0.5088
  103OSM    H2F10485   5.836   5.577  10.752 -2.3866 -0.8394 -1.7312
  103OSM    H2G10486   5.864   5.430  10.648 -0.6813  0.4377 -1.5166
  103OSM    C3F10487   5.900   5.627  10.557 -0.3037  0.3316  0.4346
  103OSM    H3F10488   5.972   5.588  10.481 -2.1152  0.0115 -1.1821
  103OSM    H3G10489   5.931   5.730  10.585  0.7041  0.3454 -0.6635
  103OSM    C4F10490   5.769   5.627  10.487 -0.1776  0.1262 -0.3062
  103OSM    H4F10491   5.689   5.650  10.560  0.1435 -0.3925  0.2223
  103OSM    H4G10492   5.756   5.524  10.448  1.1430 -0.4164  0.5994
  103OSM    C5F10493   5.778   5.726  10.374  0.3489 -0.3871  0.5466
  103OSM    H5F10494   5.868   5.719  10.309 -0.5152 -0.2965 -0.6831
  103OSM    H5G10495   5.765   5.830  10.410 -2.4240 -0.5191  0.1304
  103OSM    C6F10496   5.661   5.702  10.270  0.4118  0.0509  0.4667
  103OSM    H6F10497   5.684   5.751  10.173 -2.4375  1.8580  0.5984
  103OSM    H6G10498   5.567   5.749  10.304 -2.0801 -3.5367 -0.7360
  103OSM    C7F10499   5.622   5.560  10.207  0.3926 -0.1455 -0.6388
  103OSM    H7F10500   5.533   5.567  10.142  0.4980 -1.3166 -0.9385
  103OSM    H7G10501   5.583   5.492  10.286 -0.3049 -0.4144 -1.2009
  103OSM    C8F10502   5.740   5.504  10.134  0.3456 -0.1508 -0.2735
  103OSM    H8F10503   5.819   5.492  10.211  0.4003 -0.9512 -0.4443
  103OSM    H8G10504   5.780   5.572  10.056  1.6462 -0.1126  0.4034
  103OSM    C9F10505   5.708   5.366  10.086 -0.0711 -0.0663 -0.0711
  103OSM    H9F10506   5.671   5.293  10.159 -0.8463 -0.1390 -0.5153
  103OSM   C10F10507   5.727   5.332   9.961  0.3039 -0.5814  0.5869
  103OSM   H10F10508   5.697   5.234   9.922  1.6515 -0.6241 -0.3924
  103OSM   C11F10509   5.773   5.420   9.854 -0.3459 -0.9068 -0.1900
  103OSM   H11F10510   5.883   5.414   9.868 -0.6394 -0.7064  2.8900
  103OSM   H11G10511   5.733   5.522   9.870  0.9021 -0.5877  1.0949
  103OSM   C12F10512   5.756   5.377   9.705 -0.0979 -0.2015 -0.2377
  103OSM   H12F10513   5.647   5.369   9.684 -0.9326  3.5911  1.6771
  103OSM   H12G10514   5.817   5.287   9.685 -0.4264 -0.5542  0.3241
  103OSM   C13F10515   5.815   5.480   9.611  0.5976  0.5208 -0.0611
  103OSM   H13F10516   5.754   5.571   9.630  0.7926  0.7140 -0.3499
  103OSM   H13G10517   5.915   5.495   9.657  0.4093  1.6428  0.0231
  103OSM   C14F10518   5.820   5.436   9.469 -0.4820  0.3225  0.2249
  103OSM   H14F10519   5.721   5.445   9.419  0.2262  1.1986 -1.0748
  103OSM   H14G10520   5.850   5.329   9.464 -0.5438  0.3466 -1.0772
  103OSM   C15F10521   5.903   5.531   9.393 -0.0128  0.1081 -0.2044
  103OSM   H15F10522   5.996   5.539   9.454 -1.4000  0.4123  1.9931
  103OSM   H15G10523   5.856   5.630   9.409  1.2451  0.4843  1.4565
  103OSM   C16F10524   5.926   5.498   9.246 -0.6131  0.5205 -0.0939
  103OSM   H16F10525   5.948   5.585   9.182  1.1416  1.4606  1.6728
  103OSM   H16G10526   5.830   5.454   9.212  0.1366 -1.0667 -0.2438
  103OSM   C17F10527   6.033   5.384   9.229  0.2778 -0.1673  0.3937
  103OSM   H17F10528   5.993   5.283   9.247  0.3542 -1.1044 -3.6175
  103OSM   H17G10529   6.118   5.409   9.296  0.4362  1.2673 -0.2830
  103OSM   C18F10530   6.070   5.367   9.083 -0.6171  0.4111 -0.0360
  103OSM   H18F10531   6.145   5.288   9.062  0.6724  1.0617  1.7510
  103OSM   H18G10532   6.116   5.465   9.054  1.6250  0.5493  3.3560
  103OSM   H18H10533   5.977   5.347   9.028 -0.4581 -2.0875  0.5156
  104OSM      N10534   4.746   4.164  10.549  0.2316 -0.4710 -0.1426
  104OSM    C1510535   4.670   4.246  10.455 -0.4004 -0.1235 -0.0302
  104OSM   H15A10536   4.735   4.300  10.387  1.8628 -1.3150  1.0947
  104OSM   H15B10537   4.614   4.320  10.510  2.2074  1.2703  0.9341
  104OSM   H15C10538   4.607   4.182  10.394 -0.3775 -0.5234  0.3635
  104OSM    C1410539   4.844   4.082  10.463  0.3533  0.0967 -0.8308
  104OSM   H14A10540   4.913   4.143  10.407 -0.9912  3.4315  0.8482
  104OSM   H14B10541   4.792   4.015  10.396  0.5908 -1.2997  0.3092
  104OSM   H14C10542   4.901   4.017  10.529  2.1277  1.1091 -1.3137
  104OSM    C1310543   4.823   4.242  10.651 -0.0953  0.6414  0.5675
  104OSM   H13A10544   4.852   4.177  10.732  0.8237  0.3199 -0.0009
  104OSM   H13B10545   4.750   4.313  10.688 -2.2512 -1.8447  1.3815
  104OSM   H13C10546   4.910   4.295  10.616 -0.0387  0.4935  0.4852
  104OSM    C1210547   4.655   4.073  10.631 -0.0426 -0.2789  0.3230
  104OSM   H12A10548   4.706   4.005  10.697 -3.3068 -3.7342 -0.3788
  104OSM   H12B10549   4.623   3.993  10.566 -0.0758 -0.4036  0.4926
  104OSM    C1110550   4.524   4.128  10.685 -0.0916 -0.2560 -0.0341
  104OSM   H11A10551   4.484   4.061  10.764  1.3294 -0.3379  0.6476
  104OSM   H11B10552   4.447   4.141  10.606 -0.5700 -0.3729  0.4093
  104OSM      P10553   4.450   4.370  10.754  0.3538 -0.1660 -0.3582
  104OSM    O1310554   4.327   4.332  10.831 -0.5531 -0.3191  0.8529
  104OSM    O1410555   4.518   4.495  10.810  0.1345  0.4525 -0.4770
  104OSM    O1110556   4.414   4.397  10.606 -0.0761 -0.2487  0.4690
  104OSM    O1210557   4.555   4.250  10.745 -0.0326 -0.2476  0.1383
  104OSM    C1S10558   4.306   4.489  10.576 -0.5102  0.3896 -0.5473
  104OSM    H1S10559   4.345   4.590  10.600  0.1320 -0.3811  1.8856
  104OSM    H1T10560   4.226   4.472  10.651 -0.7193  0.5551 -0.7306
  104OSM     NF10561   4.143   4.565  10.409 -0.0189  0.8062 -0.3333
  104OSM    HNF10562   4.054   4.521  10.404  0.9770 -1.3468 -0.4539
  104OSM    C2S10563   4.259   4.478  10.430  0.1968  0.2719 -0.4009
  104OSM    H2S10564   4.339   4.513  10.362  0.1273 -2.6392 -2.1484
  104OSM    C3S10565   4.225   4.326  10.376  0.7306 -0.8772  0.0473
  104OSM    H3S10566   4.141   4.288  10.438  1.0337  0.9747  1.7273
  104OSM     O310567   4.339   4.240  10.390  0.2191  0.3304 -0.3334
  104OSM    HO310568   4.389   4.294  10.452 -1.8938  1.0524  0.8333
  104OSM    C4S10569   4.179   4.319  10.235  0.5354 -0.5910  0.1394
  104OSM    H4S10570   4.069   4.313  10.223  0.4523 -1.6920  1.1983
  104OSM    C5S10571   4.253   4.328  10.124 -0.2869 -0.6284  0.1734
  104OSM    H5S10572   4.359   4.347  10.146 -0.7903  3.1495 -0.0435
  104OSM    C6S10573   4.211   4.340   9.978  0.1589 -1.0148  0.7532
  104OSM    H6S10574   4.102   4.321   9.967 -0.3283  1.0116  1.6032
  104OSM    H6T10575   4.272   4.271   9.916  0.3380 -0.7379  0.6181
  104OSM    C7S10576   4.249   4.484   9.928 -0.4248  0.7693  0.2999
  104OSM    H7S10577   4.360   4.493   9.926 -0.3219 -0.2426  0.8573
  104OSM    H7T10578   4.207   4.557   9.999 -0.0765  1.7747 -0.4968
  104OSM    C8S10579   4.199   4.519   9.785 -0.7034 -0.3912  0.5801
  104OSM    H8S10580   4.248   4.615   9.759  0.6743 -1.1808  0.1836
  104OSM    H8T10581   4.089   4.535   9.796 -0.4940 -0.4629  3.5762
  104OSM    C9S10582   4.238   4.419   9.677  0.0289  1.0732 -0.3821
  104OSM    H9S10583   4.188   4.324   9.705 -0.4039  1.1365 -0.9211
  104OSM    H9T10584   4.348   4.407   9.687 -0.1090  0.0384  0.0959
  104OSM   C10S10585   4.199   4.440   9.534 -0.7368  0.2857 -0.2301
  104OSM   H10S10586   4.089   4.439   9.517 -0.6002  0.5726 -1.2226
  104OSM   H10T10587   4.239   4.350   9.483 -1.4061  0.6815 -1.5146
  104OSM   C11S10588   4.260   4.560   9.461  0.5424 -1.0839 -0.1018
  104OSM   H11S10589   4.371   4.553   9.465  0.3917 -3.8050  1.3655
  104OSM   H11T10590   4.238   4.651   9.521 -0.4328 -1.7582  0.5775
  104OSM   C12S10591   4.210   4.570   9.315 -0.0052  0.1951 -0.4092
  104OSM   H12S10592   4.215   4.471   9.265  0.0048  0.9891 -2.0369
  104OSM   H12T10593   4.287   4.636   9.270  2.1928 -0.7325  1.7364
  104OSM   C13S10594   4.069   4.624   9.294  0.9856 -0.4645 -0.1008
  104OSM   H13S10595   4.051   4.720   9.347  2.9022 -0.0922 -0.0787
  104OSM   H13T10596   4.006   4.538   9.327  0.7365 -0.8204 -1.4539
  104OSM   C14S10597   4.040   4.635   9.143  0.1788 -0.0645  0.4621
  104OSM   H14S10598   4.141   4.660   9.105  0.6050 -0.3873  1.3686
  104OSM   H14T10599   3.971   4.717   9.113  0.5580 -0.4536 -1.5859
  104OSM   C15S10600   3.986   4.506   9.078 -0.2147  0.0522  0.5713
  104OSM   H15S10601   3.891   4.477   9.127 -0.1213 -0.9811  0.1669
  104OSM   H15T10602   4.063   4.428   9.098 -2.4424 -2.2255  0.7736
  104OSM   C16S10603   3.964   4.538   8.929 -0.2187  0.6887  0.5341
  104OSM   H16S10604   4.061   4.566   8.882 -0.7218  2.5397  0.5132
  104OSM   H16T10605   3.889   4.619   8.916 -0.3804  0.7657  1.8009
  104OSM   C17S10606   3.921   4.408   8.853 -0.4246 -0.1955  0.7046
  104OSM   H17S10607   3.819   4.376   8.884 -0.3188 -0.0504  1.2055
  104OSM   H17T10608   3.991   4.326   8.878  0.0610 -0.2670 -0.7486
  104OSM   C18S10609   3.938   4.421   8.698 -0.2025 -0.2658 -0.3094
  104OSM   H18S10610   3.860   4.482   8.647 -0.0994  0.7926  0.7446
  104OSM   H18T10611   3.948   4.318   8.657  0.2498 -0.4209  0.1813
  104OSM   H18U10612   4.030   4.471   8.662 -0.4703 -0.3095 -1.0769
  104OSM    C1F10613   4.165   4.699  10.403 -0.2733 -0.0878  0.2249
  104OSM     OF10614   4.272   4.751  10.437  0.1076  0.4386  0.0145
  104OSM    C2F10615   4.046   4.776  10.367  0.0198  0.1983  0.2938
  104OSM    H2F10616   4.020   4.815  10.467 -0.7614 -1.3881  0.7460
  104OSM    H2G10617   3.958   4.719  10.329 -0.0110  0.5652 -0.1921
  104OSM    C3F10618   4.085   4.881  10.265  0.1885  0.0891 -0.3548
  104OSM    H3F10619   4.176   4.936  10.297  1.3675 -1.5576 -0.7765
  104OSM    H3G10620   4.003   4.956  10.256  0.9781  0.9620 -0.3712
  104OSM    C4F10621   4.115   4.837  10.120  0.2756  0.4166  0.2132
  104OSM    H4F10622   4.022   4.788  10.084  0.2528  0.7107 -0.1371
  104OSM    H4G10623   4.188   4.754  10.112 -0.4063 -0.0147 -2.2814
  104OSM    C5F10624   4.173   4.950  10.037 -0.5419 -0.6927 -0.0968
  104OSM    H5F10625   4.267   4.988  10.081 -0.9584  1.3476 -0.8519
  104OSM    H5G10626   4.110   5.042  10.038  2.3264  1.4511 -1.6349
  104OSM    C6F10627   4.204   4.911   9.896 -0.6211 -0.7346 -0.4159
  104OSM    H6F10628   4.273   4.824   9.893  0.3335 -0.0137 -0.0143
  104OSM    H6G10629   4.263   4.998   9.859 -2.5153 -0.5417 -3.2888
  104OSM    C7F10630   4.088   4.881   9.805  0.5681 -0.0698  0.6842
  104OSM    H7F10631   4.000   4.942   9.835 -0.3189 -0.7439 -0.4618
  104OSM    H7G10632   4.049   4.779   9.829 -1.2476 -0.5120 -3.3499
  104OSM    C8F10633   4.121   4.884   9.658 -0.0091  0.2858 -0.2385
  104OSM    H8F10634   4.038   4.837   9.600  0.7788  0.1021 -1.2655
  104OSM    H8G10635   4.216   4.831   9.633 -0.0077  1.1292 -2.2663
  104OSM    C9F10636   4.139   5.031   9.611  0.5785  0.3686  0.1461
  104OSM    H9F10637   4.118   5.107   9.687 -0.6639  2.3227 -2.0217
  104OSM   C10F10638   4.186   5.073   9.488  0.5000  0.0403  0.1717
  104OSM   H10F10639   4.194   5.181   9.466  1.3634 -0.7381 -4.3149
  104OSM   C11F10640   4.240   4.982   9.380 -0.5276  0.1249 -0.4758
  104OSM   H11F10641   4.223   4.876   9.412  0.5674  0.2392  0.5679
  104OSM   H11G10642   4.349   4.991   9.363 -0.5713 -1.4585 -1.8539
  104OSM   C12F10643   4.186   5.013   9.238  0.3171 -0.2914  0.1250
  104OSM   H12F10644   4.080   5.044   9.232  1.1296  2.4255 -2.1225
  104OSM   H12G10645   4.197   4.924   9.172  0.4602  0.3034 -0.6650
  104OSM   C13F10646   4.247   5.138   9.170  0.1980  0.4016  0.3898
  104OSM   H13F10647   4.356   5.126   9.157  0.2582  2.2350 -1.2328
  104OSM   H13G10648   4.235   5.227   9.237 -0.1721  0.8955 -0.3227
  104OSM   C14F10649   4.183   5.169   9.034  0.6637 -0.7407  0.1542
  104OSM   H14F10650   4.240   5.247   8.979 -0.5660 -0.1970 -0.3726
  104OSM   H14G10651   4.084   5.214   9.057 -0.4331 -3.0034  0.0307
  104OSM   C15F10652   4.161   5.051   8.940  0.4415  0.3598 -0.4344
  104OSM   H15F10653   4.102   4.977   8.999  1.1560  0.2142  0.1174
  104OSM   H15G10654   4.259   5.004   8.915  0.8026  1.0078 -0.2700
  104OSM   C16F10655   4.074   5.078   8.809 -0.4331 -0.1515  0.0593
  104OSM   H16F10656   3.971   5.114   8.829 -0.5137 -1.4374  2.2766
  104OSM   H16G10657   4.056   4.977   8.767  0.7008 -1.4605  2.4805
  104OSM   C17F10658   4.141   5.161   8.703 -0.1459  0.3563 -0.5157
  104OSM   H17F10659   4.240   5.117   8.683 -1.1151 -2.1803 -0.0812
  104OSM   H17G10660   4.145   5.267   8.737  0.8013  0.4421 -0.8720
  104OSM   C18F10661   4.052   5.166   8.576 -0.1757 -0.6132 -0.0180
  104OSM   H18F10662   4.065   5.256   8.513 -1.8952 -1.1399 -1.2003
  104OSM   H18G10663   3.941   5.157   8.576 -0.1712 -0.7048 -0.5197
  104OSM   H18H10664   4.085   5.076   8.519 -2.0116 -1.9142  0.8717
  105OSM      N10665   4.305   3.948  11.070 -0.7817 -0.3022  0.3496
  105OSM    C1510666   4.336   4.101  11.081 -0.0508  0.4118 -0.4257
  105OSM   H15A10667   4.259   4.160  11.034 -0.7391 -1.6181 -2.0427
  105OSM   H15B10668   4.432   4.126  11.038  0.0482  0.8807  0.0599
  105OSM   H15C10669   4.352   4.129  11.184  1.8633  0.3876 -0.6827
  105OSM    C1410670   4.425   3.873  11.122 -0.2470  0.4136  0.3415
  105OSM   H14A10671   4.418   3.768  11.098  0.3120  0.1137  1.3985
  105OSM   H14B10672   4.450   3.879  11.227 -1.4335 -1.6979  0.7973
  105OSM   H14C10673   4.510   3.911  11.068  0.0862  1.0395  1.2779
  105OSM    C1310674   4.177   3.917  11.135 -0.4166 -0.9024 -0.0298
  105OSM   H13A10675   4.157   3.811  11.134 -0.9714 -0.8425 -3.0467
  105OSM   H13B10676   4.090   3.973  11.102  0.7487  0.9991 -0.0553
  105OSM   H13C10677   4.184   3.943  11.240 -1.0208 -0.0752 -0.1857
  105OSM    C1210678   4.290   3.913  10.923 -0.6323  0.0373 -0.0969
  105OSM   H12A10679   4.254   3.811  10.922  1.6802 -0.9033  1.8891
  105OSM   H12B10680   4.387   3.909  10.876 -0.7164  0.9807 -0.3680
  105OSM    C1110681   4.207   3.998  10.820 -0.1410 -0.4445 -0.5027
  105OSM   H11A10682   4.211   3.931  10.731  0.7802 -1.6498  0.4144
  105OSM   H11B10683   4.265   4.090  10.796 -2.2172  1.2190  0.5792
  105OSM      P10684   3.955   3.930  10.864 -0.3487 -0.0631 -0.0492
  105OSM    O1310685   4.013   3.805  10.809 -0.7109 -0.1981 -0.2509
  105OSM    O1410686   3.882   3.928  10.994 -0.2680  0.3465  0.0631
  105OSM    O1110687   3.864   4.001  10.758 -0.5912 -0.0499 -0.1180
  105OSM    O1210688   4.080   4.030  10.878  0.5703  0.8084 -0.4409
  105OSM    C1S10689   3.908   4.028  10.620 -0.2526 -0.3840 -0.2357
  105OSM    H1S10690   4.018   4.020  10.611 -0.2662 -2.6708  0.8984
  105OSM    H1T10691   3.886   4.135  10.605 -0.6951 -0.0724  2.2160
  105OSM     NF10692   3.891   3.961  10.374 -0.1731 -0.1082 -0.0539
  105OSM    HNF10693   3.846   4.016  10.304 -3.0711 -1.3521  0.6943
  105OSM    C2S10694   3.831   3.947  10.506  0.4516  0.1978 -0.2699
  105OSM    H2S10695   3.836   3.841  10.539 -0.2417  0.1195 -0.3996
  105OSM    C3S10696   3.676   3.984  10.515 -0.1533  0.0962 -0.5488
  105OSM    H3S10697   3.670   4.094  10.501 -0.7260  0.6231  2.9690
  105OSM     O310698   3.622   3.973  10.650 -0.3199 -0.2306 -0.3953
  105OSM    HO310699   3.700   3.987  10.704 -0.5156 -1.5157  0.2523
  105OSM    C4S10700   3.587   3.926  10.403 -0.0839 -0.3422  0.0249
  105OSM    H4S10701   3.590   3.972  10.303  3.6264 -0.6380 -0.1385
  105OSM    C5S10702   3.508   3.815  10.419 -0.2364  0.7018 -0.2764
  105OSM    H5S10703   3.505   3.762  10.515 -0.0133  1.2310  0.0237
  105OSM    C6S10704   3.418   3.761  10.300  0.2265  0.0895 -0.2314
  105OSM    H6S10705   3.354   3.847  10.269 -3.3056 -2.4861 -0.7075
  105OSM    H6T10706   3.342   3.694  10.345  1.9313 -0.3430  2.2062
  105OSM    C7S10707   3.477   3.697  10.174  0.2901  0.6576  1.0755
  105OSM    H7S10708   3.527   3.604  10.210  0.3482 -0.2307 -1.1189
  105OSM    H7T10709   3.555   3.757  10.122 -0.1600 -0.5275 -1.0713
  105OSM    C8S10710   3.369   3.658  10.075 -0.9909  0.3932  1.0619
  105OSM    H8S10711   3.301   3.746  10.064 -0.0419  1.0688  0.5160
  105OSM    H8T10712   3.311   3.565  10.092  1.6204 -1.3392  1.0544
  105OSM    C9S10713   3.430   3.643   9.939  0.3815 -0.5053 -0.1072
  105OSM    H9S10714   3.504   3.560   9.939  1.2271  0.2251 -1.0278
  105OSM    H9T10715   3.477   3.738   9.907 -0.2453  0.2429  1.1194
  105OSM   C10S10716   3.324   3.614   9.835 -0.2629  0.1385 -0.7120
  105OSM   H10S10717   3.240   3.686   9.842 -3.9558 -3.5984 -2.2461
  105OSM   H10T10718   3.279   3.513   9.850  0.0258  0.1424  0.2333
  105OSM   C11S10719   3.376   3.632   9.694  0.1851 -0.1499  0.5429
  105OSM   H11S10720   3.417   3.536   9.654  0.6255  0.5270 -0.6702
  105OSM   H11T10721   3.463   3.701   9.690  1.3766 -1.5299  1.4341
  105OSM   C12S10722   3.268   3.662   9.585  0.0072  0.0105  0.3511
  105OSM   H12S10723   3.239   3.769   9.592  3.7759  1.1009  2.3844
  105OSM   H12T10724   3.179   3.599   9.605 -0.5543  0.6219 -0.1901
  105OSM   C13S10725   3.332   3.621   9.446 -0.9074  0.2463  0.2617
  105OSM   H13S10726   3.299   3.515   9.441  0.5449 -0.2649  0.9511
  105OSM   H13T10727   3.442   3.635   9.454 -1.0269  0.0394  3.8716
  105OSM   C14S10728   3.280   3.693   9.322 -0.2432  0.3603  0.4333
  105OSM   H14S10729   3.327   3.793   9.314  1.4341 -0.3368  1.0804
  105OSM   H14T10730   3.169   3.698   9.327 -0.5544  0.4385 -3.5300
  105OSM   C15S10731   3.302   3.613   9.192  0.0220  0.1334  0.0394
  105OSM   H15S10732   3.254   3.514   9.203  1.7358 -0.6919  0.5357
  105OSM   H15T10733   3.413   3.605   9.181  0.1579  0.0012  1.3555
  105OSM   C16S10734   3.250   3.693   9.073  0.0211  0.1853  0.2199
  105OSM   H16S10735   3.331   3.672   9.000  1.1124 -1.9875  1.9208
  105OSM   H16T10736   3.246   3.801   9.098  0.7107 -0.4034  3.3685
  105OSM   C17S10737   3.110   3.643   9.043 -0.8623 -0.4595 -0.1983
  105OSM   H17S10738   3.037   3.709   9.094  0.4478  0.2587  0.8219
  105OSM   H17T10739   3.094   3.539   9.078 -0.1519  0.0451  1.7578
  105OSM   C18S10740   3.080   3.666   8.886  0.0203  0.3294 -0.1367
  105OSM   H18S10741   3.149   3.737   8.835  1.9700 -3.0342 -2.5320
  105OSM   H18T10742   2.976   3.699   8.869  0.1055  0.2885 -0.7430
  105OSM   H18U10743   3.107   3.571   8.836  1.2400  0.2773  0.5840
  105OSM    C1F10744   4.016   3.923  10.338 -0.0218 -0.4653  0.0640
  105OSM     OF10745   4.066   3.832  10.403  0.4713  0.0369 -0.0491
  105OSM    C2F10746   4.085   3.983  10.224  0.2878  0.1047  0.5439
  105OSM    H2F10747   4.184   4.005  10.269  0.8530 -1.8062  0.3540
  105OSM    H2G10748   4.039   4.081  10.200 -1.6364 -0.0765  3.0822
  105OSM    C3F10749   4.090   3.900  10.092 -0.2577  0.1221 -0.5405
  105OSM    H3F10750   3.985   3.899  10.058 -0.3507  2.9243 -0.5305
  105OSM    H3G10751   4.122   3.794  10.108  2.4960  0.9316 -0.0637
  105OSM    C4F10752   4.171   3.975   9.979  0.4367  0.4276 -0.5341
  105OSM    H4F10753   4.278   3.985  10.004  0.3264  0.8037 -0.2100
  105OSM    H4G10754   4.119   4.072   9.964 -0.0969  0.5294  1.6120
  105OSM    C5F10755   4.149   3.904   9.838 -0.2314 -0.1446 -0.3829
  105OSM    H5F10756   4.051   3.937   9.797 -0.9153 -1.0329  0.4817
  105OSM    H5G10757   4.142   3.794   9.854  0.0380  0.1329  2.0155
  105OSM    C6F10758   4.253   3.951   9.729  0.9817  0.0912  0.1424
  105OSM    H6F10759   4.352   3.945   9.778  1.0616  1.6742  0.2292
  105OSM    H6G10760   4.232   4.060   9.727 -2.4381 -0.3838  1.7512
  105OSM    C7F10761   4.238   3.886   9.597 -0.0866  0.2187  0.7627
  105OSM    H7F10762   4.251   3.777   9.613 -1.8385  0.0160  1.0166
  105OSM    H7G10763   4.327   3.917   9.537 -1.3263  0.8082 -0.8426
  105OSM    C8F10764   4.109   3.911   9.515  0.0545 -0.5052  0.1812
  105OSM    H8F10765   4.020   3.891   9.579 -0.0833  0.3112  0.2620
  105OSM    H8G10766   4.110   3.840   9.430  2.4523 -0.8438  0.4068
  105OSM    C9F10767   4.112   4.059   9.460 -0.0230  0.2427 -0.1882
  105OSM    H9F10768   4.105   4.135   9.539  1.1863  0.5491 -0.3590
  105OSM   C10F10769   4.121   4.108   9.333  0.7841  0.8493 -0.1779
  105OSM   H10F10770   4.121   4.217   9.316  1.1266  0.9032  0.1481
  105OSM   C11F10771   4.132   4.032   9.206 -0.3820  0.2982  0.7265
  105OSM   H11F10772   4.146   3.925   9.234 -3.3714  0.0992  1.7605
  105OSM   H11G10773   4.222   4.060   9.147 -0.0493 -1.3263  0.3970
  105OSM   C12F10774   4.009   4.033   9.112  0.2286  0.1559 -0.2426
  105OSM   H12F10775   4.029   3.966   9.025 -0.9456 -0.2286 -0.2378
  105OSM   H12G10776   3.983   4.132   9.070 -1.6874 -0.2762 -0.1515
  105OSM   C13F10777   3.887   3.962   9.169 -0.6783 -0.5444 -0.4830
  105OSM   H13F10778   3.861   3.992   9.273  0.8542 -0.6453 -0.0436
  105OSM   H13G10779   3.920   3.856   9.169  1.4427  0.0551  0.9523
  105OSM   C14F10780   3.779   3.987   9.059  0.3146  0.3480 -0.7756
  105OSM   H14F10781   3.835   3.940   8.976  1.3618 -2.4518  1.3502
  105OSM   H14G10782   3.767   4.094   9.031  2.4241  0.5604 -1.0063
  105OSM   C15F10783   3.645   3.917   9.094  1.1077 -0.3794  0.7198
  105OSM   H15F10784   3.605   3.965   9.185  0.0354 -1.6200  0.9239
  105OSM   H15G10785   3.665   3.810   9.117 -0.9802 -1.0597 -0.3903
  105OSM   C16F10786   3.549   3.929   8.967 -0.4572  0.4087 -0.6712
  105OSM   H16F10787   3.485   3.840   8.986 -1.8707  1.8698  1.9636
  105OSM   H16G10788   3.608   3.916   8.874  0.9057  1.3299  0.0314
  105OSM   C17F10789   3.461   4.062   8.958 -0.8629 -1.0758 -0.6346
  105OSM   H17F10790   3.538   4.143   8.958  0.6643 -2.4738  0.4485
  105OSM   H17G10791   3.395   4.079   9.045  1.5958 -1.3859  1.4039
  105OSM   C18F10792   3.389   4.075   8.827  0.5711  0.9144  0.5945
  105OSM   H18F10793   3.458   4.082   8.740  1.4339 -0.1064  1.1772
  105OSM   H18G10794   3.319   4.162   8.830 -1.1175 -0.3193 -0.7171
  105OSM   H18H10795   3.333   3.982   8.805  2.2593 -0.0863  0.3357
  106OSM      N10796   4.666   2.436  10.872  0.3646  0.0288 -0.1623
  106OSM    C1510797   4.644   2.385  11.010 -0.8382 -0.1368 -0.7612
  106OSM   H15A10798   4.549   2.427  11.038 -0.4762  2.0789 -2.4920
  106OSM   H15B10799   4.716   2.429  11.078 -2.4909 -0.1766  1.0929
  106OSM   H15C10800   4.636   2.279  11.024  2.4795 -0.4694 -0.4454
  106OSM    C1410801   4.581   2.345  10.785 -0.0633  0.1803 -0.5925
  106OSM   H14A10802   4.482   2.334  10.827 -0.5328  1.7105 -1.2604
  106OSM   H14B10803   4.631   2.250  10.772  3.0116  1.3697  1.2600
  106OSM   H14C10804   4.570   2.392  10.689  1.2977  1.2556 -0.2473
  106OSM    C1310805   4.621   2.571  10.866 -0.0958  0.1750  1.0734
  106OSM   H13A10806   4.514   2.582  10.878 -1.0668 -3.3598 -2.2261
  106OSM   H13B10807   4.648   2.618  10.773  3.0221 -0.6639  1.4345
  106OSM   H13C10808   4.665   2.623  10.950 -1.3101  3.2691 -0.0880
  106OSM    C1210809   4.815   2.413  10.838  0.0716 -1.2923  0.5554
  106OSM   H12A10810   4.847   2.317  10.876 -0.4730 -2.0034 -0.7182
  106OSM   H12B10811   4.866   2.488  10.896 -1.8173  0.7649 -0.2991
  106OSM    C1110812   4.857   2.444  10.689  0.1061 -0.1079  0.1707
  106OSM   H11A10813   4.799   2.375  10.625  2.6434 -0.3556 -2.0448
  106OSM   H11B10814   4.964   2.416  10.680  0.0985 -0.1794  0.3042
  106OSM      P10815   4.929   2.689  10.716 -0.1274 -0.2683 -0.0055
  106OSM    O1310816   4.854   2.813  10.722  0.4764  0.1124  0.0123
  106OSM    O1410817   4.994   2.632  10.836  0.7998  0.2325 -0.3811
  106OSM    O1110818   5.039   2.694  10.603  0.0553 -0.3515  0.0876
  106OSM    O1210819   4.834   2.581  10.655  0.3769  0.3096 -0.0541
  106OSM    C1S10820   5.003   2.672  10.460  0.5422  0.7592  0.1934
  106OSM    H1S10821   4.934   2.751  10.422 -1.7256  0.3396  3.1178
  106OSM    H1T10822   4.944   2.579  10.447  0.7792  0.5377  0.6639
  106OSM     NF10823   5.075   2.645  10.220  0.1688 -0.0866 -0.0055
  106OSM    HNF10824   5.070   2.550  10.192 -2.2965 -0.7485  2.2583
  106OSM    C2S10825   5.126   2.668  10.357  0.0590  0.2249 -0.4831
  106OSM    H2S10826   5.188   2.759  10.349  0.9492 -0.4069 -0.8783
  106OSM    C3S10827   5.221   2.560  10.418 -0.7938 -0.7100 -0.3979
  106OSM    H3S10828   5.145   2.480  10.426 -0.6953 -1.2339 -3.4202
  106OSM     O310829   5.268   2.584  10.545 -0.1299  0.0497  0.1084
  106OSM    HO310830   5.218   2.664  10.563  2.2927  2.0076 -1.1324
  106OSM    C4S10831   5.351   2.529  10.338  0.8070 -0.3603  0.1316
  106OSM    H4S10832   5.429   2.606  10.340 -0.0068  0.4681  0.5197
  106OSM    C5S10833   5.381   2.410  10.279 -0.2869 -0.4585 -0.2859
  106OSM    H5S10834   5.304   2.334  10.300  0.7058 -1.2707  0.5201
  106OSM    C6S10835   5.510   2.374  10.212 -0.1333 -0.4759 -0.2465
  106OSM    H6S10836   5.548   2.282  10.262 -0.1085 -0.6346 -0.5512
  106OSM    H6T10837   5.589   2.450  10.232  0.8372 -1.4601 -0.2006
  106OSM    C7S10838   5.480   2.357  10.065 -0.1116 -0.3342 -0.8690
  106OSM    H7S10839   5.394   2.288  10.051 -1.0515  0.9137 -1.4410
  106OSM    H7T10840   5.560   2.312  10.002 -0.8499  0.4183 -2.3989
  106OSM    C8S10841   5.450   2.493   9.994  0.5065  0.6057  0.3772
  106OSM    H8S10842   5.530   2.565  10.024  0.8754 -0.1272  1.1912
  106OSM    H8T10843   5.365   2.541  10.047  0.2258  0.0862  0.3971
  106OSM    C9S10844   5.434   2.493   9.840 -0.1224  0.6000  0.0603
  106OSM    H9S10845   5.516   2.435   9.793 -0.6581 -1.4032  1.4718
  106OSM    H9T10846   5.452   2.599   9.813  1.4991 -0.1585 -2.0326
  106OSM   C10S10847   5.291   2.437   9.798 -0.0842 -0.1623  0.4754
  106OSM   H10S10848   5.206   2.504   9.825  0.5748  1.0952 -0.4481
  106OSM   H10T10849   5.273   2.342   9.853  2.3743 -0.5989  0.6483
  106OSM   C11S10850   5.279   2.417   9.644 -0.1445  0.1274  0.3638
  106OSM   H11S10851   5.358   2.350   9.603  0.6876  1.9141 -1.1048
  106OSM   H11T10852   5.295   2.517   9.599 -1.8984  0.3387  0.1342
  106OSM   C12S10853   5.134   2.370   9.604 -0.2439 -0.2645 -0.1653
  106OSM   H12S10854   5.065   2.432   9.666 -1.5931 -3.6763  2.0099
  106OSM   H12T10855   5.119   2.272   9.653  1.0925 -1.2578 -1.6312
  106OSM   C13S10856   5.109   2.359   9.458  0.0108  0.2753 -0.1237
  106OSM   H13S10857   5.205   2.343   9.405 -1.2723  0.9226 -2.8053
  106OSM   H13T10858   5.069   2.454   9.418 -1.0143  0.2662  0.8304
  106OSM   C14S10859   5.005   2.255   9.418  0.4202 -0.1744  0.3793
  106OSM   H14S10860   4.916   2.282   9.480 -0.4191 -0.8515 -0.4909
  106OSM   H14T10861   5.028   2.150   9.444 -0.7785 -0.9276 -1.3837
  106OSM   C15S10862   4.955   2.277   9.272  0.3380 -0.7645  0.3470
  106OSM   H15S10863   4.898   2.188   9.238 -1.2135  0.5902 -0.7986
  106OSM   H15T10864   5.046   2.285   9.208  1.0238  0.7724  1.4414
  106OSM   C16S10865   4.868   2.409   9.247  0.0473  0.3178 -0.4459
  106OSM   H16S10866   4.922   2.501   9.277 -0.0214 -0.2473  1.6108
  106OSM   H16T10867   4.774   2.414   9.306  0.0695  1.1857 -0.4659
  106OSM   C17S10868   4.822   2.417   9.099  0.4431  0.5923 -0.2376
  106OSM   H17S10869   4.871   2.346   9.029  1.0276  0.5272  0.2278
  106OSM   H17T10870   4.857   2.518   9.069 -0.3237  1.6121  2.0516
  106OSM   C18S10871   4.669   2.417   9.078  0.9364  0.3015  0.7725
  106OSM   H18S10872   4.622   2.440   8.980 -0.5726  0.0375  1.4024
  106OSM   H18T10873   4.630   2.510   9.127 -1.1606  0.6449 -1.3952
  106OSM   H18U10874   4.620   2.330   9.127  1.2765  0.6166  1.7063
  106OSM    C1F10875   5.022   2.734  10.140  0.3537  0.2512  0.2274
  106OSM     OF10876   4.989   2.844  10.189 -0.6416 -0.1401  0.0731
  106OSM    C2F10877   5.004   2.705   9.992 -0.3690  0.5619 -0.4174
  106OSM    H2F10878   4.933   2.621   9.978 -1.5634  1.6101 -0.8992
  106OSM    H2G10879   5.103   2.681   9.949  0.3732 -0.1796  1.5778
  106OSM    C3F10880   4.956   2.840   9.930 -0.3403 -0.0116  0.3398
  106OSM    H3F10881   5.044   2.907   9.946 -0.6240  0.1156  1.4163
  106OSM    H3G10882   4.863   2.885   9.969 -2.0374 -2.9868  0.0152
  106OSM    C4F10883   4.932   2.836   9.782 -0.0584  0.3534  0.5024
  106OSM    H4F10884   4.941   2.938   9.738  1.5438 -0.6445 -1.6517
  106OSM    H4G10885   4.824   2.814   9.765  0.4849 -0.2022 -3.0263
  106OSM    C5F10886   5.002   2.733   9.696  0.7512 -0.4364 -0.6372
  106OSM    H5F10887   4.997   2.632   9.743 -1.8235  0.5465  1.4565
  106OSM    H5G10888   5.107   2.763   9.679  1.1350 -1.3037  0.0702
  106OSM    C6F10889   4.938   2.715   9.561  0.0363 -0.3607  0.5569
  106OSM    H6F10890   4.834   2.676   9.566 -0.5178  1.2127  2.7671
  106OSM    H6G10891   4.992   2.635   9.505 -1.3794 -0.7494 -0.3234
  106OSM    C7F10892   4.940   2.842   9.473 -0.6702 -0.2171  0.1826
  106OSM    H7F10893   5.046   2.876   9.475  0.0987 -2.2293 -1.9100
  106OSM    H7G10894   4.870   2.912   9.524  0.3294  1.1280 -0.2467
  106OSM    C8F10895   4.882   2.803   9.335  0.8366 -0.2107 -0.6821
  106OSM    H8F10896   4.787   2.749   9.351 -0.1449  0.9066 -2.3605
  106OSM    H8G10897   4.950   2.722   9.302  1.2978 -0.1923  0.2133
  106OSM    C9F10898   4.872   2.924   9.243  0.3500 -0.1740  0.0890
  106OSM    H9F10899   4.830   3.010   9.295  0.4067 -1.3319  2.1537
  106OSM   C10F10900   4.902   2.933   9.108  0.2189 -0.3851 -0.7935
  106OSM   H10F10901   4.893   3.028   9.054 -0.4576 -0.3295 -0.5910
  106OSM   C11F10902   4.958   2.819   9.031 -0.6239 -0.6300 -0.3666
  106OSM   H11F10903   4.879   2.754   8.990  0.0269 -2.0658  0.5724
  106OSM   H11G10904   5.030   2.763   9.094 -0.5861  0.1255  0.2837
  106OSM   C12F10905   5.051   2.857   8.916 -0.3279 -0.5842  0.1533
  106OSM   H12F10906   5.142   2.912   8.948 -0.0029 -0.1684 -1.4029
  106OSM   H12G10907   4.992   2.929   8.854  0.0888  1.0730  1.6131
  106OSM   C13F10908   5.084   2.743   8.826  0.1907 -0.0062  0.0438
  106OSM   H13F10909   4.999   2.671   8.826  0.2052 -0.0576  1.4452
  106OSM   H13G10910   5.177   2.696   8.866  0.4614  1.3597  1.1033
  106OSM   C14F10911   5.117   2.780   8.682 -0.3095 -0.2647  0.0249
  106OSM   H14F10912   5.189   2.864   8.695  0.7804 -0.9953 -1.1326
  106OSM   H14G10913   5.030   2.835   8.640 -0.6373 -0.1610  0.8201
  106OSM   C15F10914   5.169   2.658   8.601  0.3218  0.0538 -0.4913
  106OSM   H15F10915   5.255   2.615   8.656 -0.0116  3.2099  2.8923
  106OSM   H15G10916   5.198   2.695   8.501 -0.1711  1.0769 -0.2773
  106OSM   C16F10917   5.062   2.545   8.588 -0.2992  0.0046 -0.9539
  106OSM   H16F10918   4.979   2.588   8.528 -0.3800  0.6211 -0.4212
  106OSM   H16G10919   5.021   2.507   8.685 -0.0404  0.1006 -0.8061
  106OSM   C17F10920   5.124   2.432   8.508 -0.2687  0.5569 -0.4463
  106OSM   H17F10921   5.186   2.466   8.422  4.8042 -0.5702  2.3235
  106OSM   H17G10922   5.033   2.381   8.472  0.8685 -0.8538 -1.4301
  106OSM   C18F10923   5.207   2.339   8.594 -0.0306  0.1717 -0.2193
  106OSM   H18F10924   5.293   2.395   8.637 -0.6637  0.4582  0.7089
  106OSM   H18G10925   5.250   2.252   8.541 -1.6618 -1.1522  0.5336
  106OSM   H18H10926   5.159   2.295   8.684  3.7680 -3.6499  0.2468
  107OSM      N10927   5.487   0.193  11.234  0.0015  0.0282  0.4281
  107OSM    C1510928   5.359   0.233  11.301 -0.1737 -0.1745  0.2040
  107OSM   H15A10929   5.277   0.245  11.231  0.1401 -1.3572 -0.4035
  107OSM   H15B10930   5.369   0.326  11.354  1.3867 -1.2590  1.9304
  107OSM   H15C10931   5.325   0.153  11.365  0.0154 -0.2810  0.1735
  107OSM    C1410932   5.534   0.298  11.139 -0.2419  0.6652  0.4509
  107OSM   H14A10933   5.589   0.376  11.191 -1.0073  2.0481 -0.7176
  107OSM   H14B10934   5.458   0.329  11.069  0.0900 -0.7158 -0.5593
  107OSM   H14C10935   5.602   0.242  11.076 -1.9453  1.3392 -2.1818
  107OSM    C1310936   5.588   0.174  11.340  0.1970 -0.2565 -0.1922
  107OSM   H13A10937   5.552   0.095  11.404  0.7569 -2.2128 -2.1632
  107OSM   H13B10938   5.600   0.266  11.395 -2.2218  0.8740 -1.3945
  107OSM   H13C10939   5.679   0.130  11.303  1.1830 -0.6859  2.5200
  107OSM    C1210940   5.446   0.068  11.155  0.0333 -0.4807  0.5562
  107OSM   H12A10941   5.357   0.091  11.098 -0.4621  0.4661  1.6936
  107OSM   H12B10942   5.419  -0.005  11.229 -1.9725 -0.9780 -0.6003
  107OSM    C1110943   5.561   0.003  11.072  0.3228 -0.1823  0.3544
  107OSM   H11A10944   5.596   0.076  10.995 -0.2169  1.1979  1.3675
  107OSM   H11B10945   5.518  -0.087  11.023  0.4818  0.0252 -0.1801
  107OSM      P10946   5.700  -0.180  11.195  0.2754 -0.3535  0.1232
  107OSM    O1310947   5.800  -0.189  11.303 -0.4407  0.0192 -0.3715
  107OSM    O1410948   5.574  -0.245  11.228  0.5845  0.3669  0.2992
  107OSM    O1110949   5.762  -0.245  11.060 -0.5136  0.1982 -0.3059
  107OSM    O1210950   5.679  -0.029  11.152 -0.2670 -0.1741 -0.6866
  107OSM    C1S10951   5.683  -0.302  10.954  1.0033  0.2464 -0.3712
  107OSM    H1S10952   5.577  -0.269  10.960  1.1408  0.5379  0.5877
  107OSM    H1T10953   5.673  -0.410  10.978  0.6952  0.6838  1.6610
  107OSM     NF10954   5.653  -0.319  10.706  0.0774 -0.4399  0.7388
  107OSM    HNF10955   5.689  -0.392  10.650  2.3693  1.9034 -1.0629
  107OSM    C2S10956   5.736  -0.265  10.813 -0.3204 -0.1625  0.0057
  107OSM    H2S10957   5.732  -0.154  10.818  0.9953 -0.1173  0.4209
  107OSM    C3S10958   5.889  -0.308  10.800 -0.0772  0.0502 -0.8264
  107OSM    H3S10959   5.898  -0.416  10.823 -0.6021 -0.0684 -1.1680
  107OSM     O310960   5.967  -0.247  10.904 -0.0159 -0.5293 -0.1603
  107OSM    HO310961   5.905  -0.204  10.963  0.1281  1.5115 -1.4045
  107OSM    C4S10962   5.955  -0.297  10.663  0.1569  0.5903  0.4365
  107OSM    H4S10963   5.977  -0.400  10.632 -1.0306  0.3398  0.3888
  107OSM    C5S10964   6.001  -0.183  10.604  0.2262 -0.0067  0.4698
  107OSM    H5S10965   5.991  -0.091  10.664 -0.1583 -0.8540  1.7393
  107OSM    C6S10966   6.080  -0.179  10.479  0.4653  0.0217 -0.0062
  107OSM    H6S10967   6.154  -0.261  10.468  0.9422  0.2104  1.5994
  107OSM    H6T10968   6.145  -0.088  10.477 -1.0929  1.3445  3.1216
  107OSM    C7S10969   6.001  -0.162  10.346  0.1685  0.1301  0.4413
  107OSM    H7S10970   5.925  -0.082  10.363  0.1267  0.3493 -0.7360
  107OSM    H7T10971   5.940  -0.254  10.339  0.2563 -0.0683  1.9088
  107OSM    C8S10972   6.090  -0.144  10.222 -0.4174 -1.0292  0.3207
  107OSM    H8S10973   6.155  -0.234  10.215  0.1567 -0.5056 -1.9042
  107OSM    H8T10974   6.150  -0.052  10.241 -1.7180 -0.5285  2.2618
  107OSM    C9S10975   6.009  -0.139  10.090 -0.0909 -0.7909  0.4728
  107OSM    H9S10976   5.907  -0.184  10.094 -0.1541 -0.7080 -0.1931
  107OSM    H9T10977   6.070  -0.192  10.013  1.1035  1.2000 -0.0138
  107OSM   C10S10978   5.999   0.003  10.022  0.2989 -0.1947 -0.0576
  107OSM   H10S10979   6.099   0.053  10.025  0.2355  0.0086 -1.1199
  107OSM   H10T10980   5.940   0.061  10.096 -1.2367 -2.6563  0.7779
  107OSM   C11S10981   5.929   0.003   9.893 -0.0118 -0.2070  0.1913
  107OSM   H11S10982   5.834  -0.055   9.895 -1.9768  2.7638 -0.7385
  107OSM   H11T10983   5.995  -0.033   9.811 -0.3299  1.0217 -0.6296
  107OSM   C12S10984   5.890   0.151   9.858  0.4528  0.1545 -0.2054
  107OSM   H12S10985   5.864   0.201   9.954  1.0724 -0.4624  0.2928
  107OSM   H12T10986   5.801   0.162   9.792 -2.1313 -1.7031  2.7100
  107OSM   C13S10987   5.999   0.219   9.768 -0.6557 -0.6246 -0.3063
  107OSM   H13S10988   6.019   0.151   9.682  0.7158 -0.7367  0.0672
  107OSM   H13T10989   6.090   0.220   9.832 -1.7335 -1.2126  1.2960
  107OSM   C14S10990   5.977   0.360   9.713 -0.5640 -0.7941  0.3649
  107OSM   H14S10991   6.009   0.435   9.789 -1.2313 -0.5248  0.3882
  107OSM   H14T10992   5.868   0.364   9.691 -0.1922  0.1511 -1.5042
  107OSM   C15S10993   6.042   0.384   9.575  0.0737 -0.2839 -0.6444
  107OSM   H15S10994   6.011   0.299   9.511  1.0974 -0.6792 -0.6367
  107OSM   H15T10995   6.151   0.365   9.573  0.0536 -0.5782  0.3544
  107OSM   C16S10996   5.996   0.521   9.508 -0.0456 -0.3295  0.8287
  107OSM   H16S10997   6.047   0.609   9.554 -0.8527  1.2458 -1.1611
  107OSM   H16T10998   5.887   0.540   9.520  0.4439  3.7760  0.1199
  107OSM   C17S10999   6.016   0.534   9.354  0.0437 -0.1143  0.1677
  107OSM   H17S11000   6.120   0.511   9.323 -0.3407  0.4039 -1.6232
  107OSM   H17T11001   5.995   0.640   9.327 -1.4860 -0.9528 -2.3385
  107OSM   C18S11002   5.918   0.451   9.273 -0.2779 -0.6776 -0.1203
  107OSM   H18S11003   5.941   0.343   9.287  2.2609 -0.1693  0.0967
  107OSM   H18T11004   5.927   0.480   9.166 -0.2188 -2.2630 -0.5706
  107OSM   H18U11005   5.817   0.475   9.314  0.0243 -0.4239  0.4750
  107OSM    C1F11006   5.531  -0.274  10.686 -0.0446 -0.3972 -0.1898
  107OSM     OF11007   5.499  -0.176  10.749  0.2896 -0.3211 -0.3020
  107OSM    C2F11008   5.444  -0.342  10.586  0.8215 -0.0239  0.6493
  107OSM    H2F11009   5.340  -0.317  10.618  0.2569  0.3202 -1.3076
  107OSM    H2G11010   5.458  -0.452  10.593 -2.5939 -0.6868 -0.8874
  107OSM    C3F11011   5.457  -0.307  10.436 -0.6608  0.7359  0.1562
  107OSM    H3F11012   5.487  -0.200  10.425  1.5846  0.1645  0.1857
  107OSM    H3G11013   5.362  -0.314  10.379 -0.2801  1.4011 -0.5764
  107OSM    C4F11014   5.552  -0.394  10.355  0.2306  0.5089  0.1011
  107OSM    H4F11015   5.532  -0.500  10.384  0.3804  0.7844  1.2499
  107OSM    H4G11016   5.654  -0.373  10.391  0.6443 -0.2603 -0.5876
  107OSM    C5F11017   5.539  -0.384  10.198 -0.8341 -0.0541 -0.0101
  107OSM    H5F11018   5.611  -0.305  10.167 -4.0315  2.6605 -1.1987
  107OSM    H5G11019   5.434  -0.347  10.186 -1.4189 -1.3038  1.0485
  107OSM    C6F11020   5.567  -0.508  10.125 -0.2139 -0.1305 -0.1651
  107OSM    H6F11021   5.519  -0.504  10.024  0.3819 -0.6924 -0.4723
  107OSM    H6G11022   5.528  -0.594  10.184  1.2526 -1.0529 -0.4991
  107OSM    C7F11023   5.719  -0.536  10.100 -0.3929  0.4402 -0.5010
  107OSM    H7F11024   5.771  -0.528  10.198  1.1171  2.5022 -1.3956
  107OSM    H7G11025   5.770  -0.456  10.042  2.2877 -0.3676  0.5768
  107OSM    C8F11026   5.752  -0.675  10.047 -0.1891  0.7249 -0.5664
  107OSM    H8F11027   5.703  -0.736  10.125 -0.4222 -0.4956 -1.6404
  107OSM    H8G11028   5.863  -0.669  10.057 -0.3282  1.0364  1.1609
  107OSM    C9F11029   5.704  -0.689   9.907 -0.0067  0.6234 -0.1324
  107OSM    H9F11030   5.635  -0.609   9.874 -0.2559  0.1344 -0.8251
  107OSM   C10F11031   5.747  -0.781   9.826 -0.0151 -0.2302 -0.1463
  107OSM   H10F11032   5.715  -0.765   9.722 -0.3848  2.3911  0.3218
  107OSM   C11F11033   5.847  -0.893   9.842 -0.1872 -0.4673 -0.3491
  107OSM   H11F11034   5.810  -0.998   9.838 -0.4466 -0.3535 -3.2509
  107OSM   H11G11035   5.877  -0.892   9.949 -1.7050 -0.2549  0.0997
  107OSM   C12F11036   5.970  -0.883   9.757 -0.5850  0.1155 -0.0517
  107OSM   H12F11037   6.013  -0.782   9.774 -3.3881  1.3322  0.3882
  107OSM   H12G11038   5.933  -0.870   9.653  3.1085  0.4229 -1.4878
  107OSM   C13F11039   6.066  -1.004   9.761  0.0003 -0.4002  0.7152
  107OSM   H13F11040   6.145  -0.991   9.684 -0.5242  2.2340  0.5399
  107OSM   H13G11041   6.011  -1.096   9.734  2.7113 -1.5255 -1.4059
  107OSM   C14F11042   6.144  -1.030   9.890 -0.0662  0.5442  0.0775
  107OSM   H14F11043   6.182  -0.942   9.947  0.8538 -2.1436  4.0438
  107OSM   H14G11044   6.224  -1.101   9.858 -0.7561 -0.9945  1.6063
  107OSM   C15F11045   6.064  -1.112  10.005 -0.1179 -0.6765  0.1755
  107OSM   H15F11046   6.023  -1.210   9.973  2.1810 -2.4987  2.3693
  107OSM   H15G11047   5.978  -1.049  10.036 -0.2031 -0.4856 -0.4451
  107OSM   C16F11048   6.167  -1.139  10.111  0.0720  0.4321  0.4271
  107OSM   H16F11049   6.272  -1.146  10.074 -0.1387  1.3264 -0.3762
  107OSM   H16G11050   6.141  -1.236  10.159  1.7841 -0.8931 -1.1780
  107OSM   C17F11051   6.165  -1.044  10.231  0.1680 -0.2250  0.0683
  107OSM   H17F11052   6.154  -1.101  10.326  0.9497 -0.9033 -0.2415
  107OSM   H17G11053   6.082  -0.971  10.218 -1.0210 -1.8190 -1.8055
  107OSM   C18F11054   6.294  -0.976  10.258 -0.7815  0.1883  0.2131
  107OSM   H18F11055   6.321  -0.916  10.168  0.0390  1.9610  1.5728
  107OSM   H18G11056   6.374  -1.045  10.290 -1.2125  1.4661  4.7327
  107OSM   H18H11057   6.285  -0.899  10.338 -1.6589 -0.2197  0.5200
  108OSM      N11058   2.892   4.354  10.754  0.4073  0.2503  0.1136
  108OSM    C1511059   2.887   4.311  10.901  0.1038 -0.0523  0.0179
  108OSM   H15A11060   2.844   4.213  10.918  0.9953 -0.4270  0.1572
  108OSM   H15B11061   2.843   4.387  10.964  0.1459  0.1088 -0.1487
  108OSM   H15C11062   2.989   4.294  10.932  0.2652  1.0503  0.1216
  108OSM    C1411063   2.956   4.488  10.741  0.4257  0.9282  0.4026
  108OSM   H14A11064   2.973   4.511  10.637  4.1890 -0.9377  0.4388
  108OSM   H14B11065   3.057   4.488  10.778  0.6077 -0.2719 -0.0289
  108OSM   H14C11066   2.900   4.564  10.792 -2.1644 -0.9709  0.6113
  108OSM    C1311067   2.966   4.252  10.678  0.5497  0.6745  0.1205
  108OSM   H13A11068   3.069   4.253  10.710  0.5406  1.1088  0.1372
  108OSM   H13B11069   2.967   4.263  10.571  2.4571 -2.0745 -0.2662
  108OSM   H13C11070   2.913   4.158  10.682  0.9245  0.3904 -1.1382
  108OSM    C1211071   2.757   4.344  10.688  0.3535 -0.4727  0.6238
  108OSM   H12A11072   2.733   4.239  10.682 -1.2465 -0.0300 -2.3910
  108OSM   H12B11073   2.776   4.379  10.588 -0.1555 -2.3290 -0.1627
  108OSM    C1111074   2.640   4.427  10.739 -0.3855 -0.2638 -0.1409
  108OSM   H11A11075   2.622   4.407  10.846  1.4078  0.1091  0.2712
  108OSM   H11B11076   2.543   4.407  10.689 -0.9943 -0.3664  1.0444
  108OSM      P11077   2.633   4.666  10.613  0.1238 -0.0336 -0.0926
  108OSM    O1311078   2.485   4.682  10.612 -0.2500 -0.5872 -0.7766
  108OSM    O1411079   2.716   4.783  10.631  0.1288 -0.0973 -0.1976
  108OSM    O1111080   2.676   4.594  10.477  0.0568  0.0772 -0.8229
  108OSM    O1211081   2.665   4.565  10.731 -0.0279 -0.4286 -0.2326
  108OSM    C1S11082   2.630   4.651  10.354 -0.4061  0.0490  0.3007
  108OSM    H1S11083   2.705   4.721  10.313 -1.3581  0.0417 -1.5399
  108OSM    H1T11084   2.531   4.701  10.355 -1.2284 -1.4342  2.7797
  108OSM     NF11085   2.565   4.600  10.136  0.1325  0.7273  0.0157
  108OSM    HNF11086   2.467   4.621  10.135  0.2282  1.1971  0.4562
  108OSM    C2S11087   2.611   4.534  10.254  0.1327  0.3949  0.1760
  108OSM    H2S11088   2.702   4.472  10.239 -0.1491  0.3125 -1.3158
  108OSM    C3S11089   2.502   4.433  10.303 -0.3815 -0.2858 -0.2077
  108OSM    H3S11090   2.418   4.503  10.321  0.1402  0.5980 -1.1186
  108OSM     O311091   2.533   4.374  10.428 -0.0683  0.2559 -0.2329
  108OSM    HO311092   2.618   4.414  10.448 -0.6858  1.0868  0.8230
  108OSM    C4S11093   2.470   4.329  10.197 -0.3069  0.6396 -0.5508
  108OSM    H4S11094   2.550   4.288  10.133 -1.5060  0.3535 -1.9288
  108OSM    C5S11095   2.338   4.292  10.168 -0.0461 -0.0512  0.7610
  108OSM    H5S11096   2.268   4.342  10.237  0.7963  3.0062 -0.4692
  108OSM    C6S11097   2.285   4.190  10.075  0.3779  0.7283  0.3898
  108OSM    H6S11098   2.204   4.239  10.017  1.1153  0.9229 -0.4959
  108OSM    H6T11099   2.235   4.114  10.139 -1.3013 -0.3317 -2.0452
  108OSM    C7S11100   2.387   4.109   9.985  0.2604  0.2066 -0.5674
  108OSM    H7S11101   2.465   4.064  10.049 -2.3651 -1.2751  1.7791
  108OSM    H7T11102   2.425   4.184   9.912 -0.9520  1.6783  0.2484
  108OSM    C8S11103   2.312   4.000   9.908  0.1082 -0.4538 -0.4253
  108OSM    H8S11104   2.244   4.054   9.840 -1.3695  0.6697  1.8141
  108OSM    H8T11105   2.251   3.947   9.985  2.0484 -0.6239  1.0835
  108OSM    C9S11106   2.413   3.905   9.839  0.3366  0.4183 -0.1105
  108OSM    H9S11107   2.466   3.858   9.925 -0.4394  2.1239  1.3554
  108OSM    H9T11108   2.489   3.965   9.783 -0.6844 -0.3235 -2.4288
  108OSM   C10S11109   2.350   3.796   9.750 -0.6203  0.5127  0.2819
  108OSM   H10S11110   2.266   3.745   9.802  0.3972 -0.3957  1.0690
  108OSM   H10T11111   2.427   3.716   9.743  1.0190  2.0547  0.0161
  108OSM   C11S11112   2.324   3.842   9.605  0.3279  0.0324 -1.0932
  108OSM   H11S11113   2.428   3.863   9.573  0.5659  0.3571 -0.1120
  108OSM   H11T11114   2.270   3.939   9.603 -2.1888 -1.1934  0.9147
  108OSM   C12S11115   2.257   3.731   9.521 -0.2356 -0.7081  0.2065
  108OSM   H12S11116   2.156   3.718   9.567 -0.7192  2.2304  0.1667
  108OSM   H12T11117   2.311   3.639   9.551  1.0201  1.1720  4.5351
  108OSM   C13S11118   2.230   3.769   9.370 -0.4392 -0.0261 -0.7355
  108OSM   H13S11119   2.330   3.790   9.327 -0.3499 -1.5606 -1.3185
  108OSM   H13T11120   2.174   3.865   9.378  0.3069  0.4148 -0.7218
  108OSM   C14S11121   2.148   3.661   9.299 -0.0851  0.0019 -1.2438
  108OSM   H14S11122   2.054   3.618   9.340  1.7297 -2.6403  0.4866
  108OSM   H14T11123   2.219   3.576   9.299  1.7742  1.4898 -1.1089
  108OSM   C15S11124   2.127   3.696   9.153  0.1062  0.1529 -0.0920
  108OSM   H15S11125   2.226   3.711   9.106 -0.0616 -1.4924 -1.0321
  108OSM   H15T11126   2.082   3.798   9.150  0.5684  0.3489 -2.5300
  108OSM   C16S11127   2.034   3.605   9.085  0.8421  0.7140  0.1244
  108OSM   H16S11128   1.939   3.580   9.137  0.8422  0.0864 -0.1670
  108OSM   H16T11129   2.090   3.510   9.090  2.1628  1.5319  2.5008
  108OSM   C17S11130   2.002   3.641   8.949  0.4270 -0.4442 -0.2405
  108OSM   H17S11131   2.090   3.638   8.880 -1.5830 -1.8889 -2.9306
  108OSM   H17T11132   1.968   3.747   8.946 -0.9159 -0.8469  0.2511
  108OSM   C18S11133   1.902   3.542   8.881  0.3461  0.1805 -0.0714
  108OSM   H18S11134   1.939   3.437   8.893  0.3795  0.0390 -1.2884
  108OSM   H18T11135   1.899   3.563   8.772  0.7797  2.0715  0.2529
  108OSM   H18U11136   1.798   3.553   8.919  0.3542 -1.3799  0.5171
  108OSM    C1F11137   2.665   4.650  10.057 -0.5293 -0.2962 -0.0448
  108OSM     OF11138   2.782   4.635  10.088 -0.1679  0.2278 -0.2515
  108OSM    C2F11139   2.617   4.710   9.931  0.3199 -0.1643 -0.1202
  108OSM    H2F11140   2.600   4.820   9.940  0.2051 -0.3817  3.6229
  108OSM    H2G11141   2.528   4.666   9.881  1.4226 -1.3220 -1.1378
  108OSM    C3F11142   2.726   4.712   9.812  0.1839  1.0985 -0.2160
  108OSM    H3F11143   2.772   4.612   9.819  2.2825  2.1478  2.8917
  108OSM    H3G11144   2.806   4.787   9.830 -0.6165  1.8017  0.4721
  108OSM    C4F11145   2.651   4.754   9.690  0.5831 -1.0972  0.3747
  108OSM    H4F11146   2.647   4.863   9.712 -3.3427 -0.8855 -0.5604
  108OSM    H4G11147   2.551   4.705   9.681  1.2851 -2.5798  0.3188
  108OSM    C5F11148   2.726   4.739   9.558 -0.2293 -0.1734  0.4230
  108OSM    H5F11149   2.836   4.743   9.570 -0.1062  1.5135 -0.8229
  108OSM    H5G11150   2.714   4.822   9.485  3.2666 -0.1799 -0.3158
  108OSM    C6F11151   2.689   4.603   9.490 -0.6470 -0.3393 -0.4481
  108OSM    H6F11152   2.586   4.625   9.457 -1.4959 -1.4603  1.3428
  108OSM    H6G11153   2.691   4.517   9.561  0.2110  1.0509  1.3181
  108OSM    C7F11154   2.773   4.550   9.371 -0.3302 -0.7228 -0.1095
  108OSM    H7F11155   2.757   4.621   9.286  0.4073 -0.7223 -0.2567
  108OSM    H7G11156   2.730   4.451   9.345 -0.5141 -0.6778  0.0302
  108OSM    C8F11157   2.921   4.531   9.413 -0.1846 -0.1015 -0.7864
  108OSM    H8F11158   2.912   4.485   9.514  1.1239  1.1395 -0.0873
  108OSM    H8G11159   2.973   4.627   9.428  0.3990 -0.4229 -0.7408
  108OSM    C9F11160   2.996   4.450   9.317 -1.1757  0.2231  0.3367
  108OSM    H9F11161   3.036   4.359   9.363  1.3374  1.1008  0.0172
  108OSM   C10F11162   3.017   4.468   9.182 -0.1649 -0.4541 -0.9560
  108OSM   H10F11163   3.077   4.394   9.125 -0.0047  0.4278 -1.9624
  108OSM   C11F11164   2.979   4.590   9.108 -0.2110 -0.7552  0.0952
  108OSM   H11F11165   2.951   4.668   9.182  1.6208  0.4543 -0.4108
  108OSM   H11G11166   2.885   4.579   9.049  0.7875  0.7837 -1.9203
  108OSM   C12F11167   3.076   4.636   8.992 -0.4175 -0.3607  0.0549
  108OSM   H12F11168   3.115   4.548   8.937  1.7198  0.3905  0.2915
  108OSM   H12G11169   3.157   4.687   9.048 -0.8448 -0.4543  0.7771
  108OSM   C13F11170   3.018   4.745   8.902 -0.1905 -0.3164  0.0305
  108OSM   H13F11171   2.998   4.841   8.954 -2.9480  0.2395 -1.8557
  108OSM   H13G11172   2.914   4.715   8.876  0.0816 -1.2227 -0.0416
  108OSM   C14F11173   3.104   4.765   8.776  0.0458  0.4567  0.4844
  108OSM   H14F11174   3.125   4.663   8.736  1.1798  0.1192  1.8449
  108OSM   H14G11175   3.206   4.801   8.799  0.4399  0.5371 -1.2677
  108OSM   C15F11176   3.034   4.837   8.671  0.3704  0.1849 -0.5892
  108OSM   H15F11177   3.011   4.931   8.726 -0.2351 -1.0523  1.3720
  108OSM   H15G11178   2.941   4.791   8.634  0.0650 -1.3295  1.8074
  108OSM   C16F11179   3.115   4.867   8.542  0.3145 -0.3724  0.1085
  108OSM   H16F11180   3.179   4.776   8.540 -1.9907 -2.0875  0.1420
  108OSM   H16G11181   3.178   4.959   8.553  0.9019 -0.6349 -0.8793
  108OSM   C17F11182   3.044   4.849   8.406 -0.1576 -0.6440  0.1628
  108OSM   H17F11183   2.991   4.751   8.411 -1.4305 -0.0537 -1.0730
  108OSM   H17G11184   3.110   4.849   8.317 -0.8216  2.9787 -0.4490
  108OSM   C18F11185   2.945   4.960   8.402  0.4809 -0.2084 -0.3687
  108OSM   H18F11186   2.988   5.055   8.442  1.7224 -1.4044  1.2899
  108OSM   H18G11187   2.863   4.944   8.475  0.8652  0.3841  0.2025
  108OSM   H18H11188   2.899   4.972   8.302  0.0900  0.3995 -0.1197
  109OSM      N11189   3.663   4.242  10.946  0.5405 -0.0967  0.4666
  109OSM    C1511190   3.786   4.255  11.031 -0.9847  0.9529 -0.2612
  109OSM   H15A11191   3.849   4.342  11.021 -0.2335  0.2355 -2.1495
  109OSM   H15B11192   3.841   4.163  11.022 -1.7044  0.5689 -0.9164
  109OSM   H15C11193   3.768   4.251  11.138  1.4371 -1.3994  0.1592
  109OSM    C1411194   3.616   4.098  10.952 -0.0121  0.4975 -0.7012
  109OSM   H14A11195   3.598   4.066  11.053 -1.5082  0.3281 -0.9906
  109OSM   H14B11196   3.695   4.035  10.913  0.3474 -1.6912  3.0686
  109OSM   H14C11197   3.536   4.080  10.881  1.1294 -1.5755 -1.5730
  109OSM    C1311198   3.553   4.321  11.001 -0.3971  0.2416 -0.5799
  109OSM   H13A11199   3.511   4.296  11.097 -0.3907 -0.1623 -0.6801
  109OSM   H13B11200   3.469   4.301  10.936 -1.8089 -0.7034  1.4262
  109OSM   H13C11201   3.577   4.426  10.990  0.2163  0.2702  0.8842
  109OSM    C1211202   3.686   4.282  10.805  0.8302  0.2143 -0.0000
  109OSM   H12A11203   3.751   4.203  10.769 -0.5467 -0.7203 -0.5235
  109OSM   H12B11204   3.733   4.379  10.794 -2.3898  2.0388  1.1305
  109OSM    C1111205   3.559   4.283  10.715 -0.0402  0.1081  0.2842
  109OSM   H11A11206   3.501   4.189  10.722 -1.8334  1.2405  1.5428
  109OSM   H11B11207   3.601   4.296  10.613  2.1333 -0.1169  1.1076
  109OSM      P11208   3.320   4.388  10.683 -0.2199  0.1424  0.0881
  109OSM    O1311209   3.263   4.260  10.732  0.2151  0.6384  0.2587
  109OSM    O1411210   3.253   4.516  10.703 -0.0018 -0.1397  0.2733
  109OSM    O1111211   3.357   4.368  10.530  0.0007 -0.1538  0.5925
  109OSM    O1211212   3.465   4.395  10.749 -0.2149  0.4751  0.4503
  109OSM    C1S11213   3.413   4.476  10.451  0.0465  0.7254 -0.3016
  109OSM    H1S11214   3.522   4.469  10.468  0.0237 -1.9485 -0.7168
  109OSM    H1T11215   3.369   4.576  10.471  1.8571  1.4467  0.3283
  109OSM     NF11216   3.467   4.553  10.210  0.0974 -0.1858  0.6068
  109OSM    HNF11217   3.409   4.606  10.148  2.4892  3.0385  0.8944
  109OSM    C2S11218   3.405   4.445  10.294 -0.4571 -0.4877  0.1037
  109OSM    H2S11219   3.458   4.353  10.259  1.6522 -0.1346  2.1114
  109OSM    C3S11220   3.261   4.418  10.250  0.2030 -0.0133  0.9883
  109OSM    H3S11221   3.192   4.503  10.266  0.7258  0.1872  2.3420
  109OSM     O311222   3.189   4.314  10.319 -0.1525 -0.1952  0.5735
  109OSM    HO311223   3.230   4.308  10.405  0.8602  1.3876  0.2598
  109OSM    C4S11224   3.259   4.401  10.100  0.3530 -1.0867 -0.2997
  109OSM    H4S11225   3.348   4.345  10.065  2.1464  1.7033 -0.5315
  109OSM    C5S11226   3.159   4.441  10.019  0.9626  0.0863  0.1520
  109OSM    H5S11227   3.073   4.493  10.063  0.9352 -0.2335  0.4851
  109OSM    C6S11228   3.155   4.425   9.869 -0.3615  0.9648 -0.3902
  109OSM    H6S11229   3.057   4.393   9.827  0.2422 -2.1793  0.3410
  109OSM    H6T11230   3.205   4.329   9.845 -0.4426  0.8050  0.0837
  109OSM    C7S11231   3.207   4.545   9.788  0.4442 -0.1551  0.8136
  109OSM    H7S11232   3.288   4.598   9.843 -0.8523  0.1574  2.5004
  109OSM    H7T11233   3.132   4.624   9.768  1.9609  0.9315 -0.8490
  109OSM    C8S11234   3.284   4.501   9.659  0.6572  0.5350 -0.6936
  109OSM    H8S11235   3.220   4.445   9.587 -1.2198 -0.2772  1.4925
  109OSM    H8T11236   3.367   4.434   9.692 -0.3555 -0.3460  0.1251
  109OSM    C9S11237   3.353   4.627   9.591 -0.2173  0.1655  0.1898
  109OSM    H9S11238   3.435   4.589   9.527 -1.8270 -0.1270 -1.8169
  109OSM    H9T11239   3.391   4.696   9.669  1.8155 -0.3152 -0.3202
  109OSM   C10S11240   3.247   4.704   9.507  0.0348  0.4020  0.4815
  109OSM   H10S11241   3.170   4.747   9.575 -0.0175 -2.3160  2.3117
  109OSM   H10T11242   3.198   4.632   9.439  1.7809  0.8929 -1.3808
  109OSM   C11S11243   3.300   4.818   9.419 -0.1360  0.0343  0.8986
  109OSM   H11S11244   3.372   4.779   9.344 -2.1962 -0.9318 -0.6715
  109OSM   H11T11245   3.363   4.882   9.485  0.9727 -1.3725  1.2589
  109OSM   C12S11246   3.194   4.901   9.354  0.2785 -0.4847  0.3949
  109OSM   H12S11247   3.135   4.954   9.431  1.9644  2.6196 -0.2978
  109OSM   H12T11248   3.118   4.841   9.299 -1.2026  0.0770  1.7479
  109OSM   C13S11249   3.250   5.001   9.255 -0.0668 -0.6893 -0.4695
  109OSM   H13S11250   3.355   5.027   9.282  0.2936 -2.1618 -0.3597
  109OSM   H13T11251   3.194   5.096   9.265  0.8028 -0.3690  2.0839
  109OSM   C14S11252   3.260   4.948   9.112 -0.2009  0.3534 -0.0685
  109OSM   H14S11253   3.165   4.894   9.092 -1.4246  2.1364  0.7962
  109OSM   H14T11254   3.334   4.867   9.095 -0.2114  0.3908 -0.2986
  109OSM   C15S11255   3.273   5.049   9.002  0.5016  0.6345  0.0237
  109OSM   H15S11256   3.325   4.996   8.919  1.1388 -0.4516  1.0920
  109OSM   H15T11257   3.353   5.110   9.049  0.0572 -1.1259  3.3398
  109OSM   C16S11258   3.147   5.121   8.956 -0.4015 -0.7627  0.3212
  109OSM   H16S11259   3.121   5.199   9.032 -1.2469  1.2895 -1.9297
  109OSM   H16T11260   3.061   5.052   8.940 -0.9029  0.0093 -0.3963
  109OSM   C17S11261   3.179   5.198   8.824  0.5594 -0.3910 -0.2008
  109OSM   H17S11262   3.220   5.122   8.754  1.0861  0.3503 -0.7024
  109OSM   H17T11263   3.268   5.259   8.848  0.4762 -0.3358 -0.0271
  109OSM   C18S11264   3.065   5.277   8.761  0.4556  1.0286  0.3284
  109OSM   H18S11265   3.098   5.326   8.666  0.4041 -0.0202 -0.2487
  109OSM   H18T11266   3.027   5.347   8.838 -0.3853  1.7055 -0.6625
  109OSM   H18U11267   2.976   5.214   8.737  0.3520  1.7383 -1.3340
  109OSM    C1F11268   3.594   4.587  10.231 -0.1401  0.0544 -0.4854
  109OSM     OF11269   3.676   4.510  10.286  0.2758 -0.6883  0.6079
  109OSM    C2F11270   3.631   4.730  10.209  0.0274 -0.5619  0.0058
  109OSM    H2F11271   3.696   4.756  10.295  0.0650 -1.1488  0.1617
  109OSM    H2G11272   3.533   4.779  10.223 -2.0987 -3.7136 -2.5159
  109OSM    C3F11273   3.706   4.768  10.077 -0.1724 -0.5405  0.4262
  109OSM    H3F11274   3.801   4.709  10.079  0.8039  0.9825  0.5906
  109OSM    H3G11275   3.739   4.873  10.091 -0.6252 -0.6182  2.3305
  109OSM    C4F11276   3.642   4.746   9.942 -0.0038  0.3772  0.1395
  109OSM    H4F11277   3.543   4.795   9.944  0.8686  2.2499  0.0219
  109OSM    H4G11278   3.638   4.635   9.945 -0.0520  0.3768  0.0556
  109OSM    C5F11279   3.741   4.780   9.829 -0.0905  0.1530 -0.3038
  109OSM    H5F11280   3.821   4.703   9.824  0.8588  0.9691  1.4142
  109OSM    H5G11281   3.797   4.875   9.840  0.4261 -0.2550  0.7138
  109OSM    C6F11282   3.665   4.785   9.697 -0.1311 -0.1501  0.2652
  109OSM    H6F11283   3.583   4.858   9.714 -0.7268 -1.0551  1.4332
  109OSM    H6G11284   3.619   4.687   9.673 -1.5283  0.8338 -1.3582
  109OSM    C7F11285   3.756   4.841   9.589 -0.1030 -0.6576  0.5654
  109OSM    H7F11286   3.851   4.783   9.585  1.4730  1.8435 -1.5547
  109OSM    H7G11287   3.791   4.946   9.595 -1.3236 -0.3131  3.0829
  109OSM    C8F11288   3.684   4.827   9.459 -0.3852  1.0283  0.7090
  109OSM    H8F11289   3.597   4.896   9.453 -0.7986  0.7587  2.7645
  109OSM    H8G11290   3.650   4.722   9.452 -0.6704  1.2358 -1.5134
  109OSM    C9F11291   3.787   4.847   9.350  0.2560  0.4462 -0.5435
  109OSM    H9F11292   3.865   4.770   9.362 -0.4987 -0.2202  0.2182
  109OSM   C10F11293   3.786   4.935   9.248 -0.4428 -0.4576 -0.1648
  109OSM   H10F11294   3.875   4.927   9.185 -0.1657  0.4640  0.0862
  109OSM   C11F11295   3.692   5.041   9.205  0.1324  0.4306 -0.2763
  109OSM   H11F11296   3.752   5.134   9.198 -0.5155  1.2037  2.9889
  109OSM   H11G11297   3.612   5.054   9.281 -3.1265  1.6570 -3.6119
  109OSM   C12F11298   3.635   5.033   9.064  0.1165  0.1577 -0.6238
  109OSM   H12F11299   3.543   5.094   9.051 -0.9860 -1.1156  0.9152
  109OSM   H12G11300   3.600   4.929   9.047  0.4992  0.1682 -1.5307
  109OSM   C13F11301   3.739   5.061   8.954 -0.3076 -0.6337 -0.2542
  109OSM   H13F11302   3.818   4.983   8.950  2.3830  1.9333 -0.7056
  109OSM   H13G11303   3.792   5.156   8.979  0.5648 -0.3617 -2.8422
  109OSM   C14F11304   3.677   5.070   8.816 -0.1704 -0.7907 -0.8878
  109OSM   H14F11305   3.736   5.137   8.750  0.0050 -1.5226 -1.4970
  109OSM   H14G11306   3.583   5.126   8.829 -0.1691 -1.3757  2.3027
  109OSM   C15F11307   3.667   4.936   8.742  0.3018 -0.0193 -0.0156
  109OSM   H15F11308   3.594   4.868   8.791  1.7626 -1.1362  0.6756
  109OSM   H15G11309   3.768   4.889   8.735 -0.3570 -1.3278 -1.5573
  109OSM   C16F11310   3.619   4.961   8.600 -0.0592  0.2930  0.2930
  109OSM   H16F11311   3.648   4.881   8.529  0.0658  2.2671 -2.0340
  109OSM   H16G11312   3.687   5.037   8.557  1.4916 -0.2464  1.6664
  109OSM   C17F11313   3.471   4.992   8.581  0.2344 -0.1678 -0.6190
  109OSM   H17F11314   3.432   5.058   8.662 -1.1066 -2.7964  0.9947
  109OSM   H17G11315   3.426   4.892   8.595  0.8619 -0.2548  0.8283
  109OSM   C18F11316   3.437   5.032   8.437 -0.3928  0.2003 -0.2520
  109OSM   H18F11317   3.472   4.948   8.374  1.9592  1.5983 -0.9223
  109OSM   H18G11318   3.500   5.120   8.411  0.2834 -0.5064 -1.0507
  109OSM   H18H11319   3.328   5.055   8.430 -0.6454  0.0401  2.1215
  110OSM      N11320   4.404   5.587  11.049  0.3522 -1.0508 -0.6759
  110OSM    C1511321   4.270   5.555  10.995  0.4963 -0.7588  0.2655
  110OSM   H15A11322   4.279   5.560  10.887 -0.3605 -1.9544  0.1175
  110OSM   H15B11323   4.189   5.621  11.025  0.7550  0.4040 -1.4232
  110OSM   H15C11324   4.239   5.459  11.032  0.8399 -0.6866  0.7445
  110OSM    C1411325   4.453   5.717  10.995  0.1830 -0.0559 -0.4465
  110OSM   H14A11326   4.473   5.714  10.889  1.1136  0.3952 -0.2936
  110OSM   H14B11327   4.547   5.745  11.040  0.5630  0.3274 -1.4501
  110OSM   H14C11328   4.388   5.802  11.014  1.7106  1.3155 -1.1293
  110OSM    C1311329   4.389   5.600  11.200 -0.2078  0.0972 -0.5381
  110OSM   H13A11330   4.333   5.689  11.226  0.7579  1.0511 -1.6358
  110OSM   H13B11331   4.484   5.608  11.250 -0.3032  1.2639 -0.5340
  110OSM   H13C11332   4.326   5.521  11.238 -0.8431  1.7277  2.0553
  110OSM    C1211333   4.511   5.477  11.020 -0.3224 -0.1251  0.0937
  110OSM   H12A11334   4.485   5.387  11.072  0.4643 -0.3756  0.0627
  110OSM   H12B11335   4.605   5.518  11.053 -0.7065  0.1410  0.8911
  110OSM    C1111336   4.534   5.438  10.870  0.0085 -0.3594  0.1082
  110OSM   H11A11337   4.436   5.428  10.819  0.2576  0.9886 -0.7004
  110OSM   H11B11338   4.585   5.340  10.863  0.1017 -0.4569  1.8988
  110OSM      P11339   4.754   5.567  10.812 -0.4254 -0.0259  0.3086
  110OSM    O1311340   4.785   5.681  10.719  0.0688  0.0693  0.0159
  110OSM    O1411341   4.789   5.585  10.951  0.9889 -0.0893  0.3166
  110OSM    O1111342   4.823   5.432  10.753  0.9041 -0.2141 -0.2814
  110OSM    O1211343   4.603   5.539  10.792 -0.5576 -1.1280 -0.0758
  110OSM    C1S11344   4.777   5.375  10.634  0.2513 -0.5040 -0.5477
  110OSM    H1S11345   4.670   5.397  10.613  0.5131  0.1473 -1.2611
  110OSM    H1T11346   4.771   5.266  10.651 -0.2437 -1.1071 -3.8930
  110OSM     NF11347   4.800   5.375  10.389  0.4908  0.3727  0.1697
  110OSM    HNF11348   4.833   5.310  10.320 -1.1263 -0.5119  0.1909
  110OSM    C2S11349   4.865   5.422  10.515 -0.0913 -0.2714  0.2286
  110OSM    H2S11350   4.877   5.533  10.516 -0.0266 -0.2734  1.4476
  110OSM    C3S11351   5.007   5.370  10.537 -0.0506 -0.0333  0.4010
  110OSM    H3S11352   5.012   5.259  10.535  0.7233 -0.0094  0.4489
  110OSM     O311353   5.059   5.395  10.666 -0.3980  0.6483 -0.4996
  110OSM    HO311354   4.983   5.374  10.721 -0.8663  1.4688 -0.8198
  110OSM    C4S11355   5.106   5.416  10.436 -0.2280  0.3949 -0.4005
  110OSM    H4S11356   5.147   5.515  10.458  0.0062 -0.0980  1.5744
  110OSM    C5S11357   5.162   5.333  10.343 -0.6169 -0.1199  0.4030
  110OSM    H5S11358   5.145   5.224  10.339 -1.4524  0.0511 -1.9683
  110OSM    C6S11359   5.265   5.387  10.254 -0.3806 -0.3578 -0.0203
  110OSM    H6S11360   5.354   5.322  10.263 -0.7832 -0.6648  3.0373
  110OSM    H6T11361   5.295   5.494  10.264 -0.4129 -0.4353  1.0854
  110OSM    C7S11362   5.212   5.360  10.114  0.3872 -0.5593  0.8133
  110OSM    H7S11363   5.124   5.421  10.088  1.2204  0.4946  0.3757
  110OSM    H7T11364   5.176   5.256  10.101  1.0579 -0.7240  0.1430
  110OSM    C8S11365   5.318   5.400  10.015 -0.9290 -0.0553 -0.0435
  110OSM    H8S11366   5.418   5.361  10.046 -0.7410 -1.0526 -1.7895
  110OSM    H8T11367   5.328   5.510  10.021 -1.0510 -0.0652  0.3959
  110OSM    C9S11368   5.297   5.367   9.875  0.4512  0.5545 -0.0032
  110OSM    H9S11369   5.203   5.415   9.840  2.0343  1.9895 -2.5706
  110OSM    H9T11370   5.288   5.257   9.859  1.3373  0.7014 -1.7382
  110OSM   C10S11371   5.413   5.408   9.782  0.3489 -0.2250 -0.1462
  110OSM   H10S11372   5.511   5.369   9.817  2.2862  2.4969 -2.0957
  110OSM   H10T11373   5.407   5.519   9.787 -0.4571 -0.2623 -0.0308
  110OSM   C11S11374   5.384   5.372   9.633  0.0291  0.6317  0.3231
  110OSM   H11S11375   5.279   5.340   9.611 -0.5059  0.4115  2.8687
  110OSM   H11T11376   5.440   5.282   9.599 -0.8349  0.3768 -0.4617
  110OSM   C12S11377   5.414   5.494   9.539 -0.2284 -0.0237  0.5147
  110OSM   H12S11378   5.519   5.525   9.560 -0.3882  1.3004 -0.5439
  110OSM   H12T11379   5.355   5.586   9.558 -1.4536  0.0000 -2.8676
  110OSM   C13S11380   5.395   5.463   9.392 -0.0507  0.1626  0.0020
  110OSM   H13S11381   5.286   5.445   9.388 -0.7440  3.1227  2.5765
  110OSM   H13T11382   5.445   5.368   9.364 -1.9774 -0.3314 -2.0675
  110OSM   C14S11383   5.443   5.572   9.291  0.5441  0.0885 -0.0141
  110OSM   H14S11384   5.545   5.601   9.325  0.6429 -2.4511  2.1586
  110OSM   H14T11385   5.379   5.661   9.310 -0.9224 -0.5338 -1.8408
  110OSM   C15S11386   5.431   5.530   9.141  1.2113  0.3110  0.9630
  110OSM   H15S11387   5.495   5.446   9.106 -1.2841 -0.7012 -1.6286
  110OSM   H15T11388   5.454   5.623   9.084 -0.7139  0.1926 -0.0974
  110OSM   C16S11389   5.282   5.492   9.102  0.8667 -0.6988 -0.1416
  110OSM   H16S11390   5.237   5.591   9.124 -0.7920 -1.4023 -0.2451
  110OSM   H16T11391   5.240   5.406   9.158  1.0027 -1.1606 -0.7377
  110OSM   C17S11392   5.258   5.483   8.952  0.4346  0.0393  0.1653
  110OSM   H17S11393   5.314   5.406   8.895 -1.9997 -0.6219 -1.5160
  110OSM   H17T11394   5.300   5.576   8.908  1.6650 -1.5298 -2.1499
  110OSM   C18S11395   5.111   5.473   8.909 -0.2901 -0.1708  0.5313
  110OSM   H18S11396   5.076   5.370   8.931 -0.5942 -0.1752  0.0330
  110OSM   H18T11397   5.096   5.492   8.801  2.2409 -1.6101 -0.1445
  110OSM   H18U11398   5.039   5.542   8.959 -1.2603  1.0055 -2.2947
  110OSM    C1F11399   4.685   5.433  10.350  0.2295 -0.3323  0.2590
  110OSM     OF11400   4.659   5.544  10.394 -0.3143 -0.1096 -0.4845
  110OSM    C2F11401   4.609   5.364  10.245  0.0188  0.4167  0.4447
  110OSM    H2F11402   4.672   5.283  10.201 -0.6168  0.3000 -0.2810
  110OSM    H2G11403   4.581   5.444  10.173  0.1512  0.1585  0.1021
  110OSM    C3F11404   4.474   5.320  10.303  0.3513  0.0140 -0.3278
  110OSM    H3F11405   4.416   5.395  10.361  0.4875  1.8780 -2.4600
  110OSM    H3G11406   4.515   5.255  10.384 -0.2683 -0.9745 -0.7962
  110OSM    C4F11407   4.384   5.227  10.221 -0.2857 -0.1406  0.4581
  110OSM    H4F11408   4.310   5.178  10.288 -0.5688 -1.4378 -0.7609
  110OSM    H4G11409   4.440   5.151  10.163 -0.5895 -0.7951  1.0074
  110OSM    C5F11410   4.291   5.314  10.129  0.0967  0.3244 -0.3319
  110OSM    H5F11411   4.270   5.410  10.181 -1.6830 -1.2671  2.0676
  110OSM    H5G11412   4.194   5.262  10.122 -0.7937  1.6661  1.3595
  110OSM    C6F11413   4.322   5.324   9.981 -0.8140 -0.0026  0.1269
  110OSM    H6F11414   4.237   5.364   9.922  0.8875  1.4166 -1.4937
  110OSM    H6G11415   4.329   5.219   9.945 -0.2146 -1.1255  3.1924
  110OSM    C7F11416   4.453   5.400   9.941  0.2701  0.3917  0.4919
  110OSM    H7F11417   4.537   5.361  10.001  1.9760  0.6882 -1.5784
  110OSM    H7G11418   4.456   5.508   9.967 -0.8778  0.3608  0.8202
  110OSM    C8F11419   4.505   5.359   9.792  0.2034 -0.3827  0.3787
  110OSM    H8F11420   4.489   5.250   9.777  0.2706 -0.2647 -0.6150
  110OSM    H8G11421   4.613   5.382   9.784  0.3765 -1.8220 -2.3073
  110OSM    C9F11422   4.428   5.433   9.687 -1.0866  0.5863  0.3838
  110OSM    H9F11423   4.372   5.523   9.715 -1.2233  0.8897 -0.8404
  110OSM   C10F11424   4.424   5.393   9.557  0.4926 -0.2708 -0.0190
  110OSM   H10F11425   4.376   5.449   9.476  2.7391 -0.7343 -1.7721
  110OSM   C11F11426   4.494   5.273   9.491  0.2874 -0.0952 -0.6430
  110OSM   H11F11427   4.424   5.206   9.437 -0.7032 -0.0799  0.5823
  110OSM   H11G11428   4.545   5.204   9.562  0.6380  0.2802 -0.5277
  110OSM   C12F11429   4.609   5.314   9.397  0.5172  0.0103  0.0339
  110OSM   H12F11430   4.675   5.225   9.392  1.6783  0.8122  0.7415
  110OSM   H12G11431   4.666   5.400   9.437  0.0045  0.7713 -0.8199
  110OSM   C13F11432   4.553   5.359   9.257  0.2326  0.2419  0.0315
  110OSM   H13F11433   4.574   5.468   9.247 -3.0468  0.7384 -3.5564
  110OSM   H13G11434   4.444   5.344   9.240  0.4627 -1.9017  0.2147
  110OSM   C14F11435   4.615   5.275   9.137  0.3800 -0.2759 -0.1524
  110OSM   H14F11436   4.594   5.171   9.171  0.1660 -0.0257  0.5031
  110OSM   H14G11437   4.723   5.302   9.143 -0.6173  4.1633  1.1188
  110OSM   C15F11438   4.563   5.304   8.990 -0.0684 -0.2149 -0.6450
  110OSM   H15F11439   4.618   5.383   8.934 -2.4438  0.8421 -1.6269
  110OSM   H15G11440   4.456   5.331   9.000 -0.5318 -2.3443  0.9993
  110OSM   C16F11441   4.558   5.181   8.904 -0.9427  0.3698 -0.0044
  110OSM   H16F11442   4.487   5.114   8.957 -0.5135 -0.9337 -1.0137
  110OSM   H16G11443   4.657   5.129   8.905 -0.3347  1.4145 -1.6288
  110OSM   C17F11444   4.515   5.206   8.756 -0.2880 -0.1887  0.4562
  110OSM   H17F11445   4.590   5.270   8.704 -0.6894 -0.4262 -0.4364
  110OSM   H17G11446   4.417   5.259   8.756 -0.2241 -0.0106 -1.3159
  110OSM   C18F11447   4.508   5.074   8.679  0.2140 -0.7156 -0.0032
  110OSM   H18F11448   4.460   5.096   8.581 -2.2339  0.5971  1.4072
  110OSM   H18G11449   4.444   5.010   8.744 -0.4175 -0.8984 -0.7877
  110OSM   H18H11450   4.613   5.037   8.671  1.2118  1.1536  2.8681
  111OSM      N11451   4.823   0.782  11.093 -0.3158 -0.1835 -0.2002
  111OSM    C1511452   4.714   0.725  11.009 -0.5444 -0.2414  0.3342
  111OSM   H15A11453   4.623   0.775  11.039  0.2968  0.8965  1.0879
  111OSM   H15B11454   4.703   0.619  11.031 -0.5972 -0.5726 -1.2101
  111OSM   H15C11455   4.731   0.745  10.905 -1.1681  1.9945  0.6093
  111OSM    C1411456   4.791   0.764  11.237  0.2239 -0.6115 -0.8347
  111OSM   H14A11457   4.701   0.810  11.275  0.1755 -0.9490 -0.5410
  111OSM   H14B11458   4.866   0.807  11.303 -0.6883  0.6490 -0.5897
  111OSM   H14C11459   4.772   0.659  11.251 -1.3993 -0.4622 -1.7321
  111OSM    C1311460   4.945   0.697  11.074 -1.5551 -0.1004  0.0658
  111OSM   H13A11461   5.027   0.723  11.139 -2.0631  2.4617 -0.2202
  111OSM   H13B11462   4.985   0.718  10.976  1.1968  4.7955  1.9325
  111OSM   H13C11463   4.920   0.593  11.091 -1.8847  0.2617  2.0694
  111OSM    C1211464   4.853   0.927  11.058  0.5458 -0.0594 -0.2260
  111OSM   H12A11465   4.907   0.978  11.136  0.7645  0.6251 -0.8114
  111OSM   H12B11466   4.759   0.977  11.046 -0.0977 -1.5469 -1.9857
  111OSM    C1111467   4.911   0.950  10.915 -0.5478 -0.5238 -0.5690
  111OSM   H11A11468   4.879   1.049  10.876 -0.7705 -0.0334  0.7816
  111OSM   H11B11469   4.871   0.879  10.840 -0.0763 -0.5378 -0.8057
  111OSM      P11470   5.136   1.073  10.967  0.0881  0.3015 -0.0636
  111OSM    O1311471   5.094   1.107  11.106 -0.0745 -0.5287  0.2463
  111OSM    O1411472   5.282   1.042  10.953 -0.3209  0.0632 -0.1501
  111OSM    O1111473   5.096   1.178  10.859 -0.6185  0.5907 -0.2451
  111OSM    O1211474   5.050   0.952  10.923 -0.5107  0.3120 -0.3421
  111OSM    C1S11475   5.175   1.186  10.741  0.3846 -0.6798  0.1302
  111OSM    H1S11476   5.223   1.089  10.718 -2.6276 -2.8177  2.0581
  111OSM    H1T11477   5.252   1.263  10.762 -1.6871  1.8196 -0.9578
  111OSM     NF11478   5.172   1.224  10.496 -0.1134  0.3420  0.1201
  111OSM    HNF11479   5.211   1.299  10.443  0.2885 -0.6845 -1.0773
  111OSM    C2S11480   5.102   1.253  10.620  0.0511  0.2425  0.4429
  111OSM    H2S11481   5.001   1.211  10.603 -0.3617  1.5763 -0.5745
  111OSM    C3S11482   5.079   1.403  10.641  0.4295 -0.2684 -0.2674
  111OSM    H3S11483   5.177   1.451  10.664  1.2441 -1.8443 -0.3051
  111OSM     O311484   4.990   1.431  10.751  0.0934  0.0849 -0.2811
  111OSM    HO311485   4.980   1.349  10.799  0.8307  0.5278  0.6627
  111OSM    C4S11486   5.016   1.455  10.511 -0.1542 -0.1141  0.1208
  111OSM    H4S11487   5.095   1.504  10.453  1.1252  0.3660  2.1728
  111OSM    C5S11488   4.889   1.465  10.476 -0.1796 -0.1612  0.2247
  111OSM    H5S11489   4.818   1.415  10.542 -1.5785 -0.8701 -1.7176
  111OSM    C6S11490   4.841   1.532  10.350 -0.6655 -0.5160 -1.3123
  111OSM    H6S11491   4.800   1.633  10.370  0.1318 -0.3765 -0.3076
  111OSM    H6T11492   4.749   1.479  10.317 -1.9588 -0.6272  2.1245
  111OSM    C7S11493   4.940   1.552  10.233 -0.1026 -0.8657 -0.9222
  111OSM    H7S11494   4.992   1.460  10.199 -1.8776 -1.5626 -1.8716
  111OSM    H7T11495   5.024   1.617  10.265  0.4449 -2.7786  1.7986
  111OSM    C8S11496   4.874   1.611  10.106 -0.1031 -0.0331  0.1526
  111OSM    H8S11497   4.815   1.703  10.122  0.2126 -0.0426  1.4925
  111OSM    H8T11498   4.803   1.532  10.072 -0.0931  0.3530 -0.7976
  111OSM    C9S11499   4.984   1.626   9.996 -0.5070  1.1158  0.4694
  111OSM    H9S11500   5.031   1.528   9.972  2.4455  2.3286  0.8200
  111OSM    H9T11501   5.071   1.680  10.040  0.0770 -1.4919  2.7922
  111OSM   C10S11502   4.938   1.685   9.862 -0.7854 -0.0173 -0.4964
  111OSM   H10S11503   4.914   1.791   9.887  1.2996  0.1977  0.8604
  111OSM   H10T11504   4.844   1.638   9.826 -1.4274  0.4926  0.4625
  111OSM   C11S11505   5.049   1.671   9.752 -0.9054 -0.6197  0.7005
  111OSM   H11S11506   5.081   1.565   9.739 -0.7743 -0.3393 -1.7953
  111OSM   H11T11507   5.143   1.720   9.786 -1.3479  0.8490 -0.1333
  111OSM   C12S11508   5.006   1.751   9.632  0.3933 -0.6667 -0.2626
  111OSM   H12S11509   5.097   1.773   9.571  0.1754 -0.4269 -0.5048
  111OSM   H12T11510   4.968   1.850   9.665  0.0362 -1.3689  1.5088
  111OSM   C13S11511   4.890   1.697   9.541 -0.0212 -1.2954  0.4091
  111OSM   H13S11512   4.818   1.774   9.507  0.1951 -1.5297 -0.6169
  111OSM   H13T11513   4.829   1.629   9.605 -1.7535  0.9748  1.2958
  111OSM   C14S11514   4.953   1.635   9.414 -0.0160  0.2180  0.0504
  111OSM   H14S11515   5.006   1.541   9.442 -2.5812 -0.9035  1.5149
  111OSM   H14T11516   5.025   1.703   9.364 -0.1218  0.9170  0.8264
  111OSM   C15S11517   4.849   1.604   9.302  0.1833  0.5224 -0.2177
  111OSM   H15S11518   4.774   1.686   9.307  1.7771  2.0060 -0.0514
  111OSM   H15T11519   4.793   1.508   9.308 -1.9401  1.5956 -1.4874
  111OSM   C16S11520   4.913   1.623   9.158 -0.7439 -0.0515 -0.1496
  111OSM   H16S11521   4.948   1.727   9.139  2.1490 -1.5391 -4.4690
  111OSM   H16T11522   4.846   1.592   9.075 -0.6435  1.5570 -0.8724
  111OSM   C17S11523   5.030   1.541   9.130 -0.8365  1.1437 -0.0177
  111OSM   H17S11524   5.008   1.434   9.151 -0.2137  0.5495 -2.1993
  111OSM   H17T11525   5.105   1.579   9.202  1.0260 -1.8001 -0.2521
  111OSM   C18S11526   5.091   1.545   8.986  0.1654 -0.3105  0.3790
  111OSM   H18S11527   5.156   1.634   8.974 -1.7069  1.0457 -0.0762
  111OSM   H18T11528   5.019   1.549   8.902 -0.0890 -0.8750  0.5645
  111OSM   H18U11529   5.154   1.455   8.967  0.0780 -0.2037 -0.4634
  111OSM    C1F11530   5.181   1.093  10.451  0.0129  0.2681 -0.6605
  111OSM     OF11531   5.138   0.989  10.509  0.2528 -0.3178  0.3642
  111OSM    C2F11532   5.258   1.078  10.320  0.8064  0.3713 -0.2833
  111OSM    H2F11533   5.346   1.146  10.322  2.2031 -1.3640  0.4035
  111OSM    H2G11534   5.184   1.097  10.240 -1.3731 -0.2391  1.4598
  111OSM    C3F11535   5.310   0.930  10.290  0.3336 -0.1120  0.0943
  111OSM    H3F11536   5.243   0.845  10.316  1.0544 -0.1406  2.0375
  111OSM    H3G11537   5.400   0.914  10.354 -0.0592 -1.6853  0.2900
  111OSM    C4F11538   5.375   0.900  10.148  0.1338 -0.0765  0.0948
  111OSM    H4F11539   5.461   0.830  10.162  0.9243  0.9802  0.6591
  111OSM    H4G11540   5.411   1.001  10.121  2.3730 -1.2910 -1.8745
  111OSM    C5F11541   5.275   0.857  10.039 -0.2034 -0.6734 -0.1648
  111OSM    H5F11542   5.175   0.892  10.074  0.5170  3.1324 -1.4370
  111OSM    H5G11543   5.274   0.747  10.023  0.0317 -0.5447 -1.1953
  111OSM    C6F11544   5.312   0.917   9.906  0.0093 -0.0490 -0.2539
  111OSM    H6F11545   5.421   0.905   9.889  0.0169 -1.0498  0.4333
  111OSM    H6G11546   5.295   1.027   9.915 -0.6976 -0.2812  1.5917
  111OSM    C7F11547   5.229   0.864   9.788  0.6249 -0.2200  0.3154
  111OSM    H7F11548   5.127   0.906   9.797  0.0520 -1.2734 -0.8609
  111OSM    H7G11549   5.207   0.755   9.789 -0.7457  0.0085 -0.9814
  111OSM    C8F11550   5.279   0.921   9.653  0.0349 -0.1114  0.8206
  111OSM    H8F11551   5.364   0.855   9.624 -0.8133 -0.6316 -0.6194
  111OSM    H8G11552   5.320   1.019   9.684 -2.8603  0.8752  1.9267
  111OSM    C9F11553   5.170   0.939   9.541  0.7287 -0.5355 -0.0001
  111OSM    H9F11554   5.071   0.948   9.588  0.0609 -1.7694 -1.1291
  111OSM   C10F11555   5.178   0.923   9.410 -0.0763  0.1630 -0.3172
  111OSM   H10F11556   5.091   0.946   9.346  0.9709 -0.3120 -1.9773
  111OSM   C11F11557   5.310   0.908   9.336 -0.0114 -0.2018 -0.9009
  111OSM   H11F11558   5.319   0.814   9.278  2.2804 -0.3085 -0.4515
  111OSM   H11G11559   5.398   0.917   9.402  0.7974  1.0173 -2.0764
  111OSM   C12F11560   5.337   1.014   9.227  0.4476 -0.8083 -0.0037
  111OSM   H12F11561   5.434   0.988   9.180  0.0479 -0.5799 -0.9921
  111OSM   H12G11562   5.347   1.111   9.281 -1.1601 -0.5718 -0.0674
  111OSM   C13F11563   5.223   1.030   9.119  0.2263 -0.2024  0.0297
  111OSM   H13F11564   5.122   1.019   9.165  1.0090 -1.0614  1.6317
  111OSM   H13G11565   5.231   0.948   9.045 -0.4082  2.0084 -2.6631
  111OSM   C14F11566   5.238   1.164   9.054 -0.4018  0.4248  0.1374
  111OSM   H14F11567   5.239   1.237   9.138  1.6048  1.5675 -0.7994
  111OSM   H14G11568   5.151   1.188   8.989 -0.5654 -1.8095 -0.5165
  111OSM   C15F11569   5.368   1.161   8.968 -0.1861  1.1776  0.2807
  111OSM   H15F11570   5.444   1.093   9.011 -0.1715  1.5905  0.9207
  111OSM   H15G11571   5.414   1.262   8.972  0.2373  1.1104 -1.7024
  111OSM   C16F11572   5.349   1.129   8.816  0.1406 -0.7101 -0.8470
  111OSM   H16F11573   5.257   1.182   8.783 -0.0387 -0.5870 -0.1740
  111OSM   H16G11574   5.316   1.023   8.803  1.3612 -0.8621 -3.1066
  111OSM   C17F11575   5.458   1.178   8.715 -0.0784  0.2522  0.6324
  111OSM   H17F11576   5.439   1.121   8.621  1.0549 -0.0466  0.5722
  111OSM   H17G11577   5.555   1.134   8.747 -0.2448  0.1804  1.0526
  111OSM   C18F11578   5.466   1.333   8.697 -0.1742 -0.5127 -0.0399
  111OSM   H18F11579   5.361   1.368   8.689 -0.0256 -0.1740 -0.6042
  111OSM   H18G11580   5.525   1.352   8.604 -0.2437  2.5858  0.4460
  111OSM   H18H11581   5.518   1.381   8.782  1.0180 -1.1849 -0.3562
  112OSM      N11582   6.389   3.604  11.091 -0.4833 -0.5418 -0.2832
  112OSM    C1511583   6.471   3.690  11.000 -0.2464 -0.3434  0.0793
  112OSM   H15A11584   6.435   3.791  11.007 -0.8429 -0.4948 -0.7645
  112OSM   H15B11585   6.465   3.678  10.893 -1.7715  2.6213 -0.2742
  112OSM   H15C11586   6.578   3.688  11.020  0.0761 -0.8210 -1.5742
  112OSM    C1411587   6.438   3.461  11.091  0.0313 -0.7303 -0.0617
  112OSM   H14A11588   6.400   3.401  11.173 -1.3519 -2.6381 -1.9739
  112OSM   H14B11589   6.545   3.473  11.094 -0.0811  0.2713  0.8241
  112OSM   H14C11590   6.411   3.411  10.999  3.3343  0.1173 -1.6289
  112OSM    C1311591   6.420   3.654  11.227 -0.2626 -0.6330 -0.8812
  112OSM   H13A11592   6.366   3.602  11.304 -0.8261  0.1958 -0.7105
  112OSM   H13B11593   6.402   3.759  11.243  1.1039 -0.5717  0.5559
  112OSM   H13C11594   6.525   3.641  11.252  0.3202 -0.5318 -3.1017
  112OSM    C1211595   6.245   3.622  11.065 -0.0287 -0.6560 -0.3354
  112OSM   H12A11596   6.193   3.550  11.127 -0.2728  0.8802  1.3193
  112OSM   H12B11597   6.210   3.601  10.965 -1.0857 -1.2042  0.1269
  112OSM    C1111598   6.173   3.749  11.096  0.4435 -0.4597 -0.4821
  112OSM   H11A11599   6.160   3.781  11.201  2.1747 -1.0117 -0.0664
  112OSM   H11B11600   6.072   3.723  11.057 -1.2934  0.1290  3.2262
  112OSM      P11601   6.172   4.000  11.031  0.2100 -0.5785  0.4269
  112OSM    O1311602   6.066   4.005  11.136  0.4975  0.1856 -0.2298
  112OSM    O1411603   6.279   4.106  11.045  0.4033 -0.1450  0.2431
  112OSM    O1111604   6.102   4.029  10.891  1.3439 -0.3697  0.1525
  112OSM    O1211605   6.229   3.854  11.015  0.5083 -0.6360 -0.8455
  112OSM    C1S11606   6.043   3.936  10.804  0.3992  0.3515 -0.2401
  112OSM    H1S11607   5.955   3.897  10.860  0.3880 -0.5555 -0.8658
  112OSM    H1T11608   6.111   3.848  10.798  0.4560  0.3602  0.2558
  112OSM     NF11609   5.896   3.909  10.614  0.0869  0.7537 -0.5981
  112OSM    HNF11610   5.921   3.833  10.555  2.1552  0.6510  0.3154
  112OSM    C2S11611   5.995   3.993  10.671 -0.0441  0.3010 -0.5464
  112OSM    H2S11612   5.949   4.092  10.691  1.4450  0.8618  0.3441
  112OSM    C3S11613   6.122   4.019  10.586  0.3608 -0.3987  0.2289
  112OSM    H3S11614   6.168   3.920  10.569  0.5625  0.2148 -3.8258
  112OSM     O311615   6.225   4.093  10.644  0.2087 -0.6424 -0.5356
  112OSM    HO311616   6.197   4.114  10.734 -1.8146 -0.8410 -1.0666
  112OSM    C4S11617   6.087   4.092  10.456  0.3026 -0.5961 -0.3579
  112OSM    H4S11618   6.072   4.201  10.461 -2.9646 -0.9307 -0.3924
  112OSM    C5S11619   6.084   4.033  10.340 -0.3087 -0.9563  0.7459
  112OSM    H5S11620   6.091   3.925  10.321 -1.3477 -0.7222 -1.2680
  112OSM    C6S11621   6.045   4.114  10.211  0.4352  0.8760 -0.3843
  112OSM    H6S11622   6.129   4.116  10.140  0.5383 -1.5252 -0.4057
  112OSM    H6T11623   6.013   4.215  10.244 -0.9082  0.2135  0.4521
  112OSM    C7S11624   5.928   4.042  10.136 -0.0891  0.1124  0.5908
  112OSM    H7S11625   5.833   4.039  10.194 -0.5191  2.8407  0.1942
  112OSM    H7T11626   5.964   3.939  10.117  1.0589  0.5736  0.1898
  112OSM    C8S11627   5.894   4.100   9.988  0.3671  0.0389  0.3727
  112OSM    H8S11628   5.823   4.184  10.001 -1.1691 -1.2115  0.3214
  112OSM    H8T11629   5.836   4.019   9.939  0.7222 -0.0200  0.0382
  112OSM    C9S11630   6.017   4.131   9.900  0.7337  0.3737  0.5065
  112OSM    H9S11631   6.075   4.036   9.898 -0.9944 -0.7230 -0.1155
  112OSM    H9T11632   6.073   4.214   9.947  0.6797  1.9239 -1.9533
  112OSM   C10S11633   5.992   4.196   9.763  0.7359 -0.0342 -0.1821
  112OSM   H10S11634   5.923   4.281   9.778  1.9006  0.7041  1.2099
  112OSM   H10T11635   5.948   4.119   9.695  1.4503  1.4528 -2.4342
  112OSM   C11S11636   6.109   4.265   9.701  0.0304 -0.2870 -0.9438
  112OSM   H11S11637   6.183   4.185   9.678 -1.0222 -1.7937  0.6215
  112OSM   H11T11638   6.152   4.346   9.763 -2.7736  2.0241 -1.7390
  112OSM   C12S11639   6.077   4.330   9.562 -0.7883  0.4284  0.0551
  112OSM   H12S11640   6.172   4.371   9.523 -1.2675  0.2196 -1.3669
  112OSM   H12T11641   6.002   4.412   9.566  1.0827  2.2719 -0.6741
  112OSM   C13S11642   6.020   4.227   9.469 -0.1945 -0.6280  0.4440
  112OSM   H13S11643   5.911   4.232   9.491 -0.0191  1.3893  1.0724
  112OSM   H13T11644   6.070   4.128   9.481  2.3645  0.2705 -1.7156
  112OSM   C14S11645   6.021   4.267   9.322 -0.6160 -0.2156  0.3147
  112OSM   H14S11646   5.996   4.375   9.318 -0.4349 -0.1038  1.5913
  112OSM   H14T11647   5.950   4.195   9.277 -1.1651 -0.0043  0.8305
  112OSM   C15S11648   6.158   4.232   9.258  0.7154 -0.3033 -0.1704
  112OSM   H15S11649   6.167   4.121   9.252 -1.1169 -0.4762 -0.0619
  112OSM   H15T11650   6.238   4.271   9.325 -0.3084 -5.1643  4.5872
  112OSM   C16S11651   6.163   4.276   9.108 -0.6040 -0.5945  0.3159
  112OSM   H16S11652   6.263   4.259   9.063  0.1882  3.1049  0.3826
  112OSM   H16T11653   6.161   4.387   9.103 -0.2037 -0.6521 -1.5367
  112OSM   C17S11654   6.058   4.224   9.015 -0.2631  0.4637  0.4297
  112OSM   H17S11655   5.960   4.263   9.049 -0.5020  1.5119 -1.3046
  112OSM   H17T11656   6.050   4.114   9.024  0.5658  0.3271 -0.2700
  112OSM   C18S11657   6.081   4.262   8.868  0.0482  0.6390  0.5521
  112OSM   H18S11658   6.167   4.204   8.828 -1.0304 -0.7238  0.1390
  112OSM   H18T11659   6.099   4.370   8.854 -0.3431  0.4395 -1.9547
  112OSM   H18U11660   5.989   4.232   8.813 -0.0053  0.5504  0.6880
  112OSM    C1F11661   5.771   3.914  10.649 -0.0892  0.7995  0.1888
  112OSM     OF11662   5.712   4.004  10.711  0.1041  0.2509 -0.0681
  112OSM    C2F11663   5.689   3.795  10.609 -0.2486  0.0823 -0.0357
  112OSM    H2F11664   5.633   3.770  10.702 -1.7033 -0.9379 -1.1285
  112OSM    H2G11665   5.744   3.701  10.587 -1.0185  0.2622 -3.1462
  112OSM    C3F11666   5.581   3.808  10.503 -0.3483  0.4449  0.1316
  112OSM    H3F11667   5.517   3.897  10.522 -3.8701 -1.8687  0.0416
  112OSM    H3G11668   5.511   3.721  10.507 -1.0905  0.9477 -1.2392
  112OSM    C4F11669   5.631   3.820  10.357  0.7197  0.5275  0.7666
  112OSM    H4F11670   5.670   3.721  10.322 -0.9594 -0.7806  2.4135
  112OSM    H4G11671   5.706   3.902  10.355 -0.2304  1.4318 -1.6880
  112OSM    C5F11672   5.519   3.868  10.256 -0.1114 -0.1762 -0.7620
  112OSM    H5F11673   5.469   3.958  10.298  2.4943  0.6834  0.7708
  112OSM    H5G11674   5.445   3.788  10.236 -0.0761  0.2720 -3.0444
  112OSM    C6F11675   5.572   3.896  10.116 -0.3744 -0.4072 -0.1341
  112OSM    H6F11676   5.632   3.810  10.079 -1.3460  0.1245 -3.2375
  112OSM    H6G11677   5.639   3.984  10.112  0.0908 -0.7752 -0.6256
  112OSM    C7F11678   5.458   3.923  10.017 -0.1183 -0.3011 -0.0678
  112OSM    H7F11679   5.405   4.012  10.056  2.6744  1.9875 -1.1021
  112OSM    H7G11680   5.383   3.840  10.016 -1.8326  1.1914 -1.2763
  112OSM    C8F11681   5.490   3.959   9.870 -0.0771  0.2353  0.2887
  112OSM    H8F11682   5.398   3.957   9.808  0.7023  1.3810 -0.9772
  112OSM    H8G11683   5.547   3.871   9.831  1.0668  1.1712 -0.2100
  112OSM    C9F11684   5.569   4.081   9.847 -1.6836 -0.1181  0.1381
  112OSM    H9F11685   5.591   4.150   9.930  1.0334  0.0631 -0.6456
  112OSM   C10F11686   5.635   4.104   9.731  0.5936  0.2563 -0.1545
  112OSM   H10F11687   5.706   4.188   9.726  0.1343  0.6936  0.4232
  112OSM   C11F11688   5.646   4.007   9.614 -0.0846  0.3321  0.7086
  112OSM   H11F11689   5.571   3.925   9.611 -2.0641  2.0258 -3.1196
  112OSM   H11G11690   5.747   3.961   9.623 -1.3797 -2.8981  0.3079
  112OSM   C12F11691   5.644   4.074   9.478  0.7174  0.1879 -0.4760
  112OSM   H12F11692   5.708   4.165   9.483  0.0212  0.6690 -0.2117
  112OSM   H12G11693   5.540   4.098   9.448  0.3737 -1.3196 -0.5507
  112OSM   C13F11694   5.704   3.984   9.367 -0.8966  0.3872  1.1020
  112OSM   H13F11695   5.645   3.894   9.338  1.8805 -1.0784 -0.4317
  112OSM   H13G11696   5.806   3.950   9.396 -0.0202  3.2497  1.6987
  112OSM   C14F11697   5.712   4.046   9.227  0.1676  0.6234  0.1013
  112OSM   H14F11698   5.747   4.151   9.231 -1.7452  1.3825 -1.4498
  112OSM   H14G11699   5.608   4.059   9.189 -0.8654 -1.2026  2.0668
  112OSM   C15F11700   5.796   3.960   9.130  0.1364 -0.5903 -0.7385
  112OSM   H15F11701   5.758   3.856   9.133 -0.9790 -0.1820  0.3318
  112OSM   H15G11702   5.901   3.951   9.165 -0.1304  3.3906  1.6910
  112OSM   C16F11703   5.772   4.010   8.983  0.0868  0.1947 -0.8180
  112OSM   H16F11704   5.833   4.102   8.969  1.3614 -0.6635 -1.1005
  112OSM   H16G11705   5.666   4.044   8.982 -0.1460 -0.4601 -3.0799
  112OSM   C17F11706   5.796   3.896   8.880 -1.1307 -0.1496  0.1220
  112OSM   H17F11707   5.716   3.819   8.886 -0.7494 -0.6710 -1.1232
  112OSM   H17G11708   5.897   3.851   8.891 -1.1032 -0.7136 -2.0706
  112OSM   C18F11709   5.790   3.950   8.739 -0.7191 -0.0306  0.0813
  112OSM   H18F11710   5.813   3.873   8.661  1.3842  0.1085  0.4907
  112OSM   H18G11711   5.863   4.031   8.717 -2.4194  1.7282  0.6025
  112OSM   H18H11712   5.690   3.997   8.725 -0.2595  0.7510 -0.7483
  113OSM      N11713   1.963   3.324  11.530  0.6189  0.2814  0.4381
  113OSM    C1511714   1.953   3.444  11.620  0.2833 -0.0878  0.5219
  113OSM   H15A11715   1.871   3.507  11.590 -0.2671 -0.8765  0.3608
  113OSM   H15B11716   2.043   3.503  11.615 -0.0416  0.3312 -0.7705
  113OSM   H15C11717   1.930   3.416  11.722  1.2080  0.0456  0.7771
  113OSM    C1411718   2.097   3.261  11.545 -0.1944 -0.1654  0.5269
  113OSM   H14A11719   2.164   3.327  11.492  1.5162 -3.2298 -1.4279
  113OSM   H14B11720   2.105   3.165  11.495 -3.3960  0.1085 -0.8025
  113OSM   H14C11721   2.133   3.254  11.646  0.2833  0.1324  0.3769
  113OSM    C1311722   1.858   3.224  11.566  0.5720 -0.1126  0.0598
  113OSM   H13A11723   1.858   3.200  11.672 -1.5229 -0.3417  0.0554
  113OSM   H13B11724   1.878   3.133  11.511 -3.0302 -0.5962 -0.7359
  113OSM   H13C11725   1.760   3.260  11.539  0.4968  0.0733  0.5661
  113OSM    C1211726   1.943   3.372  11.384  0.2210  0.5296  0.0165
  113OSM   H12A11727   2.035   3.420  11.355 -0.3451 -0.1640 -3.3006
  113OSM   H12B11728   1.862   3.443  11.375  0.2424  0.3427 -2.2279
  113OSM    C1111729   1.938   3.258  11.281 -0.4173 -0.6924 -0.7310
  113OSM   H11A11730   1.915   3.297  11.180 -0.0833 -0.4992 -0.7330
  113OSM   H11B11731   1.861   3.181  11.303 -2.0717  0.8675 -0.8334
  113OSM      P11732   2.192   3.257  11.207 -0.1162 -0.2344 -0.9075
  113OSM    O1311733   2.289   3.313  11.309 -0.0439  0.3312  0.7728
  113OSM    O1411734   2.246   3.155  11.111  0.4854 -0.6519  0.1938
  113OSM    O1111735   2.143   3.381  11.120  0.2018 -0.5523  0.3433
  113OSM    O1211736   2.064   3.195  11.268 -0.1185  0.8543 -0.1677
  113OSM    C1S11737   2.240   3.455  11.041  0.0146  0.3422 -1.0599
  113OSM    H1S11738   2.336   3.398  11.037 -0.9193 -1.3317 -0.4396
  113OSM    H1T11739   2.260   3.552  11.091 -0.4917 -1.1138  2.1893
  113OSM     NF11740   2.315   3.503  10.816 -0.4269 -0.3143  0.5943
  113OSM    HNF11741   2.350   3.596  10.821  1.0885 -0.5730 -2.7043
  113OSM    C2S11742   2.199   3.474  10.893 -0.0841 -0.2840 -0.0740
  113OSM    H2S11743   2.154   3.377  10.864  2.5295 -1.3753 -0.7197
  113OSM    C3S11744   2.093   3.583  10.896  0.0322  0.5646 -0.3860
  113OSM    H3S11745   2.138   3.674  10.940  2.9297 -0.0477 -1.8601
  113OSM     O311746   1.989   3.549  10.988 -0.5333  0.5073 -0.2010
  113OSM    HO311747   2.026   3.475  11.037 -2.9152 -0.2134  0.6455
  113OSM    C4S11748   2.044   3.622  10.760 -0.0425  0.6012  0.1438
  113OSM    H4S11749   1.986   3.540  10.716  0.4261 -0.9102  2.1543
  113OSM    C5S11750   2.066   3.744  10.697  0.4600 -0.8939 -0.5013
  113OSM    H5S11751   2.118   3.821  10.756 -0.5480 -0.0738 -0.6547
  113OSM    C6S11752   2.020   3.797  10.563 -0.5721  0.9309  0.4698
  113OSM    H6S11753   2.111   3.838  10.516  0.5922 -1.7879  0.2069
  113OSM    H6T11754   1.939   3.873  10.573 -0.3859  1.2009 -0.0668
  113OSM    C7S11755   1.957   3.691  10.459 -0.4331 -0.2385  0.1377
  113OSM    H7S11756   1.865   3.650  10.506 -0.3562 -1.5846 -0.8048
  113OSM    H7T11757   2.023   3.605  10.433  2.1065  1.1990  1.4572
  113OSM    C8S11758   1.924   3.760  10.325  0.7213 -0.3036  0.9038
  113OSM    H8S11759   2.016   3.813  10.291 -0.5000  2.4245  1.5892
  113OSM    H8T11760   1.862   3.846  10.357  1.1417 -0.2370  1.5534
  113OSM    C9S11761   1.857   3.680  10.215 -0.1966  0.8780 -0.3792
  113OSM    H9S11762   1.765   3.640  10.262  0.8329 -0.4615  0.5791
  113OSM    H9T11763   1.931   3.601  10.189 -1.5397 -0.5279 -0.0780
  113OSM   C10S11764   1.832   3.757  10.083  0.6579 -0.5072 -0.1034
  113OSM   H10S11765   1.925   3.811  10.057  1.3887 -1.3219  0.7182
  113OSM   H10T11766   1.751   3.822  10.122  1.1628  1.4341 -2.1400
  113OSM   C11S11767   1.776   3.666   9.969 -0.4265 -0.3910 -0.0552
  113OSM   H11S11768   1.682   3.625  10.011  0.0766 -2.2002 -0.5738
  113OSM   H11T11769   1.840   3.576   9.953 -0.8895 -0.5248 -1.2386
  113OSM   C12S11770   1.758   3.737   9.835  0.5905  0.4196 -0.1354
  113OSM   H12S11771   1.859   3.776   9.812  0.3074  2.6392  2.0202
  113OSM   H12T11772   1.694   3.827   9.838  0.6140  0.5132 -1.6464
  113OSM   C13S11773   1.709   3.642   9.725  0.3732 -0.4560  1.4011
  113OSM   H13S11774   1.606   3.605   9.746 -1.4781  3.1939 -0.4681
  113OSM   H13T11775   1.777   3.554   9.718  0.8163  0.0482 -2.7578
  113OSM   C14S11776   1.697   3.722   9.596 -0.5958  0.7366 -0.3993
  113OSM   H14S11777   1.789   3.779   9.572 -0.7011  0.8156 -0.6174
  113OSM   H14T11778   1.617   3.799   9.606 -0.4324  0.8946 -0.2980
  113OSM   C15S11779   1.670   3.641   9.476  0.0101  0.6939  0.1500
  113OSM   H15S11780   1.570   3.592   9.479  0.2408  0.2485  2.9430
  113OSM   H15T11781   1.749   3.564   9.464 -0.8039  0.0554 -1.4729
  113OSM   C16S11782   1.675   3.720   9.346 -0.4424 -0.2242  0.1896
  113OSM   H16S11783   1.781   3.736   9.319 -1.4052  3.4684 -2.0112
  113OSM   H16T11784   1.621   3.816   9.359  0.3888  0.2204  0.4337
  113OSM   C17S11785   1.612   3.650   9.227  0.6961 -0.3257  0.0455
  113OSM   H17S11786   1.508   3.624   9.256  0.6179 -1.9537 -1.4736
  113OSM   H17T11787   1.667   3.554   9.216  0.8490 -0.1507 -0.8043
  113OSM   C18S11788   1.631   3.735   9.100 -0.3615 -0.4628  0.2645
  113OSM   H18S11789   1.734   3.777   9.095 -0.5359  0.0764  0.9442
  113OSM   H18T11790   1.559   3.820   9.109  0.0618 -0.0658 -0.0367
  113OSM   H18U11791   1.598   3.680   9.010 -0.2982  0.7349 -0.5054
  113OSM    C1F11792   2.393   3.411  10.766 -0.0388  0.1328 -0.2021
  113OSM     OF11793   2.363   3.292  10.771  0.1366 -0.3876 -0.4327
  113OSM    C2F11794   2.526   3.451  10.717  0.2604  0.4584 -0.4220
  113OSM    H2F11795   2.605   3.412  10.785  1.5982  2.6867 -0.5790
  113OSM    H2G11796   2.540   3.561  10.723  0.2958  0.3788  2.0557
  113OSM    C3F11797   2.551   3.420  10.566  0.6522 -0.4370 -0.8852
  113OSM    H3F11798   2.478   3.478  10.505 -0.7341 -2.4471 -1.2521
  113OSM    H3G11799   2.519   3.313  10.562 -1.3695 -0.1258  2.7734
  113OSM    C4F11800   2.698   3.443  10.517  0.0272  0.1876  0.5011
  113OSM    H4F11801   2.762   3.404  10.599 -2.2548  0.0947  2.3577
  113OSM    H4G11802   2.712   3.552  10.501  0.2341 -0.0511 -1.0017
  113OSM    C5F11803   2.737   3.370  10.387 -0.6446 -0.3810 -0.4594
  113OSM    H5F11804   2.645   3.374  10.325  0.0720  1.4076 -1.4749
  113OSM    H5G11805   2.755   3.264  10.412  0.0789 -0.2648 -0.4658
  113OSM    C6F11806   2.854   3.432  10.312 -0.0338 -0.2809  0.1538
  113OSM    H6F11807   2.949   3.417  10.367 -0.9799 -1.8678  1.4509
  113OSM    H6G11808   2.836   3.537  10.281 -0.7172 -0.7481 -1.0885
  113OSM    C7F11809   2.866   3.351  10.179  0.3094  0.3215  0.8193
  113OSM    H7F11810   2.781   3.369  10.111  0.8960  2.0599  0.4950
  113OSM    H7G11811   2.874   3.241  10.196 -0.1898 -0.0346 -1.0395
  113OSM    C8F11812   3.004   3.381  10.122 -0.2903  0.2668 -0.3122
  113OSM    H8F11813   3.020   3.324  10.028 -2.3950  0.1011 -0.6210
  113OSM    H8G11814   3.075   3.343  10.198  2.0654  4.1705 -0.2804
  113OSM    C9F11815   3.024   3.525  10.083  0.2902 -0.3310 -0.3911
  113OSM    H9F11816   3.064   3.588  10.164 -0.3950  1.1018 -1.1262
  113OSM   C10F11817   3.033   3.586   9.963 -0.4444 -1.1001 -0.5876
  113OSM   H10F11818   3.052   3.694   9.958  3.4772 -1.5867  0.4000
  113OSM   C11F11819   2.997   3.515   9.838 -0.2886  0.7109  0.0555
  113OSM   H11F11820   2.971   3.409   9.857  0.6852  0.6538  1.2307
  113OSM   H11G11821   3.088   3.516   9.774 -0.9035  1.2428 -0.8215
  113OSM   C12F11822   2.901   3.580   9.744  0.1320 -0.5370  0.2532
  113OSM   H12F11823   2.940   3.581   9.640  0.1587 -0.5290  0.2643
  113OSM   H12G11824   2.883   3.686   9.772 -1.1021 -0.7757  0.4528
  113OSM   C13F11825   2.764   3.516   9.739 -0.3933  0.3731  0.2806
  113OSM   H13F11826   2.715   3.513   9.839 -0.0702 -0.5127  0.4289
  113OSM   H13G11827   2.769   3.406   9.723  3.0050  0.3635  0.7772
  113OSM   C14F11828   2.662   3.575   9.643  0.1360  1.0763 -0.2537
  113OSM   H14F11829   2.672   3.686   9.642  1.6891  0.9615 -1.9103
  113OSM   H14G11830   2.562   3.548   9.684  0.2902 -2.9541 -2.1169
  113OSM   C15F11831   2.683   3.530   9.498 -0.0204 -0.0424  0.2811
  113OSM   H15F11832   2.667   3.423   9.476  0.5810 -0.2335  0.7501
  113OSM   H15G11833   2.792   3.545   9.485  0.1618 -0.3084  1.3571
  113OSM   C16F11834   2.609   3.624   9.399 -0.5315  0.0068  0.4588
  113OSM   H16F11835   2.618   3.732   9.425 -4.5329  0.9272 -1.2010
  113OSM   H16G11836   2.500   3.610   9.385 -0.0786 -0.5950 -3.4929
  113OSM   C17F11837   2.667   3.623   9.249  0.4065 -0.7514 -0.3269
  113OSM   H17F11838   2.643   3.529   9.195  1.2316  0.0510 -2.1766
  113OSM   H17G11839   2.777   3.636   9.251  0.3544 -0.2956 -0.1755
  113OSM   C18F11840   2.611   3.741   9.168  0.6510 -0.2289 -0.2824
  113OSM   H18F11841   2.621   3.842   9.213  2.0047 -0.4315 -0.0900
  113OSM   H18G11842   2.502   3.739   9.146  0.3730 -0.6330  1.0282
  113OSM   H18H11843   2.658   3.757   9.068  2.0126  0.0735  0.3846
  114OSM      N11844   5.130   5.990  10.979 -0.0588  0.0979  0.4650
  114OSM    C1511845   5.223   6.088  10.917  0.2000  0.2276 -0.1004
  114OSM   H15A11846   5.179   6.180  10.880  0.8975  0.5656 -0.0949
  114OSM   H15B11847   5.271   6.036  10.835  0.2239 -0.1218  0.1331
  114OSM   H15C11848   5.303   6.113  10.984  0.3039 -0.8667  0.2098
  114OSM    C1411849   5.025   5.944  10.888 -0.6612 -0.6508  0.1256
  114OSM   H14A11850   4.957   6.022  10.857 -1.4160 -1.1490  0.4894
  114OSM   H14B11851   4.970   5.867  10.942 -0.5433 -0.7567  0.0962
  114OSM   H14C11852   5.059   5.888  10.802 -1.4826 -0.3871 -0.3847
  114OSM    C1311853   5.211   5.868  11.014 -0.6759  0.4975  0.0972
  114OSM   H13A11854   5.288   5.884  11.088  0.0011  1.1591 -0.7282
  114OSM   H13B11855   5.245   5.821  10.922  0.3572 -1.1761  1.2666
  114OSM   H13C11856   5.142   5.801  11.063 -1.9847  1.4146 -0.4260
  114OSM    C1211857   5.068   6.045  11.100  0.5948  0.4823 -1.0960
  114OSM   H12A11858   5.141   6.059  11.178 -3.1734  0.1485  2.9318
  114OSM   H12B11859   5.004   5.975  11.152 -0.1763  2.5031  0.8305
  114OSM    C1111860   4.991   6.177  11.081 -0.8479  0.2215  0.6228
  114OSM   H11A11861   5.064   6.258  11.062 -0.8485  0.0993  0.0975
  114OSM   H11B11862   4.941   6.208  11.175 -0.5316  2.2037  0.1784
  114OSM      P11863   4.825   6.313  10.949 -0.2334 -0.2346 -0.0320
  114OSM    O1311864   4.683   6.313  10.991 -0.0435  0.2680  0.2918
  114OSM    O1411865   4.903   6.424  11.008 -0.2926  0.4322  0.0850
  114OSM    O1111866   4.824   6.330  10.789 -0.6997 -0.4007 -0.3181
  114OSM    O1211867   4.893   6.174  10.979  0.3619  0.0030  0.0462
  114OSM    C1S11868   4.832   6.216  10.709  0.3035 -0.3000 -0.4301
  114OSM    H1S11869   4.747   6.147  10.725 -1.0634  1.2200 -0.8336
  114OSM    H1T11870   4.926   6.161  10.730 -0.4719 -0.7252  2.3854
  114OSM     NF11871   4.756   6.183  10.474 -0.6776 -0.2828 -0.5897
  114OSM    HNF11872   4.801   6.128  10.404  0.6530 -0.4708  0.4030
  114OSM    C2S11873   4.834   6.264  10.563  0.4282  0.4670  0.7271
  114OSM    H2S11874   4.784   6.362  10.577  0.3634  0.2265  2.3160
  114OSM    C3S11875   4.976   6.281  10.505  0.4777 -0.0953  0.0386
  114OSM    H3S11876   5.031   6.184  10.502 -0.2485 -0.4973 -0.6412
  114OSM     O311877   5.067   6.352  10.594  0.2838 -0.1728  0.2304
  114OSM    HO311878   5.012   6.373  10.669 -1.3044  1.4851 -1.2792
  114OSM    C4S11879   4.972   6.342  10.365  0.5067 -0.5716 -0.4034
  114OSM    H4S11880   4.939   6.446  10.347  1.1688  0.0913  1.8822
  114OSM    C5S11881   5.028   6.283  10.259 -0.3669  0.4387  0.1104
  114OSM    H5S11882   5.060   6.178  10.252  2.2188  1.2767 -3.0562
  114OSM    C6S11883   5.034   6.342  10.115  0.3077 -0.0558 -0.3380
  114OSM    H6S11884   5.142   6.346  10.093  0.6630 -2.4409  0.5928
  114OSM    H6T11885   4.995   6.446  10.119  0.2928 -0.0079 -1.4226
  114OSM    C7S11886   4.961   6.252  10.018  0.0174  0.8251  0.6652
  114OSM    H7S11887   4.856   6.270  10.049 -0.8502 -1.5205 -0.7316
  114OSM    H7T11888   4.994   6.146  10.013 -0.5155  0.7089 -3.6459
  114OSM    C8S11889   4.976   6.297   9.871 -0.8146  0.0347  0.0806
  114OSM    H8S11890   4.985   6.408   9.869 -1.1101  0.0605  0.2023
  114OSM    H8T11891   4.892   6.264   9.807 -0.4276  1.7254 -1.3850
  114OSM    C9S11892   5.105   6.235   9.806 -0.1079  0.3262 -0.6620
  114OSM    H9S11893   5.101   6.127   9.780  0.8514  0.0367  0.2772
  114OSM    H9T11894   5.197   6.261   9.864 -0.0524  0.1697 -0.6803
  114OSM   C10S11895   5.127   6.297   9.662 -0.0504 -0.1401 -0.8881
  114OSM   H10S11896   5.112   6.407   9.667  0.5688 -0.1077  2.0338
  114OSM   H10T11897   5.039   6.258   9.606 -1.1578 -1.8480  1.8575
  114OSM   C11S11898   5.255   6.267   9.596 -0.8803  1.0479 -0.3699
  114OSM   H11S11899   5.236   6.246   9.489 -2.8618 -0.0264  0.1344
  114OSM   H11T11900   5.283   6.166   9.634 -2.6398  0.2413 -1.1037
  114OSM   C12S11901   5.371   6.360   9.598  0.4474  0.4468 -0.2310
  114OSM   H12S11902   5.340   6.463   9.570  0.0682  0.2604 -0.5127
  114OSM   H12T11903   5.444   6.324   9.523 -0.7024 -0.1406 -1.0960
  114OSM   C13S11904   5.440   6.369   9.736 -0.3983 -0.3137 -0.3340
  114OSM   H13S11905   5.468   6.273   9.783  2.5991  1.2873  1.4750
  114OSM   H13T11906   5.373   6.419   9.809 -0.5546 -1.4949  0.3522
  114OSM   C14S11907   5.580   6.449   9.738 -0.3489  0.0067  0.6478
  114OSM   H14S11908   5.628   6.458   9.838  2.5969 -1.0765 -0.5465
  114OSM   H14T11909   5.557   6.543   9.683  0.8841  0.2727  0.5397
  114OSM   C15S11910   5.693   6.385   9.651 -0.2619  0.3507  0.9284
  114OSM   H15S11911   5.658   6.391   9.546  3.7572  0.9769 -0.5342
  114OSM   H15T11912   5.715   6.277   9.668  1.5389  0.3184 -1.1681
  114OSM   C16S11913   5.825   6.459   9.654 -0.1635  0.1694 -0.1447
  114OSM   H16S11914   5.821   6.553   9.712  1.6521  0.8724 -1.0889
  114OSM   H16T11915   5.850   6.494   9.551  0.5779 -1.1300 -0.4292
  114OSM   C17S11916   5.939   6.370   9.717 -0.9016  0.0183  0.7584
  114OSM   H17S11917   5.900   6.330   9.813  1.2045  3.1965  3.1610
  114OSM   H17T11918   6.031   6.431   9.729 -1.2390  0.6544  0.1572
  114OSM   C18S11919   5.970   6.242   9.629  0.2227 -0.3744  0.0901
  114OSM   H18S11920   6.037   6.174   9.684 -1.1632 -0.9874  1.0873
  114OSM   H18T11921   6.028   6.270   9.539  1.0690 -0.3436  0.6400
  114OSM   H18U11922   5.877   6.192   9.595 -0.5644  0.5271  0.8146
  114OSM    C1F11923   4.624   6.179  10.490 -0.1725  0.2630 -0.0114
  114OSM     OF11924   4.568   6.259  10.561  0.6261  0.5619 -0.1852
  114OSM    C2F11925   4.545   6.079  10.420  0.2323 -0.3850  0.4286
  114OSM    H2F11926   4.471   6.027  10.485  0.0680 -0.0575  0.5044
  114OSM    H2G11927   4.608   5.996  10.382 -0.4013 -1.1353  0.9827
  114OSM    C3F11928   4.455   6.132  10.305 -0.1336 -0.2250  0.1788
  114OSM    H3F11929   4.374   6.191  10.352 -0.5421  0.3346 -1.1539
  114OSM    H3G11930   4.404   6.049  10.252 -0.0851 -0.0286 -0.1833
  114OSM    C4F11931   4.523   6.220  10.205  0.3691  0.2335  0.3359
  114OSM    H4F11932   4.607   6.156  10.171 -1.3388 -0.9261 -1.9343
  114OSM    H4G11933   4.568   6.312  10.247  1.3660 -0.1830  0.2189
  114OSM    C5F11934   4.437   6.256  10.081  0.5641 -0.7637 -0.0572
  114OSM    H5F11935   4.343   6.299  10.122  0.5908 -1.4453  0.7453
  114OSM    H5G11936   4.411   6.156  10.040 -1.9045 -0.0039 -0.5538
  114OSM    C6F11937   4.506   6.341   9.976 -0.1707  0.4566 -0.2061
  114OSM    H6F11938   4.601   6.292   9.945 -0.1716  0.4394 -0.1830
  114OSM    H6G11939   4.545   6.438  10.015  2.9132  0.2961 -2.5205
  114OSM    C7F11940   4.401   6.365   9.867 -0.9330  0.3039 -0.6176
  114OSM    H7F11941   4.333   6.442   9.910 -1.0356 -0.1933  0.1234
  114OSM    H7G11942   4.352   6.268   9.843 -0.5551 -0.6713  2.1765
  114OSM    C8F11943   4.460   6.415   9.725 -0.1124 -0.0281  0.2106
  114OSM    H8F11944   4.510   6.513   9.741  3.6309 -1.9431  1.6727
  114OSM    H8G11945   4.371   6.416   9.660 -0.0297 -1.7183  0.0233
  114OSM    C9F11946   4.570   6.322   9.676 -0.5841  0.6485  0.0771
  114OSM    H9F11947   4.550   6.215   9.688 -2.6536  1.1143  1.3202
  114OSM   C10F11948   4.684   6.355   9.615  0.1213  0.4161 -0.4047
  114OSM   H10F11949   4.757   6.281   9.580  1.0674  1.7690 -1.3952
  114OSM   C11F11950   4.741   6.493   9.580 -0.0064  0.2966  0.5614
  114OSM   H11F11951   4.843   6.503   9.622  0.2861 -1.0841  0.2076
  114OSM   H11G11952   4.673   6.570   9.623 -0.1763 -0.0982  1.0066
  114OSM   C12F11953   4.753   6.515   9.431  0.0848  0.4339  0.8210
  114OSM   H12F11954   4.787   6.619   9.411 -1.5814  0.8288 -0.1851
  114OSM   H12G11955   4.660   6.490   9.376  0.0335 -0.6265  1.3627
  114OSM   C13F11956   4.864   6.425   9.356 -0.2035 -0.5652 -0.0691
  114OSM   H13F11957   4.823   6.322   9.352  1.1130 -1.1197 -0.0241
  114OSM   H13G11958   4.962   6.422   9.409  0.1546 -1.0199 -0.7362
  114OSM   C14F11959   4.879   6.454   9.205  0.1032 -0.4901  0.2574
  114OSM   H14F11960   4.898   6.564   9.202 -2.8810  0.1077  0.7535
  114OSM   H14G11961   4.786   6.427   9.151  0.3915  1.6034 -1.4395
  114OSM   C15F11962   4.994   6.375   9.151 -0.0068  0.0852  0.2530
  114OSM   H15F11963   5.097   6.404   9.181 -0.8722  3.0522  0.6438
  114OSM   H15G11964   5.006   6.399   9.043  2.1094 -3.0790 -0.3589
  114OSM   C16F11965   4.987   6.221   9.167 -0.2608 -0.2190 -0.4754
  114OSM   H16F11966   4.884   6.186   9.145 -0.3427  0.1641 -0.6996
  114OSM   H16G11967   5.008   6.195   9.273  0.4788  1.6702 -0.1346
  114OSM   C17F11968   5.094   6.143   9.084 -0.1547  0.4796 -0.0768
  114OSM   H17F11969   5.102   6.182   8.980  0.8894  1.7890  0.4671
  114OSM   H17G11970   5.060   6.037   9.087 -1.4023  0.8727  2.3028
  114OSM   C18F11971   5.234   6.145   9.146  0.7683  0.0277  0.7352
  114OSM   H18F11972   5.231   6.082   9.238  2.5572  1.3635  1.7736
  114OSM   H18G11973   5.261   6.249   9.174 -1.8007  0.8234  0.5104
  114OSM   H18H11974   5.306   6.095   9.078 -0.9383 -1.7669  0.1422
  115OSM      N11975   0.771   4.835  11.297 -0.0666 -0.1454 -0.5212
  115OSM    C1511976   0.802   4.948  11.388  0.2384  0.2526  0.0688
  115OSM   H15A11977   0.758   5.040  11.352  1.2282 -0.3341 -2.8748
  115OSM   H15B11978   0.908   4.968  11.389  0.6664 -1.7170 -1.0251
  115OSM   H15C11979   0.784   4.933  11.494  1.2953  1.1124  0.3948
  115OSM    C1411980   0.827   4.709  11.355 -0.6029  0.4677 -0.7636
  115OSM   H14A11981   0.808   4.633  11.281  0.4707 -1.1865  0.5775
  115OSM   H14B11982   0.779   4.695  11.451 -1.6703  2.3785 -0.9766
  115OSM   H14C11983   0.934   4.717  11.367 -0.7750  1.5083  0.2285
  115OSM    C1311984   0.623   4.821  11.282 -0.6844 -0.4165 -0.3085
  115OSM   H13A11985   0.594   4.734  11.225  0.2830 -1.8417  1.3062
  115OSM   H13B11986   0.578   4.911  11.243 -0.1769 -0.8528 -1.9889
  115OSM   H13C11987   0.573   4.813  11.377  0.0783  0.6354  0.1946
  115OSM    C1211988   0.837   4.848  11.157  0.3831  0.4040  0.2682
  115OSM   H12A11989   0.945   4.848  11.167  0.5024 -1.1218 -0.7093
  115OSM   H12B11990   0.808   4.946  11.121 -1.3806  0.3788  1.5182
  115OSM    C1111991   0.797   4.742  11.051  0.2926 -0.6792 -0.4937
  115OSM   H11A11992   0.856   4.754  10.957  1.5026  0.1504  0.3405
  115OSM   H11B11993   0.691   4.761  11.024 -0.7230 -2.1840  2.0564
  115OSM      P11994   0.730   4.484  11.071  0.1949 -0.0755 -0.4020
  115OSM    O1311995   0.789   4.361  11.131 -0.0609  0.4524 -0.2965
  115OSM    O1411996   0.596   4.525  11.119  0.1126 -0.0044 -0.7596
  115OSM    O1111997   0.718   4.469  10.913  0.0255 -0.2018 -0.0758
  115OSM    O1211998   0.830   4.605  11.090 -0.1367 -0.4879 -0.5533
  115OSM    C1S11999   0.827   4.463  10.823  0.0187  0.0317 -0.0352
  115OSM    H1S12000   0.911   4.403  10.865 -0.6628  0.4728  2.0830
  115OSM    H1T12001   0.871   4.562  10.795  1.3557 -0.8717 -1.2665
  115OSM     NF12002   0.907   4.394  10.600 -0.0404 -0.2180  0.1226
  115OSM    HNF12003   0.916   4.470  10.535 -3.7894  1.2423  1.0086
  115OSM    C2S12004   0.793   4.397  10.690 -0.4601 -0.4079 -0.0525
  115OSM    H2S12005   0.770   4.290  10.707  3.4289 -1.4796 -0.7297
  115OSM    C3S12006   0.666   4.471  10.631  0.7332  0.2436 -0.1512
  115OSM    H3S12007   0.698   4.577  10.630  0.3703  0.3484 -0.7213
  115OSM     O312008   0.549   4.461  10.717 -0.5039  0.0486  0.3671
  115OSM    HO312009   0.577   4.441  10.806  0.7985 -0.8700 -0.2214
  115OSM    C4S12010   0.626   4.423  10.487 -0.5194  0.1569  0.1639
  115OSM    H4S12011   0.587   4.320  10.480  3.6492 -1.5084 -2.2869
  115OSM    C5S12012   0.636   4.486  10.375  0.5360 -0.6403 -0.0130
  115OSM    H5S12013   0.669   4.590  10.375  1.1252 -0.8180 -0.8367
  115OSM    C6S12014   0.603   4.427  10.242 -0.5051 -0.4841 -0.0244
  115OSM    H6S12015   0.561   4.325  10.255  0.8698 -0.9725  0.8701
  115OSM    H6T12016   0.702   4.420  10.192  0.1156 -0.1696  1.1320
  115OSM    C7S12017   0.509   4.507  10.149 -0.2119  0.8826  1.0140
  115OSM    H7S12018   0.547   4.610  10.128  1.1382 -0.0649 -1.6493
  115OSM    H7T12019   0.409   4.509  10.198 -0.4229  1.2157  0.5862
  115OSM    C8S12020   0.479   4.431  10.021 -0.0517  0.5310  0.1331
  115OSM    H8S12021   0.376   4.447   9.982  0.3016  0.1234 -1.0031
  115OSM    H8T12022   0.490   4.322  10.037  2.7381  0.9780  2.0054
  115OSM    C9S12023   0.589   4.457   9.918 -0.0624 -0.8414  0.4285
  115OSM    H9S12024   0.684   4.445   9.973  1.7099  2.8897 -1.4511
  115OSM    H9T12025   0.587   4.566   9.896 -2.2828 -1.0689 -0.8233
  115OSM   C10S12026   0.576   4.370   9.786  0.6741 -0.1493 -0.3738
  115OSM   H10S12027   0.508   4.415   9.710 -1.2544 -0.4260  1.1211
  115OSM   H10T12028   0.548   4.270   9.825 -0.1620  0.7318  1.3542
  115OSM   C11S12029   0.711   4.369   9.710 -0.7531  0.3140  0.6626
  115OSM   H11S12030   0.710   4.289   9.633  2.0677  1.6667 -0.9486
  115OSM   H11T12031   0.788   4.337   9.783 -0.2307 -1.4151 -0.5779
  115OSM   C12S12032   0.749   4.495   9.620 -0.2057 -0.0654  0.3787
  115OSM   H12S12033   0.854   4.488   9.585 -0.5502 -0.7454 -0.5740
  115OSM   H12T12034   0.742   4.585   9.684  1.1306  0.2210  0.1481
  115OSM   C13S12035   0.655   4.526   9.495 -1.0433  0.2523  0.0452
  115OSM   H13S12036   0.555   4.553   9.535 -1.8562  0.2641 -1.8823
  115OSM   H13T12037   0.642   4.436   9.432 -1.6974  1.7711 -2.1422
  115OSM   C14S12038   0.712   4.631   9.407  0.6018 -0.8659 -0.0654
  115OSM   H14S12039   0.802   4.600   9.349 -1.4998 -0.6057 -3.7307
  115OSM   H14T12040   0.744   4.716   9.472 -1.4224  0.9815 -1.3557
  115OSM   C15S12041   0.611   4.698   9.314 -0.2711 -0.4614 -1.0836
  115OSM   H15S12042   0.553   4.768   9.377  0.2040  1.1052 -2.3184
  115OSM   H15T12043   0.539   4.621   9.280 -0.4445  0.0804 -1.9862
  115OSM   C16S12044   0.673   4.765   9.189  0.4640 -0.9840  0.5555
  115OSM   H16S12045   0.740   4.695   9.135 -0.5695 -0.2950 -1.7331
  115OSM   H16T12046   0.724   4.859   9.221 -0.2491 -0.1778 -0.5859
  115OSM   C17S12047   0.556   4.824   9.101 -0.2983 -0.2684  0.2216
  115OSM   H17S12048   0.488   4.880   9.170 -2.0134  0.5091 -1.9867
  115OSM   H17T12049   0.509   4.737   9.051 -2.3941  0.9762 -0.0959
  115OSM   C18S12050   0.611   4.926   8.995 -0.4825  0.3104  0.6694
  115OSM   H18S12051   0.631   5.028   9.034  0.6499  0.9937 -1.5502
  115OSM   H18T12052   0.527   4.941   8.924  0.5642  1.7776 -0.2998
  115OSM   H18U12053   0.699   4.889   8.939 -0.8569  0.5956 -0.1245
  115OSM    C1F12054   1.012   4.322  10.643 -0.4302  0.2189 -0.2950
  115OSM     OF12055   1.003   4.238  10.738 -0.3195  0.0520 -0.0189
  115OSM    C2F12056   1.141   4.360  10.585 -0.4148  0.3196  0.0942
  115OSM    H2F12057   1.221   4.351  10.662  0.8239  2.0687 -0.9081
  115OSM    H2G12058   1.139   4.461  10.540 -0.2250 -0.0102 -0.6832
  115OSM    C3F12059   1.201   4.265  10.479 -0.5774  0.8118 -0.3721
  115OSM    H3F12060   1.207   4.157  10.505 -0.0327  0.7248 -0.8258
  115OSM    H3G12061   1.309   4.287  10.466 -0.4840 -0.6073 -2.3270
  115OSM    C4F12062   1.115   4.273  10.351  1.1127 -0.1199 -0.1479
  115OSM    H4F12063   1.094   4.379  10.323  0.7554 -0.8331 -2.8285
  115OSM    H4G12064   1.016   4.233  10.380  0.6429  2.0718  1.6426
  115OSM    C5F12065   1.162   4.191  10.234  0.2648  0.2341 -0.4739
  115OSM    H5F12066   1.176   4.085  10.266 -2.2504 -0.0074  0.0774
  115OSM    H5G12067   1.258   4.235  10.200  0.5225  0.3496  0.3785
  115OSM    C6F12068   1.054   4.206  10.129 -0.1434  0.1279 -0.6274
  115OSM    H6F12069   1.044   4.315  10.109  1.5872  0.6668  1.1677
  115OSM    H6G12070   0.947   4.186  10.152 -0.0861  0.0570 -0.4213
  115OSM    C7F12071   1.085   4.145   9.992 -0.3050 -0.4504 -0.5707
  115OSM    H7F12072   1.076   4.034   9.994  0.1697 -0.4847 -0.2895
  115OSM    H7G12073   1.189   4.172   9.963  0.2667  1.0479  2.4484
  115OSM    C8F12074   0.992   4.207   9.884 -0.9191 -0.1314  0.5765
  115OSM    H8F12075   1.026   4.311   9.866  0.3098 -0.6314 -0.1259
  115OSM    H8G12076   0.889   4.219   9.924 -0.1887  0.2909  2.4447
  115OSM    C9F12077   0.978   4.133   9.754  0.2098  0.0263  0.0119
  115OSM    H9F12078   0.908   4.048   9.755 -0.7898  0.8203  1.1953
  115OSM   C10F12079   1.031   4.167   9.633  0.5984  0.8086  0.3500
  115OSM   H10F12080   0.998   4.112   9.544 -1.5354  0.6096  1.1970
  115OSM   C11F12081   1.104   4.302   9.619  0.0853  0.6455  0.1918
  115OSM   H11F12082   1.200   4.291   9.674  1.2827  1.3453 -1.6708
  115OSM   H11G12083   1.049   4.386   9.667 -1.7665 -2.5436  4.3655
  115OSM   C12F12084   1.145   4.330   9.468  0.4333  0.0460  0.6156
  115OSM   H12F12085   1.184   4.232   9.433 -1.4226 -0.5578  0.1490
  115OSM   H12G12086   1.228   4.404   9.464  1.4368 -1.0500  0.3889
  115OSM   C13F12087   1.021   4.379   9.388  0.0898 -0.8771  0.1486
  115OSM   H13F12088   0.997   4.478   9.433 -0.9989 -0.8444 -0.4707
  115OSM   H13G12089   0.942   4.308   9.418 -1.4922  1.0589  0.8347
  115OSM   C14F12090   1.046   4.386   9.239  0.8229  0.5464  0.2027
  115OSM   H14F12091   1.044   4.283   9.197  0.1004  0.3342  0.7261
  115OSM   H14G12092   1.142   4.437   9.219 -0.4951  2.8723 -0.6490
  115OSM   C15F12093   0.937   4.457   9.167  0.1281 -0.1341 -0.1536
  115OSM   H15F12094   0.961   4.566   9.170 -1.5608  0.4550 -3.1453
  115OSM   H15G12095   0.840   4.439   9.219  0.9191  0.5380  1.6701
  115OSM   C16F12096   0.915   4.415   9.018  0.6561 -0.0398 -0.6966
  115OSM   H16F12097   0.821   4.456   8.976  0.1241 -1.8127 -1.3425
  115OSM   H16G12098   0.902   4.305   9.008  2.8643 -0.2089 -2.4440
  115OSM   C17F12099   1.037   4.448   8.940 -0.7997  0.6887 -0.5577
  115OSM   H17F12100   1.117   4.378   8.971 -2.1434 -0.7697 -0.2282
  115OSM   H17G12101   1.061   4.553   8.966 -0.5754  0.0163  2.2125
  115OSM   C18F12102   0.992   4.420   8.794 -0.7036  0.2330 -0.5451
  115OSM   H18F12103   1.083   4.388   8.740 -1.1752 -0.0727 -1.1707
  115OSM   H18G12104   0.966   4.513   8.740  0.3597  0.0350 -1.4255
  115OSM   H18H12105   0.927   4.331   8.783 -2.5297  1.4597 -0.1798
  116OSM      N12106   5.386   1.389  11.174  0.8024 -0.0824 -0.6062
  116OSM    C1512107   5.262   1.345  11.239 -0.0185 -0.2849 -0.0264
  116OSM   H15A12108   5.221   1.259  11.189 -0.0903  0.0868 -0.6154
  116OSM   H15B12109   5.175   1.407  11.230  0.0025 -0.4369 -1.4554
  116OSM   H15C12110   5.273   1.319  11.344  0.3108  2.1865  0.6061
  116OSM    C1412111   5.422   1.513  11.238 -0.8000 -0.3129 -0.4743
  116OSM   H14A12112   5.437   1.500  11.344 -0.5442 -1.4456 -0.6398
  116OSM   H14B12113   5.349   1.591  11.220  0.1007  0.3168 -1.5734
  116OSM   H14C12114   5.518   1.552  11.209 -2.2121  1.1726 -3.6477
  116OSM    C1312115   5.499   1.295  11.199 -0.6335  0.1310  0.5660
  116OSM   H13A12116   5.518   1.276  11.304  2.8332 -4.0457 -0.5401
  116OSM   H13B12117   5.590   1.314  11.144 -2.0744 -2.6385 -3.2034
  116OSM   H13C12118   5.469   1.194  11.173  1.9774 -0.6041  0.1494
  116OSM    C1212119   5.361   1.413  11.024  0.1649  0.5123  0.3978
  116OSM   H12A12120   5.345   1.315  10.982  0.2581  0.6248  0.0951
  116OSM   H12B12121   5.450   1.460  10.984 -0.5291  2.1723  0.7083
  116OSM    C1112122   5.241   1.505  10.990 -0.0756  0.3284  0.4111
  116OSM   H11A12123   5.150   1.458  11.033 -0.5374  1.2216  0.4292
  116OSM   H11B12124   5.231   1.502  10.879  0.6688  3.2119  0.1707
  116OSM      P12125   5.161   1.749  11.009  0.1076  0.1351  0.1430
  116OSM    O1312126   5.028   1.713  11.060  0.0224 -0.0513  0.0685
  116OSM    O1412127   5.223   1.876  11.057  0.7482 -0.4577  0.3933
  116OSM    O1112128   5.155   1.746  10.849 -0.1247  0.8846  0.1134
  116OSM    O1212129   5.260   1.635  11.041  0.2657  0.2684  0.0165
  116OSM    C1S12130   5.285   1.762  10.782  0.6762 -0.2444 -0.0954
  116OSM    H1S12131   5.353   1.679  10.810 -0.4489 -0.6662  1.5359
  116OSM    H1T12132   5.327   1.861  10.813 -0.5869  0.2707  0.0419
  116OSM     NF12133   5.379   1.814  10.566 -0.6501 -0.1852 -0.0334
  116OSM    HNF12134   5.387   1.911  10.546  0.2118  0.2004  1.9465
  116OSM    C2S12135   5.259   1.778  10.627  0.1321 -0.4796  0.0757
  116OSM    H2S12136   5.232   1.677  10.589 -1.7524  0.3659 -0.9670
  116OSM    C3S12137   5.148   1.873  10.592  0.3686 -1.0519  0.6835
  116OSM    H3S12138   5.164   1.978  10.624  2.5751 -1.1945  0.1662
  116OSM     O312139   5.025   1.834  10.645  0.4347 -0.2449 -0.2345
  116OSM    HO312140   5.053   1.795  10.728 -1.2339 -1.3149 -0.1169
  116OSM    C4S12141   5.121   1.869  10.442 -0.0555 -0.1282 -0.1847
  116OSM    H4S12142   5.082   1.774  10.404  0.9975 -0.9519  0.7112
  116OSM    C5S12143   5.150   1.974  10.361 -0.4901  0.7346  0.0381
  116OSM    H5S12144   5.199   2.062  10.406  3.8742 -0.3330 -1.9903
  116OSM    C6S12145   5.126   1.976  10.208  0.1834  0.8642 -0.1429
  116OSM    H6S12146   5.052   2.056  10.186  1.0842  2.2939  1.6879
  116OSM    H6T12147   5.079   1.878  10.185 -0.5257  0.4135  2.8429
  116OSM    C7S12148   5.259   1.983  10.141  0.3557  0.3397 -0.0029
  116OSM    H7S12149   5.332   1.905  10.169 -1.1958 -0.2832  2.6111
  116OSM    H7T12150   5.307   2.082  10.158 -0.1286  0.7724 -1.0160
  116OSM    C8S12151   5.232   1.978   9.987  0.4592  0.4262  0.3725
  116OSM    H8S12152   5.147   2.046   9.966 -0.6508 -0.7946  0.6896
  116OSM    H8T12153   5.198   1.876   9.958 -1.0357  1.6268 -2.4851
  116OSM    C9S12154   5.361   2.015   9.910  0.2333 -0.0138  0.2957
  116OSM    H9S12155   5.445   1.950   9.944  0.3956  0.4670  0.8176
  116OSM    H9T12156   5.384   2.121   9.932  0.3671  0.0416 -0.0904
  116OSM   C10S12157   5.344   2.000   9.757  0.0499  1.3127 -0.5523
  116OSM   H10S12158   5.254   2.060   9.731 -0.5803  0.7330  0.2303
  116OSM   H10T12159   5.339   1.889   9.749  1.7162  1.3491 -3.3943
  116OSM   C11S12160   5.456   2.046   9.668 -0.7587 -0.3127  0.3524
  116OSM   H11S12161   5.542   1.980   9.692  0.5292  0.9514 -0.5909
  116OSM   H11T12162   5.488   2.149   9.696 -1.0145  0.5626 -2.2306
  116OSM   C12S12163   5.441   2.053   9.516  0.1042  0.2783  0.4756
  116OSM   H12S12164   5.352   2.117   9.494 -0.3883 -0.4998  0.1513
  116OSM   H12T12165   5.420   1.952   9.475  1.7842 -0.1395  0.5612
  116OSM   C13S12166   5.568   2.107   9.436 -0.4434 -1.0784  0.6410
  116OSM   H13S12167   5.656   2.047   9.465  1.0848  1.3641  1.3633
  116OSM   H13T12168   5.597   2.213   9.456  0.4956 -1.4125  1.1183
  116OSM   C14S12169   5.534   2.114   9.287  0.7198  0.4654 -0.2798
  116OSM   H14S12170   5.544   2.015   9.239  1.1701 -0.9127  2.4693
  116OSM   H14T12171   5.609   2.176   9.233  1.0390  0.1604 -0.1845
  116OSM   C15S12172   5.395   2.180   9.245 -0.5473 -0.5311  0.2786
  116OSM   H15S12173   5.417   2.288   9.256  1.9450 -0.8306 -0.8817
  116OSM   H15T12174   5.305   2.155   9.305  0.0515 -1.5791  0.7790
  116OSM   C16S12175   5.334   2.140   9.115  0.5523  0.2815  1.0827
  116OSM   H16S12176   5.266   2.220   9.081 -1.8821 -2.0505  0.1030
  116OSM   H16T12177   5.263   2.058   9.137  0.0056  0.4545  0.0443
  116OSM   C17S12178   5.426   2.093   9.004 -0.1691 -0.1888 -0.4455
  116OSM   H17S12179   5.499   2.014   9.032 -1.8801 -1.0158  1.9687
  116OSM   H17T12180   5.488   2.183   8.980 -1.3575  1.4493  2.1953
  116OSM   C18S12181   5.350   2.045   8.873 -0.1304 -0.2367  0.2115
  116OSM   H18S12182   5.420   2.022   8.790  0.2158  1.1992  0.0838
  116OSM   H18T12183   5.278   2.125   8.847  0.4128  1.3597  3.1548
  116OSM   H18U12184   5.300   1.950   8.902  0.4559 -0.5731  0.1453
  116OSM    C1F12185   5.485   1.729  10.566  0.0416 -0.1335 -0.3350
  116OSM     OF12186   5.467   1.613  10.570  0.3262 -0.1852 -0.6063
  116OSM    C2F12187   5.621   1.790  10.543 -0.0111 -0.5228 -0.3734
  116OSM    H2F12188   5.668   1.825  10.638 -2.1028  0.5694  0.3275
  116OSM    H2G12189   5.603   1.886  10.490 -0.8869  0.6283  1.8703
  116OSM    C3F12190   5.716   1.707  10.452 -0.1296 -0.7810  0.0292
  116OSM    H3F12191   5.659   1.632  10.392  0.7077 -2.2730  1.0461
  116OSM    H3G12192   5.784   1.645  10.513 -0.7728 -0.9426  0.5986
  116OSM    C4F12193   5.801   1.788  10.347 -0.2548 -0.0437  0.1580
  116OSM    H4F12194   5.873   1.711  10.313 -2.6536 -2.8674  1.0707
  116OSM    H4G12195   5.856   1.871  10.397 -0.4670  0.4332 -0.3812
  116OSM    C5F12196   5.719   1.842  10.229 -0.6987 -0.3419  0.7082
  116OSM    H5F12197   5.651   1.922  10.264  0.5349  0.5861  1.0839
  116OSM    H5G12198   5.668   1.752  10.190 -1.3168  0.8267 -1.2974
  116OSM    C6F12199   5.817   1.883  10.120  0.2620 -0.7438  0.6075
  116OSM    H6F12200   5.888   1.798  10.118  0.8989 -0.4037  3.5350
  116OSM    H6G12201   5.871   1.971  10.160 -1.1069  1.7230 -2.5596
  116OSM    C7F12202   5.749   1.906   9.981  0.0545  0.2366 -0.4343
  116OSM    H7F12203   5.688   1.997  10.000 -0.5103 -0.6206  2.2019
  116OSM    H7G12204   5.677   1.827   9.949 -1.1445  0.3585  1.7872
  116OSM    C8F12205   5.843   1.948   9.861  0.2640  0.0716 -0.4937
  116OSM    H8F12206   5.781   1.944   9.769  0.9483 -0.4384 -0.9476
  116OSM    H8G12207   5.918   1.867   9.848  1.2458  0.9335 -0.3486
  116OSM    C9F12208   5.904   2.083   9.878  0.6165  0.2406  0.8381
  116OSM    H9F12209   5.928   2.121   9.979  1.6380 -0.2154  0.7818
  116OSM   C10F12210   5.912   2.175   9.778  0.3509  0.8888  0.4645
  116OSM   H10F12211   5.944   2.278   9.800 -0.8193  1.2115  0.6964
  116OSM   C11F12212   5.872   2.147   9.634  0.1107  0.2036 -0.5138
  116OSM   H11F12213   5.775   2.197   9.615 -0.0294  0.9346  1.8306
  116OSM   H11G12214   5.860   2.039   9.613 -2.8067  0.1174  1.1652
  116OSM   C12F12215   5.967   2.226   9.536 -0.2220  0.2528  0.0266
  116OSM   H12F12216   6.063   2.173   9.554 -0.7591 -0.9624 -0.5672
  116OSM   H12G12217   5.962   2.332   9.571  2.8334  0.9400 -1.3363
  116OSM   C13F12218   5.934   2.208   9.386 -0.0130 -0.6308  0.4299
  116OSM   H13F12219   5.832   2.251   9.377  0.1450 -0.5072 -0.8566
  116OSM   H13G12220   5.919   2.100   9.364 -0.8231 -0.3566 -0.4086
  116OSM   C14F12221   6.036   2.279   9.292 -0.3440 -0.1270  0.7215
  116OSM   H14F12222   6.140   2.242   9.304 -0.3763  0.1127  1.8621
  116OSM   H14G12223   6.040   2.385   9.324  0.8684 -0.1545  0.7070
  116OSM   C15F12224   6.008   2.261   9.145  0.3469 -0.0883 -0.8857
  116OSM   H15F12225   5.916   2.317   9.119  0.1303 -0.1586 -0.2764
  116OSM   H15G12226   5.992   2.153   9.124  1.4797 -0.6934  1.1035
  116OSM   C16F12227   6.122   2.326   9.056  0.1021 -0.1202 -0.8489
  116OSM   H16F12228   6.222   2.292   9.092 -0.8925 -1.5579  0.7361
  116OSM   H16G12229   6.117   2.436   9.064 -0.9794 -0.2006 -0.2998
  116OSM   C17F12230   6.112   2.288   8.908  0.3774  0.3781  0.4775
  116OSM   H17F12231   6.011   2.296   8.864  1.2784  0.7681 -1.6312
  116OSM   H17G12232   6.143   2.181   8.907 -1.2829 -0.1311  1.0261
  116OSM   C18F12233   6.211   2.377   8.823 -0.0458  1.3828 -0.1766
  116OSM   H18F12234   6.307   2.347   8.869 -0.2873  1.4393  0.3686
  116OSM   H18G12235   6.195   2.487   8.835 -1.1084  1.3801 -1.3558
  116OSM   H18H12236   6.197   2.349   8.716  0.8868  0.7616 -0.1427
  117OSM      N12237   1.527   2.633  10.957  0.3486 -0.2268  0.9854
  117OSM    C1512238   1.383   2.621  10.949  0.2007  0.5565 -0.0868
  117OSM   H15A12239   1.344   2.676  11.033 -0.0016 -1.9360  1.5704
  117OSM   H15B12240   1.354   2.519  10.970 -1.2942  0.8130 -0.8238
  117OSM   H15C12241   1.346   2.639  10.850 -1.2518 -0.2153  0.2806
  117OSM    C1412242   1.575   2.581  11.086 -0.2995 -0.1638 -0.4538
  117OSM   H14A12243   1.683   2.587  11.095 -0.1331  2.9047 -2.8179
  117OSM   H14B12244   1.551   2.479  11.113  1.6540 -0.5384  0.0392
  117OSM   H14C12245   1.549   2.643  11.170  1.5873 -2.4343  1.9625
  117OSM    C1312246   1.587   2.542  10.847 -0.0165 -0.2497  0.1879
  117OSM   H13A12247   1.694   2.547  10.848 -0.0250  0.1044 -0.4549
  117OSM   H13B12248   1.545   2.567  10.751  1.5682 -1.6951 -0.9371
  117OSM   H13C12249   1.563   2.437  10.855 -3.0320  0.3157 -0.1941
  117OSM    C1212250   1.569   2.777  10.934 -0.4539 -1.0327 -0.3222
  117OSM   H12A12251   1.536   2.806  10.835  2.3399  0.4184 -0.9271
  117OSM   H12B12252   1.674   2.786  10.956 -0.2024 -0.1965 -1.7586
  117OSM    C1112253   1.501   2.883  11.028  0.7456 -0.2912  0.2072
  117OSM   H11A12254   1.391   2.875  11.037  0.7388 -0.2975  0.1108
  117OSM   H11B12255   1.503   2.980  10.974  0.1980 -0.1122  0.4964
  117OSM      P12256   1.696   2.971  11.185  0.6762  0.2866  0.1393
  117OSM    O1312257   1.647   3.109  11.185 -0.0226  0.2632 -0.2738
  117OSM    O1412258   1.778   2.910  11.299 -0.4871 -0.0054  0.1364
  117OSM    O1112259   1.768   2.945  11.047 -0.4069  0.4858 -0.3476
  117OSM    O1212260   1.568   2.879  11.156  0.7005 -0.6439  0.3095
  117OSM    C1S12261   1.911   2.934  11.038  0.6856 -0.5538  0.2759
  117OSM    H1S12262   1.950   2.832  11.062  2.9903 -0.6290 -3.1315
  117OSM    H1T12263   1.961   3.007  11.104  1.7694 -0.8345 -0.2107
  117OSM     NF12264   2.081   2.902  10.848 -0.2804  0.5530 -0.0696
  117OSM    HNF12265   2.163   2.958  10.849 -0.4602  0.8393 -0.7626
  117OSM    C2S12266   1.955   2.970  10.887  0.0046 -0.2607 -0.5546
  117OSM    H2S12267   1.875   2.933  10.819 -0.3452  0.8214 -0.7510
  117OSM    C3S12268   1.962   3.117  10.876 -0.1980 -0.5226 -0.3609
  117OSM    H3S12269   2.032   3.152  10.954  0.1572 -2.4735  0.2595
  117OSM     O312270   1.834   3.176  10.910  0.0537  0.3084  0.1108
  117OSM    HO312271   1.792   3.098  10.946  2.7247 -1.2281  0.1591
  117OSM    C4S12272   2.013   3.166  10.745 -0.0062 -0.6194  0.7021
  117OSM    H4S12273   2.123   3.173  10.744  0.0192 -1.0734 -0.1681
  117OSM    C5S12274   1.948   3.219  10.639 -0.8858  0.0212 -0.2538
  117OSM    H5S12275   1.839   3.222  10.647 -1.0626 -0.6578 -1.9980
  117OSM    C6S12276   2.013   3.274  10.516 -0.6685 -0.3149 -0.8162
  117OSM    H6S12277   2.100   3.338  10.544  1.1694 -2.9610 -0.0768
  117OSM    H6T12278   1.930   3.333  10.473 -1.2657 -0.0429  0.6675
  117OSM    C7S12279   2.052   3.159  10.419 -0.3714 -0.4250  0.6430
  117OSM    H7S12280   1.964   3.103  10.380  1.2035 -3.4768  1.1789
  117OSM    H7T12281   2.125   3.089  10.463 -0.8774 -1.3467  0.0504
  117OSM    C8S12282   2.127   3.213  10.290 -0.0987 -0.1961 -0.7498
  117OSM    H8S12283   2.219   3.266  10.322 -0.6899 -0.1436  0.9373
  117OSM    H8T12284   2.064   3.280  10.228  0.0116 -0.0896 -0.7474
  117OSM    C9S12285   2.168   3.097  10.201 -0.4317  0.1223  0.2208
  117OSM    H9S12286   2.220   3.023  10.266  0.0604  0.9435  0.7911
  117OSM    H9T12287   2.244   3.138  10.132  0.3664 -1.1693  0.2976
  117OSM   C10S12288   2.053   3.033  10.125  0.7457 -0.1546  0.2931
  117OSM   H10S12289   1.972   3.009  10.197  2.0432 -2.2360  1.1592
  117OSM   H10T12290   2.085   2.935  10.083  0.2843 -0.7426  1.2675
  117OSM   C11S12291   2.006   3.123  10.013  0.3437  0.2527 -0.2620
  117OSM   H11S12292   2.090   3.165   9.955  1.1331 -0.8375  0.0571
  117OSM   H11T12293   1.957   3.214  10.054 -0.9615  0.2032 -1.6106
  117OSM   C12S12294   1.915   3.045   9.914  0.0230 -0.2646  0.4910
  117OSM   H12S12295   1.855   3.108   9.845  2.7090 -1.3059 -3.1312
  117OSM   H12T12296   1.853   2.978   9.977  0.0991 -0.5264  0.2909
  117OSM   C13S12297   1.994   2.958   9.816  0.7223  0.8784  0.4948
  117OSM   H13S12298   2.048   2.871   9.859 -0.5041 -0.6353 -0.9042
  117OSM   H13T12299   2.068   3.024   9.766  1.1304 -1.3040 -2.0129
  117OSM   C14S12300   1.892   2.887   9.725 -0.0016 -0.2760 -0.3260
  117OSM   H14S12301   1.817   2.956   9.680 -0.0692 -0.0782  0.0899
  117OSM   H14T12302   1.828   2.832   9.797  0.9055  0.0688  0.7733
  117OSM   C15S12303   1.953   2.803   9.613 -0.4620  0.3286 -0.2245
  117OSM   H15S12304   1.873   2.731   9.587 -0.2493 -0.3642  0.9527
  117OSM   H15T12305   2.044   2.752   9.653  0.2343  2.2649  0.7811
  117OSM   C16S12306   1.992   2.876   9.480 -0.1454 -0.1958  0.4713
  117OSM   H16S12307   2.050   2.966   9.508 -0.2211  0.2385 -0.7159
  117OSM   H16T12308   1.897   2.898   9.428  0.4964  0.6500 -0.3853
  117OSM   C17S12309   2.079   2.799   9.377 -0.2972 -0.0301 -0.6169
  117OSM   H17S12310   2.037   2.697   9.372 -1.3590  0.3656 -0.1505
  117OSM   H17T12311   2.175   2.790   9.432 -1.2811 -1.1388  0.9912
  117OSM   C18S12312   2.083   2.850   9.232  0.1350 -0.1656 -0.3748
  117OSM   H18S12313   1.977   2.867   9.206 -0.8636 -0.0032  3.1829
  117OSM   H18T12314   2.124   2.771   9.166  0.1753 -0.0609 -0.4768
  117OSM   H18U12315   2.133   2.948   9.216 -2.1375  1.1695  0.2280
  117OSM    C1F12316   2.080   2.767  10.846  0.3190  0.1271  0.1439
  117OSM     OF12317   1.970   2.714  10.829  0.2732 -0.1258 -0.5029
  117OSM    C2F12318   2.205   2.692  10.890  0.0660 -0.2046  0.5644
  117OSM    H2F12319   2.211   2.635  10.985  2.0071  0.2565  0.7623
  117OSM    H2G12320   2.287   2.764  10.910  1.3931 -1.7858  1.1023
  117OSM    C3F12321   2.248   2.592  10.782 -0.3132 -0.2848  0.9253
  117OSM    H3F12322   2.175   2.510  10.770 -0.1669 -0.0474 -2.7213
  117OSM    H3G12323   2.343   2.549  10.820  0.7266  1.7166  0.7628
  117OSM    C4F12324   2.291   2.645  10.639 -0.0522 -0.3904  0.6969
  117OSM    H4F12325   2.397   2.672  10.659 -0.1210 -0.5349  1.2812
  117OSM    H4G12326   2.233   2.732  10.601  0.5415  0.2315  1.2044
  117OSM    C5F12327   2.286   2.548  10.528 -0.4379 -0.0325 -0.1823
  117OSM    H5F12328   2.181   2.513  10.515 -0.8089  1.1613 -0.5136
  117OSM    H5G12329   2.356   2.463  10.542 -1.0028 -0.5546 -0.4458
  117OSM    C6F12330   2.338   2.607  10.397 -0.4143 -0.3106  0.1464
  117OSM    H6F12331   2.436   2.653  10.422 -0.5829 -0.9821  2.2345
  117OSM    H6G12332   2.269   2.689  10.368  2.5907  2.2076 -0.3618
  117OSM    C7F12333   2.352   2.504  10.284 -0.0335  0.3030 -0.4807
  117OSM    H7F12334   2.250   2.496  10.242 -1.7170 -0.0822  3.2832
  117OSM    H7G12335   2.388   2.407  10.324  2.6730  1.6716  0.6611
  117OSM    C8F12336   2.469   2.555  10.195 -0.4459 -0.1529  0.2239
  117OSM    H8F12337   2.498   2.472  10.127 -0.0438  0.6054 -0.5336
  117OSM    H8G12338   2.569   2.563  10.242 -0.5334 -2.1151  0.8596
  117OSM    C9F12339   2.418   2.677  10.115 -0.0394  0.2372 -0.1859
  117OSM    H9F12340   2.414   2.765  10.182  0.5548 -0.7236  1.1654
  117OSM   C10F12341   2.407   2.692   9.984 -0.1392 -0.1420 -0.8147
  117OSM   H10F12342   2.379   2.797   9.967  0.9754  0.4412  0.7176
  117OSM   C11F12343   2.420   2.587   9.874 -0.3050 -0.3594 -0.8332
  117OSM   H11F12344   2.321   2.541   9.851 -0.4809  0.2617 -1.3515
  117OSM   H11G12345   2.493   2.507   9.899 -0.1614  0.0023 -0.0659
  117OSM   C12F12346   2.448   2.665   9.746  0.6169 -0.0798  0.1248
  117OSM   H12F12347   2.548   2.713   9.753  0.4286  0.4804 -0.8870
  117OSM   H12G12348   2.367   2.739   9.734 -0.5284 -1.6596 -2.9120
  117OSM   C13F12349   2.452   2.567   9.619  0.1536 -0.5875  0.0826
  117OSM   H13F12350   2.356   2.511   9.620  0.0156 -0.3742 -0.5835
  117OSM   H13G12351   2.534   2.494   9.633 -1.7517 -2.2473  4.6478
  117OSM   C14F12352   2.459   2.661   9.496 -0.2642  0.3696 -0.4400
  117OSM   H14F12353   2.558   2.711   9.485  0.3950 -0.5980  0.9298
  117OSM   H14G12354   2.374   2.732   9.482  0.7292  1.1898 -2.9641
  117OSM   C15F12355   2.457   2.587   9.361  0.0518  0.5856 -0.3203
  117OSM   H15F12356   2.368   2.521   9.354  0.2155  0.1287  1.3437
  117OSM   H15G12357   2.543   2.517   9.376 -0.9806 -0.2510  2.3107
  117OSM   C16F12358   2.467   2.664   9.230  0.0841 -0.1202  0.4047
  117OSM   H16F12359   2.565   2.716   9.226 -0.4278  0.9444  1.1456
  117OSM   H16G12360   2.399   2.752   9.231  0.4089  0.2357 -2.1363
  117OSM   C17F12361   2.461   2.564   9.102 -0.2179 -0.3066 -0.4517
  117OSM   H17F12362   2.540   2.487   9.103  1.4571  1.3124  1.8781
  117OSM   H17G12363   2.498   2.635   9.025 -1.4961 -0.9976 -1.7713
  117OSM   C18F12364   2.325   2.505   9.070  0.2611 -0.2315 -0.1092
  117OSM   H18F12365   2.265   2.598   9.060  1.9685  1.1149  1.3117
  117OSM   H18G12366   2.283   2.444   9.152 -0.4345 -1.3074 -1.2316
  117OSM   H18H12367   2.337   2.444   8.978  2.0134 -0.1388  0.0159
  118OSM      N12368   2.929   4.060  11.496 -0.7324 -0.0024  0.6703
  118OSM    C1512369   2.795   4.000  11.527 -0.4151  0.4403 -0.0989
  118OSM   H15A12370   2.790   3.895  11.553 -3.9535 -0.5127 -3.5141
  118OSM   H15B12371   2.730   4.021  11.443 -1.1313  0.7560  0.5284
  118OSM   H15C12372   2.757   4.048  11.616  1.4795 -0.9132  1.5233
  118OSM    C1412373   2.898   4.205  11.484 -0.0958  0.4822  0.8808
  118OSM   H14A12374   2.812   4.235  11.427 -0.2123  0.0440  0.8254
  118OSM   H14B12375   2.978   4.255  11.431 -1.0535 -0.0793 -1.1987
  118OSM   H14C12376   2.884   4.238  11.585 -0.2718  2.7016  0.1802
  118OSM    C1312377   3.028   4.039  11.605 -0.3989 -0.3406 -0.3217
  118OSM   H13A12378   3.126   4.083  11.596  0.4089 -1.7865  0.9287
  118OSM   H13B12379   3.040   3.933  11.619  0.4509 -0.0558  1.3278
  118OSM   H13C12380   2.984   4.075  11.697  0.3286  0.0485 -0.1223
  118OSM    C1212381   2.991   4.005  11.359 -0.2241  0.5608  0.3992
  118OSM   H12A12382   2.991   3.897  11.363 -0.5235  0.5699  0.6707
  118OSM   H12B12383   3.094   4.037  11.354 -0.2788  0.5676 -1.4133
  118OSM    C1112384   2.922   4.050  11.227 -0.2056 -0.4776  0.2608
  118OSM   H11A12385   2.966   4.008  11.134  0.7952 -0.4590  0.7068
  118OSM   H11B12386   2.925   4.161  11.215  0.9242 -0.3637  1.3378
  118OSM      P12387   2.672   4.061  11.139  0.1143  0.3520 -0.3672
  118OSM    O1312388   2.558   3.964  11.150  0.4190 -0.3334  0.2181
  118OSM    O1412389   2.646   4.199  11.180 -0.0895 -0.4173  0.1398
  118OSM    O1112390   2.737   4.044  10.989  0.0510  0.4344 -1.0152
  118OSM    O1212391   2.785   4.004  11.229  0.0864 -0.0295 -0.4383
  118OSM    C1S12392   2.815   3.930  10.945 -0.0206 -0.0909 -0.3384
  118OSM    H1S12393   2.829   3.858  11.028  0.2919 -0.9411 -1.1088
  118OSM    H1T12394   2.919   3.961  10.920  0.5375 -0.9004  0.8830
  118OSM     NF12395   2.822   3.727  10.794 -0.0501  0.0113 -0.0970
  118OSM    HNF12396   2.867   3.725  10.705 -0.7996 -1.6557 -0.4883
  118OSM    C2S12397   2.742   3.842  10.832  0.0166  0.6758 -0.3818
  118OSM    H2S12398   2.650   3.798  10.877  0.2361  0.0791 -0.5080
  118OSM    C3S12399   2.704   3.941  10.717 -0.1884  1.0609  0.0636
  118OSM    H3S12400   2.801   3.973  10.675  0.8154 -0.1194  1.3777
  118OSM     O312401   2.634   4.060  10.744  0.0501  0.2952 -0.1898
  118OSM    HO312402   2.640   4.066  10.840  0.0272  0.3175 -0.1896
  118OSM    C4S12403   2.641   3.856  10.605  0.1199  0.0481  0.2372
  118OSM    H4S12404   2.710   3.802  10.539  1.1428  1.8422 -0.2051
  118OSM    C5S12405   2.509   3.845  10.582  0.1464  0.7062 -0.3090
  118OSM    H5S12406   2.435   3.887  10.652 -1.8126 -2.0886 -0.5349
  118OSM    C6S12407   2.452   3.762  10.469  0.4485  0.5828 -0.4233
  118OSM    H6S12408   2.379   3.690  10.511  0.5064  0.7424 -0.0522
  118OSM    H6T12409   2.539   3.703  10.433  1.5550  1.0992  1.3059
  118OSM    C7S12410   2.379   3.853  10.364 -0.0872  0.2423  0.3189
  118OSM    H7S12411   2.457   3.919  10.323 -0.9078  0.9157 -0.1879
  118OSM    H7T12412   2.305   3.920  10.413 -1.0083  0.8924 -1.8493
  118OSM    C8S12413   2.313   3.767  10.252  0.1257  0.0082  0.0553
  118OSM    H8S12414   2.257   3.830  10.180 -0.9717 -2.4216 -1.3428
  118OSM    H8T12415   2.241   3.703  10.307 -0.2586 -1.9048 -2.5082
  118OSM    C9S12416   2.400   3.664  10.169  0.4001 -0.5086  0.9614
  118OSM    H9S12417   2.478   3.617  10.233  1.3975 -0.3535 -0.1068
  118OSM    H9T12418   2.458   3.720  10.093 -2.3543  0.8639 -0.2575
  118OSM   C10S12419   2.311   3.570  10.095 -0.1859 -0.7935 -0.0489
  118OSM   H10S12420   2.233   3.629  10.041 -0.7557  0.0720  1.6337
  118OSM   H10T12421   2.253   3.510  10.168 -0.8798  1.6769  1.5834
  118OSM   C11S12422   2.385   3.471  10.001  0.3764  0.1776 -0.4159
  118OSM   H11S12423   2.451   3.409  10.065 -2.3344 -2.4333  0.0919
  118OSM   H11T12424   2.439   3.547   9.942  2.5657 -0.4453  0.6989
  118OSM   C12S12425   2.292   3.379   9.918 -0.0809  0.5719 -0.7740
  118OSM   H12S12426   2.219   3.332   9.987  1.4860  1.8049  1.8552
  118OSM   H12T12427   2.347   3.291   9.877 -1.6901 -0.9459  0.1873
  118OSM   C13S12428   2.222   3.439   9.802 -0.2013  0.7340 -0.4962
  118OSM   H13S12429   2.291   3.468   9.721 -1.7702 -0.5356 -2.3647
  118OSM   H13T12430   2.173   3.537   9.822  0.2210  1.6288 -3.4390
  118OSM   C14S12431   2.130   3.331   9.732 -0.6386 -0.3889  0.1731
  118OSM   H14S12432   2.041   3.315   9.797 -0.8509  0.1671  0.0212
  118OSM   H14T12433   2.176   3.234   9.702 -2.8636 -1.3812 -0.2360
  118OSM   C15S12434   2.079   3.387   9.598 -0.2940  0.3068 -0.4333
  118OSM   H15S12435   2.166   3.429   9.544 -0.6201  2.2052  0.4204
  118OSM   H15T12436   2.005   3.467   9.621  0.7581  0.3329  3.6039
  118OSM   C16S12437   2.011   3.290   9.509 -0.0797  0.1851  0.2845
  118OSM   H16S12438   1.933   3.233   9.564 -0.4183  0.1406 -0.2290
  118OSM   H16T12439   2.080   3.211   9.475 -1.9258 -0.5838 -1.9631
  118OSM   C17S12440   1.950   3.363   9.386 -0.3129  0.2769 -1.4729
  118OSM   H17S12441   2.035   3.399   9.325  1.1074  0.8543  0.7346
  118OSM   H17T12442   1.890   3.439   9.442 -2.6783 -2.9219  0.7281
  118OSM   C18S12443   1.861   3.281   9.300  0.1243 -0.3150  0.8395
  118OSM   H18S12444   1.911   3.186   9.273 -2.0296 -1.8612  2.0470
  118OSM   H18T12445   1.836   3.341   9.210  0.4693  1.6736  2.0139
  118OSM   H18U12446   1.767   3.249   9.349 -0.2693 -1.8687 -0.8144
  118OSM    C1F12447   2.836   3.620  10.864  0.2646  0.2039 -0.2950
  118OSM     OF12448   2.770   3.596  10.964 -0.1233  0.0118  0.3222
  118OSM    C2F12449   2.946   3.523  10.831  0.1470  0.3587 -0.0258
  118OSM    H2F12450   2.902   3.422  10.815  1.7825 -0.1158 -1.9040
  118OSM    H2G12451   3.005   3.512  10.924  0.0137  0.2766  0.0501
  118OSM    C3F12452   3.030   3.556  10.701  0.4340 -0.1806 -0.8260
  118OSM    H3F12453   3.073   3.655  10.727 -0.8514  1.1125 -3.2541
  118OSM    H3G12454   2.961   3.567  10.616 -1.2005 -0.2759  0.4314
  118OSM    C4F12455   3.135   3.439  10.675 -0.4678 -0.4077  0.5657
  118OSM    H4F12456   3.081   3.343  10.660 -0.2387 -0.6665  1.3314
  118OSM    H4G12457   3.191   3.426  10.770  1.9754  0.7199 -0.6289
  118OSM    C5F12458   3.237   3.473  10.561  0.5950  0.2484 -0.0374
  118OSM    H5F12459   3.309   3.553  10.588  0.2923  0.6694 -0.4637
  118OSM    H5G12460   3.169   3.502  10.478  0.5594 -1.6302 -0.7073
  118OSM    C6F12461   3.312   3.352  10.494  0.8439 -0.4718 -0.0167
  118OSM    H6F12462   3.232   3.275  10.503  0.8009 -0.1465  4.1281
  118OSM    H6G12463   3.403   3.322  10.550  1.8422 -0.2419 -1.4648
  118OSM    C7F12464   3.363   3.381  10.350 -0.0373 -0.6241 -0.3074
  118OSM    H7F12465   3.428   3.471  10.351 -0.4959 -0.2180  2.8990
  118OSM    H7G12466   3.275   3.395  10.284 -1.1718  0.0998  1.3039
  118OSM    C8F12467   3.430   3.261  10.272  0.0398  0.4262  0.5439
  118OSM    H8F12468   3.359   3.177  10.284  1.5053 -1.0380 -0.6364
  118OSM    H8G12469   3.522   3.222  10.321  1.7160  0.8302 -2.0625
  118OSM    C9F12470   3.473   3.304  10.130  0.4951  0.3970 -0.6513
  118OSM    H9F12471   3.495   3.410  10.107 -0.6862  0.4711 -1.5434
  118OSM   C10F12472   3.471   3.220  10.024  0.2903 -0.2265  0.3934
  118OSM   H10F12473   3.494   3.263   9.925 -3.4883 -0.8808 -0.9237
  118OSM   C11F12474   3.443   3.073  10.026  0.2609  0.3773  0.3654
  118OSM   H11F12475   3.408   3.051  10.129 -0.5934 -0.2315 -0.0492
  118OSM   H11G12476   3.535   3.021   9.993  0.5539  1.2400 -0.2241
  118OSM   C12F12477   3.324   3.031   9.922 -0.0743 -0.4020 -0.0550
  118OSM   H12F12478   3.310   2.922   9.910 -3.0665 -0.1961  0.9253
  118OSM   H12G12479   3.342   3.066   9.818  0.7186  1.4175  0.6539
  118OSM   C13F12480   3.191   3.088   9.973 -0.7346 -1.0707 -0.5194
  118OSM   H13F12481   3.199   3.198   9.985 -3.3453 -0.8919  0.1334
  118OSM   H13G12482   3.180   3.050  10.077  0.3984 -2.5980 -0.9129
  118OSM   C14F12483   3.065   3.050   9.897  0.2207  0.2181 -0.6944
  118OSM   H14F12484   2.980   3.106   9.943 -0.3116  0.2532 -1.7045
  118OSM   H14G12485   3.054   2.939   9.903  2.1739  0.0326  3.5130
  118OSM   C15F12486   3.073   3.095   9.746  0.4279 -0.3158 -0.3292
  118OSM   H15F12487   3.153   3.030   9.704  1.6289  1.9506 -1.7281
  118OSM   H15G12488   3.115   3.197   9.751 -0.4547  0.0274  4.1455
  118OSM   C16F12489   2.941   3.082   9.662 -0.1951 -0.1407  0.0023
  118OSM   H16F12490   2.874   3.162   9.700 -0.6155  0.0062 -1.0200
  118OSM   H16G12491   2.895   2.981   9.668  1.6348 -1.0239 -0.3508
  118OSM   C17F12492   2.939   3.104   9.500  0.1322 -0.2588 -0.2598
  118OSM   H17F12493   2.836   3.114   9.461  0.0463  1.8993  0.3871
  118OSM   H17G12494   2.977   3.017   9.443 -1.4447 -0.1206 -1.6124
  118OSM   C18F12495   3.017   3.233   9.461 -0.0103 -0.7113 -0.5337
  118OSM   H18F12496   2.992   3.240   9.353  1.0526  1.1331 -0.7013
  118OSM   H18G12497   3.126   3.223   9.477 -0.2835 -1.6062  1.0201
  118OSM   H18H12498   2.979   3.322   9.516  1.5131  0.7122 -1.6787
  119OSM      N12499   4.080   2.660  11.381  0.3964 -0.1586 -0.1677
  119OSM    C1512500   3.939   2.706  11.371  0.5126  0.2116 -0.7797
  119OSM   H15A12501   3.928   2.804  11.326 -0.4068 -0.1980 -1.4819
  119OSM   H15B12502   3.884   2.707  11.464 -0.3015  0.8280 -1.2472
  119OSM   H15C12503   3.875   2.647  11.307 -0.6641  0.0346  0.4926
  119OSM    C1412504   4.138   2.722  11.503 -0.0549 -0.2845 -0.5494
  119OSM   H14A12505   4.120   2.829  11.499 -1.9586 -0.5417 -0.0556
  119OSM   H14B12506   4.243   2.698  11.512 -0.1352 -0.5825 -0.4131
  119OSM   H14C12507   4.089   2.685  11.592 -1.1400  2.3312  0.0351
  119OSM    C1312508   4.079   2.511  11.400 -0.2972  0.2061  0.7962
  119OSM   H13A12509   4.183   2.483  11.392  0.6246  3.5537 -0.8226
  119OSM   H13B12510   4.034   2.458  11.317 -1.7476  0.4845  1.3680
  119OSM   H13C12511   4.038   2.474  11.492  0.4180  0.0086  1.0369
  119OSM    C1212512   4.167   2.703  11.259 -0.4960  0.2904 -1.0188
  119OSM   H12A12513   4.270   2.675  11.276 -0.3474  0.5468 -1.4932
  119OSM   H12B12514   4.170   2.810  11.260 -0.1196  0.2808 -0.3054
  119OSM    C1112515   4.127   2.656  11.129 -0.2671  0.2717 -0.9145
  119OSM   H11A12516   4.185   2.707  11.050  0.5034 -1.2508 -1.3652
  119OSM   H11B12517   4.020   2.684  11.118  0.3378  1.9090 -3.3125
  119OSM      P12518   4.267   2.438  11.078 -0.0402  0.1477 -0.3105
  119OSM    O1312519   4.379   2.490  11.167  0.1061 -0.4647  0.5644
  119OSM    O1412520   4.243   2.292  11.081 -0.2504  0.7175  0.3686
  119OSM    O1112521   4.305   2.483  10.930  0.3717 -0.2418 -0.0303
  119OSM    O1212522   4.132   2.513  11.110  0.0112 -0.5183 -0.0105
  119OSM    C1S12523   4.240   2.410  10.822 -0.0660  0.4409  0.1611
  119OSM    H1S12524   4.150   2.353  10.852  1.3804 -2.1589 -0.1162
  119OSM    H1T12525   4.301   2.323  10.791 -1.3032 -0.2154 -0.5053
  119OSM     NF12526   4.142   2.420  10.597  0.0364 -0.0335 -0.4574
  119OSM    HNF12527   4.198   2.403  10.516 -0.7911  0.2636 -1.1029
  119OSM    C2S12528   4.193   2.503  10.711 -0.3058 -0.2460  0.2246
  119OSM    H2S12529   4.109   2.569  10.744  0.2112 -0.6110  2.4350
  119OSM    C3S12530   4.307   2.611  10.678 -0.2247 -1.0270  0.0887
  119OSM    H3S12531   4.407   2.569  10.656  0.4316  0.1180  0.8319
  119OSM     O312532   4.331   2.693  10.796 -0.5917 -0.1920  0.7220
  119OSM    HO312533   4.313   2.621  10.857 -1.5291 -2.3133 -1.8514
  119OSM    C4S12534   4.250   2.706  10.579  0.1274  0.1593 -0.5922
  119OSM    H4S12535   4.155   2.752  10.612  0.4570 -1.2069  2.5928
  119OSM    C5S12536   4.297   2.725  10.455  0.4410  0.0270 -0.2496
  119OSM    H5S12537   4.385   2.661  10.439  0.8989  0.6110 -0.1078
  119OSM    C6S12538   4.246   2.818  10.347 -0.2292  0.6086 -0.2875
  119OSM    H6S12539   4.237   2.757  10.254 -0.4660  1.5260 -0.8751
  119OSM    H6T12540   4.329   2.888  10.328  0.8219 -0.4341  0.3484
  119OSM    C7S12541   4.114   2.897  10.360 -0.3358 -0.2692 -0.4228
  119OSM    H7S12542   4.115   2.960  10.452  2.7652 -1.3207  0.3948
  119OSM    H7T12543   4.025   2.831  10.371 -2.7813  2.4306 -2.5692
  119OSM    C8S12544   4.066   2.976  10.240 -0.0202 -0.0711 -0.2301
  119OSM    H8S12545   4.043   2.909  10.155  0.1282 -0.1800 -0.1863
  119OSM    H8T12546   4.136   3.052  10.200 -1.2353  0.5136 -1.3137
  119OSM    C9S12547   3.934   3.037  10.263  0.8483 -1.2962  0.3630
  119OSM    H9S12548   3.934   3.108  10.349  0.5273 -0.2023 -0.5024
  119OSM    H9T12549   3.854   2.961  10.279  0.1304 -0.4912  0.7071
  119OSM   C10S12550   3.882   3.136  10.149  0.0270  0.0744  0.4485
  119OSM   H10S12551   3.967   3.202  10.120  0.3614 -0.0813  1.0507
  119OSM   H10T12552   3.792   3.192  10.182  0.9621  0.8373  1.7857
  119OSM   C11S12553   3.843   3.057  10.016  0.3351 -1.6135 -0.3875
  119OSM   H11S12554   3.757   2.995  10.050  0.4277 -0.3760  2.4489
  119OSM   H11T12555   3.926   2.992   9.980  0.8303 -1.8285  1.0586
  119OSM   C12S12556   3.807   3.148   9.899 -0.8660  0.0943  0.1270
  119OSM   H12S12557   3.899   3.203   9.868 -0.4310 -0.7552 -0.1168
  119OSM   H12T12558   3.728   3.221   9.927 -0.8313  0.1729  0.0227
  119OSM   C13S12559   3.744   3.086   9.775  0.1457  0.0582 -0.1266
  119OSM   H13S12560   3.655   3.027   9.807 -0.2050 -0.2225 -1.5476
  119OSM   H13T12561   3.813   3.007   9.737  0.9026  1.5635 -2.0917
  119OSM   C14S12562   3.685   3.180   9.669 -0.5526 -0.4297  0.1745
  119OSM   H14S12563   3.771   3.218   9.611 -0.4488  2.4956  2.0497
  119OSM   H14T12564   3.643   3.271   9.718 -0.0009  0.6451 -1.3069
  119OSM   C15S12565   3.577   3.112   9.586  0.9073 -0.5535 -0.5308
  119OSM   H15S12566   3.491   3.081   9.649  0.0121  1.7803 -0.5205
  119OSM   H15T12567   3.621   3.016   9.550  2.9748 -0.2002  0.8452
  119OSM   C16S12568   3.545   3.185   9.447  0.4346 -0.0633 -0.2652
  119OSM   H16S12569   3.627   3.165   9.375  0.6583 -0.5397  0.1151
  119OSM   H16T12570   3.541   3.293   9.472 -1.6059  0.0047 -0.7065
  119OSM   C17S12571   3.417   3.154   9.377 -0.1868  0.2882 -0.0489
  119OSM   H17S12572   3.336   3.161   9.453  1.3787 -1.5741  1.9174
  119OSM   H17T12573   3.425   3.048   9.345  3.5617  0.4660 -0.1543
  119OSM   C18S12574   3.385   3.230   9.252 -0.1679  0.1388  0.5155
  119OSM   H18S12575   3.473   3.244   9.187 -1.4608  0.2731 -1.2741
  119OSM   H18T12576   3.340   3.328   9.278 -0.6554 -0.3843  1.7363
  119OSM   H18U12577   3.320   3.172   9.183 -0.0937  0.7259 -0.0503
  119OSM    C1F12578   4.024   2.363  10.590 -0.2476  0.1190 -0.4851
  119OSM     OF12579   3.945   2.401  10.672  0.1829  0.6531  0.0651
  119OSM    C2F12580   4.007   2.249  10.490  0.6772 -1.0798 -1.0059
  119OSM    H2F12581   3.987   2.152  10.541  1.5170 -0.8529 -0.2419
  119OSM    H2G12582   4.086   2.235  10.413 -0.8779 -1.0850 -2.6627
  119OSM    C3F12583   3.877   2.276  10.403  0.6885  0.1449  0.3270
  119OSM    H3F12584   3.795   2.268  10.478 -0.4435  0.8470 -0.7845
  119OSM    H3G12585   3.859   2.200  10.323 -3.1141  1.4207 -0.2812
  119OSM    C4F12586   3.887   2.417  10.331  1.1581  0.3606 -0.6871
  119OSM    H4F12587   3.898   2.494  10.410 -1.5287 -1.9675  2.2149
  119OSM    H4G12588   3.790   2.434  10.279  0.5646  0.3893  0.3971
  119OSM    C5F12589   3.990   2.433  10.217 -0.2218  0.2810  0.1960
  119OSM    H5F12590   3.990   2.333  10.169 -2.6296  0.3377 -0.0015
  119OSM    H5G12591   4.089   2.450  10.266  0.5489  1.6257 -1.7025
  119OSM    C6F12592   3.956   2.546  10.131  0.0686 -0.2969  0.2191
  119OSM    H6F12593   3.984   2.629  10.199  0.9715  2.6070 -3.3896
  119OSM    H6G12594   3.847   2.543  10.111 -0.2785  1.7451  1.5242
  119OSM    C7F12595   4.042   2.549  10.002  0.4911 -0.5870 -0.0269
  119OSM    H7F12596   4.000   2.463   9.945 -1.5694 -0.6779  1.4884
  119OSM    H7G12597   4.145   2.524  10.034  1.1593 -1.5727 -2.7363
  119OSM    C8F12598   4.035   2.679   9.918 -0.2282  0.3987  0.8637
  119OSM    H8F12599   4.099   2.660   9.829  1.0641 -0.0789  1.8635
  119OSM    H8G12600   4.092   2.762   9.964  2.5917 -0.0714 -1.4531
  119OSM    C9F12601   3.889   2.727   9.887 -0.0017  0.0893 -0.1550
  119OSM    H9F12602   3.841   2.779   9.971 -0.2964  1.5421 -1.1912
  119OSM   C10F12603   3.826   2.728   9.769  0.9213  0.1594  0.9549
  119OSM   H10F12604   3.727   2.771   9.750  0.8076 -1.5783 -3.6270
  119OSM   C11F12605   3.881   2.663   9.642 -0.4495 -0.6207  0.1532
  119OSM   H11F12606   3.796   2.624   9.582 -1.3647 -0.8525  1.5357
  119OSM   H11G12607   3.946   2.579   9.675  3.3693  2.1494  0.2749
  119OSM   C12F12608   3.981   2.755   9.562 -0.9057 -0.6085  1.1077
  119OSM   H12F12609   4.050   2.692   9.503 -0.2586  1.1473 -0.0916
  119OSM   H12G12610   4.048   2.816   9.626 -2.4915  1.7592  0.6524
  119OSM   C13F12611   3.908   2.854   9.470  0.1381 -0.4562 -0.5784
  119OSM   H13F12612   3.858   2.932   9.531  2.1897  0.9518 -0.6085
  119OSM   H13G12613   3.829   2.796   9.418 -0.1906 -0.9483  0.4400
  119OSM   C14F12614   4.011   2.908   9.367  0.2778  0.1221 -0.0933
  119OSM   H14F12615   4.045   2.828   9.299 -0.5360 -0.9682  0.7483
  119OSM   H14G12616   4.095   2.934   9.436 -0.2451 -0.7154  0.8823
  119OSM   C15F12617   3.958   3.024   9.279 -0.1892  0.2653 -0.2069
  119OSM   H15F12618   4.045   3.075   9.233  0.5512 -2.0760 -1.5636
  119OSM   H15G12619   3.915   3.100   9.348  0.1297  1.4151 -1.2386
  119OSM   C16F12620   3.853   2.989   9.173  0.1876  0.2591 -0.1325
  119OSM   H16F12621   3.751   2.981   9.218  0.2327  1.5884  0.2354
  119OSM   H16G12622   3.888   2.896   9.124 -0.6658  0.3706 -0.9767
  119OSM   C17F12623   3.842   3.097   9.072  0.7891 -0.4802 -0.7433
  119OSM   H17F12624   3.946   3.118   9.041  0.6850  0.8093 -0.2830
  119OSM   H17G12625   3.809   3.190   9.122 -0.1755 -0.3355 -1.6059
  119OSM   C18F12626   3.764   3.081   8.940 -0.1245 -0.1353  0.5329
  119OSM   H18F12627   3.756   3.178   8.887 -1.4402 -0.4431  0.1409
  119OSM   H18G12628   3.661   3.054   8.973 -0.2155 -1.1530 -0.5061
  119OSM   H18H12629   3.797   2.996   8.877 -0.7406  1.5073 -2.1182
  120OSM      N12630   3.005   5.329  10.864  0.3335  0.0116  0.0132
  120OSM    C1512631   2.994   5.474  10.834  0.0760 -0.3904  0.2883
  120OSM   H15A12632   2.919   5.520  10.896 -0.7817 -0.3299 -0.7619
  120OSM   H15B12633   2.964   5.491  10.731  2.6306 -1.4319 -0.7217
  120OSM   H15C12634   3.086   5.528  10.851 -0.1958 -0.1346  0.9675
  120OSM    C1412635   3.097   5.327  10.978 -0.2804 -0.4058 -0.1580
  120OSM   H14A12636   3.196   5.344  10.937 -0.4200 -0.3499 -0.4740
  120OSM   H14B12637   3.096   5.230  11.024  0.1004  0.0658  0.8732
  120OSM   H14C12638   3.075   5.396  11.058  2.9660  0.7096 -0.0576
  120OSM    C1312639   2.880   5.273  10.904 -0.2205  0.2529  0.3213
  120OSM   H13A12640   2.823   5.335  10.972  2.4906 -0.1474  3.1711
  120OSM   H13B12641   2.885   5.174  10.946 -1.6981 -0.4245 -0.9866
  120OSM   H13C12642   2.818   5.278  10.815 -1.2109  1.3150  1.0390
  120OSM    C1212643   3.057   5.267  10.740 -0.0922 -0.1323  0.5325
  120OSM   H12A12644   2.977   5.257  10.669 -0.1348 -1.7452  0.7715
  120OSM   H12B12645   3.098   5.168  10.751  2.3462  0.4249 -2.2772
  120OSM    C1112646   3.175   5.337  10.666 -0.1801  0.2544 -0.1362
  120OSM   H11A12647   3.159   5.441  10.633 -0.8346 -0.9347 -3.9725
  120OSM   H11B12648   3.185   5.280  10.572 -1.9637  0.1477 -0.2831
  120OSM      P12649   3.389   5.212  10.768  0.4105  0.0319  0.3764
  120OSM    O1312650   3.500   5.246  10.863 -0.1659 -0.0693  0.5725
  120OSM    O1412651   3.307   5.100  10.814  0.2950 -0.2313  0.1196
  120OSM    O1112652   3.452   5.166  10.630  0.3002  0.2955  0.5738
  120OSM    O1212653   3.302   5.347  10.738  0.5158  0.3661  0.0713
  120OSM    C1S12654   3.508   5.255  10.534  0.3320 -0.3103 -0.2800
  120OSM    H1S12655   3.593   5.308  10.581 -1.6019  3.5875 -0.7526
  120OSM    H1T12656   3.435   5.336  10.512  1.5211  0.8999  0.1526
  120OSM     NF12657   3.634   5.267  10.321 -0.0226  0.4696  0.2969
  120OSM    HNF12658   3.595   5.327  10.251  0.8749 -0.2031 -0.8235
  120OSM    C2S12659   3.550   5.184  10.404 -0.0644  0.6585 -0.4516
  120OSM    H2S12660   3.599   5.091  10.440  0.0934  0.5669 -0.8882
  120OSM    C3S12661   3.415   5.143  10.329 -0.4962  0.0569 -0.1142
  120OSM    H3S12662   3.350   5.233  10.323 -2.1364 -1.0446  0.6157
  120OSM     O312663   3.339   5.037  10.383  0.2191 -0.4678  0.4137
  120OSM    HO312664   3.376   5.013  10.468 -0.8470 -0.0449  1.0194
  120OSM    C4S12665   3.453   5.085  10.193 -0.9258  0.3060 -0.0644
  120OSM    H4S12666   3.551   5.037  10.194 -1.6195 -1.1562  0.8149
  120OSM    C5S12667   3.384   5.087  10.083  0.2947  0.8304  0.3823
  120OSM    H5S12668   3.280   5.124  10.084 -1.2333 -3.0470  0.8130
  120OSM    C6S12669   3.421   5.038   9.949 -0.0087 -0.3631 -0.2653
  120OSM    H6S12670   3.353   4.966   9.897 -0.8237 -0.1186  0.4536
  120OSM    H6T12671   3.527   5.005   9.948  0.6905  1.3588  3.1659
  120OSM    C7S12672   3.401   5.164   9.864  0.2001  0.4129 -0.2013
  120OSM    H7S12673   3.450   5.256   9.903 -2.1618  0.8734  1.9710
  120OSM    H7T12674   3.297   5.202   9.862  1.0887  2.9982 -0.4043
  120OSM    C8S12675   3.428   5.147   9.717 -0.2801  0.0968  0.6547
  120OSM    H8S12676   3.342   5.087   9.683 -0.7982  0.6011  1.0578
  120OSM    H8T12677   3.526   5.099   9.696 -0.3331 -0.7952  2.3468
  120OSM    C9S12678   3.416   5.274   9.636 -0.7655  0.1424  0.9894
  120OSM    H9S12679   3.505   5.329   9.674  1.2708 -2.3982  0.1288
  120OSM    H9T12680   3.322   5.333   9.645  0.1973  2.1948 -1.2902
  120OSM   C10S12681   3.442   5.242   9.486 -0.9883 -0.2007 -0.9161
  120OSM   H10S12682   3.367   5.161   9.468  0.7782 -3.1440  3.3710
  120OSM   H10T12683   3.547   5.208   9.480 -1.1953 -0.6493 -2.5210
  120OSM   C11S12684   3.430   5.361   9.393  0.0955 -0.2816  0.7005
  120OSM   H11S12685   3.477   5.455   9.430 -0.6741 -0.1135  1.2867
  120OSM   H11T12686   3.321   5.382   9.379  0.3701  0.2050 -0.8330
  120OSM   C12S12687   3.489   5.338   9.256 -0.2671  1.3615 -0.5399
  120OSM   H12S12688   3.493   5.229   9.237  1.2671  1.0600  1.1777
  120OSM   H12T12689   3.596   5.368   9.263 -0.0250  0.5290 -0.5115
  120OSM   C13S12690   3.407   5.408   9.155 -0.8858  0.2947 -0.0932
  120OSM   H13S12691   3.392   5.512   9.191 -2.8756 -0.6248  2.0288
  120OSM   H13T12692   3.301   5.373   9.153 -1.5080  1.9952  0.8789
  120OSM   C14S12693   3.455   5.395   9.011  0.5841 -0.3695  0.5100
  120OSM   H14S12694   3.378   5.431   8.940 -0.4502 -6.2356 -1.9774
  120OSM   H14T12695   3.454   5.287   8.986 -0.9184 -0.1989 -0.2650
  120OSM   C15S12696   3.593   5.451   8.989  0.1090  0.0414 -0.7654
  120OSM   H15S12697   3.654   5.366   9.026  0.9174  1.0553  0.3262
  120OSM   H15T12698   3.609   5.528   9.068 -0.6780 -1.4652  0.9350
  120OSM   C16S12699   3.629   5.469   8.841  0.0162 -0.1380 -0.6254
  120OSM   H16S12700   3.597   5.570   8.809  1.3445  0.1469 -1.1142
  120OSM   H16T12701   3.583   5.390   8.778 -0.8839 -0.3575  0.2751
  120OSM   C17S12702   3.782   5.449   8.805 -0.1527  0.3323  0.4120
  120OSM   H17S12703   3.819   5.350   8.839 -1.5982 -0.2388  0.3646
  120OSM   H17T12704   3.834   5.525   8.867 -3.5200  3.4067 -0.2065
  120OSM   C18S12705   3.811   5.478   8.659 -0.6057  0.3232 -0.4926
  120OSM   H18S12706   3.795   5.587   8.642 -1.8598  0.2326  0.0089
  120OSM   H18T12707   3.751   5.420   8.587  1.6399 -2.1662 -0.5094
  120OSM   H18U12708   3.916   5.455   8.630  0.3053  0.5841  2.3028
  120OSM    C1F12709   3.761   5.288  10.343  0.6305 -0.0053  0.0649
  120OSM     OF12710   3.818   5.233  10.439 -0.0997 -0.5186  0.8538
  120OSM    C2F12711   3.822   5.384  10.239 -0.5320  0.1822  0.1626
  120OSM    H2F12712   3.882   5.454  10.300  2.3571 -1.8100 -0.1969
  120OSM    H2G12713   3.749   5.439  10.176  2.2849  1.3588 -2.3090
  120OSM    C3F12714   3.921   5.308  10.144 -0.4829  0.3958 -1.0634
  120OSM    H3F12715   3.994   5.248  10.202  0.0085 -0.4687 -2.5332
  120OSM    H3G12716   3.986   5.370  10.077 -0.4010  0.2470 -1.1222
  120OSM    C4F12717   3.858   5.198  10.058 -0.6313 -0.0429  0.4825
  120OSM    H4F12718   3.811   5.123  10.126 -2.0552  0.7781  0.4311
  120OSM    H4G12719   3.945   5.158  10.001 -0.0422 -0.6196  1.7446
  120OSM    C5F12720   3.754   5.238   9.951 -0.1515 -0.7924 -0.4726
  120OSM    H5F12721   3.686   5.295  10.017  0.2991 -1.7824  0.8920
  120OSM    H5G12722   3.688   5.160   9.905 -1.8148  0.7128 -0.7684
  120OSM    C6F12723   3.811   5.332   9.843  0.5765  0.4928 -0.1503
  120OSM    H6F12724   3.900   5.386   9.881  0.9982  0.4589 -1.0625
  120OSM    H6G12725   3.736   5.414   9.835  3.1076  2.8464 -1.5197
  120OSM    C7F12726   3.849   5.259   9.710 -0.1627 -0.1292  0.5225
  120OSM    H7F12727   3.761   5.245   9.644  0.3006 -2.8995  0.4064
  120OSM    H7G12728   3.872   5.159   9.751  0.2651 -0.6398 -0.9004
  120OSM    C8F12729   3.953   5.339   9.629  0.0930 -0.2040 -0.1472
  120OSM    H8F12730   3.980   5.280   9.539  1.7551  0.9211 -0.4188
  120OSM    H8G12731   4.043   5.354   9.692 -1.1827 -0.3412  1.7816
  120OSM    C9F12732   3.907   5.475   9.587 -0.3842 -0.4599  0.3231
  120OSM    H9F12733   3.910   5.552   9.665  0.5188 -0.1683  0.0097
  120OSM   C10F12734   3.867   5.511   9.463 -0.1719  0.7185  0.0728
  120OSM   H10F12735   3.831   5.615   9.467  1.7089  1.4229 -0.0384
  120OSM   C11F12736   3.868   5.440   9.333  0.0213 -0.2936  0.0791
  120OSM   H11F12737   3.778   5.474   9.277 -1.2530 -2.3891  0.7357
  120OSM   H11G12738   3.861   5.331   9.351 -0.3169 -0.1209  1.0619
  120OSM   C12F12739   3.996   5.455   9.249 -0.6345  0.0500  0.2624
  120OSM   H12F12740   4.003   5.381   9.167 -0.0273  0.0172  0.3375
  120OSM   H12G12741   4.084   5.438   9.314 -0.0769 -0.5339 -0.6288
  120OSM   C13F12742   4.033   5.587   9.186 -0.4387  0.8094  0.1974
  120OSM   H13F12743   4.045   5.661   9.268 -0.7973 -0.8679  1.8265
  120OSM   H13G12744   3.949   5.612   9.117 -0.5022 -1.1118 -0.4642
  120OSM   C14F12745   4.160   5.579   9.105 -0.3512 -0.0415  0.5244
  120OSM   H14F12746   4.154   5.493   9.035 -0.4408 -1.8661  2.6538
  120OSM   H14G12747   4.248   5.554   9.169  0.0292  0.4051  0.1887
  120OSM   C15F12748   4.190   5.707   9.030 -0.1218  0.4689 -0.0802
  120OSM   H15F12749   4.219   5.791   9.097 -1.4235  0.3348  0.6847
  120OSM   H15G12750   4.096   5.734   8.977 -0.9438  2.0616  2.0703
  120OSM   C16F12751   4.299   5.689   8.924 -0.8088  0.5458  0.2871
  120OSM   H16F12752   4.390   5.659   8.981  0.1276  0.2704 -1.2980
  120OSM   H16G12753   4.326   5.782   8.869 -0.6091 -0.3799 -1.2469
  120OSM   C17F12754   4.287   5.564   8.836 -0.3169 -0.1390  0.0927
  120OSM   H17F12755   4.191   5.571   8.780  1.2300  3.3341 -2.4699
  120OSM   H17G12756   4.289   5.466   8.889 -0.7974  0.1680  0.6895
  120OSM   C18F12757   4.394   5.570   8.722 -0.6717 -0.1641 -0.1494
  120OSM   H18F12758   4.376   5.661   8.660  1.8547  0.9550  0.6064
  120OSM   H18G12759   4.393   5.477   8.661 -0.2244  0.2345 -0.7814
  120OSM   H18H12760   4.493   5.577   8.773 -0.2651  0.1447 -0.9467
  121OSM      N12761   0.877   2.880  11.434  0.9373  0.1264 -0.2757
  121OSM    C1512762   0.774   2.890  11.543  0.1775  0.4127 -0.0210
  121OSM   H15A12763   0.732   2.987  11.568 -0.1479  0.4862 -0.8408
  121OSM   H15B12764   0.808   2.843  11.634  1.0783 -1.9688 -1.4964
  121OSM   H15C12765   0.682   2.845  11.510  0.1327 -0.2471  0.9531
  121OSM    C1412766   1.003   2.939  11.480  0.0397  0.8500 -0.8324
  121OSM   H14A12767   1.048   2.888  11.564  0.7847  0.8400 -1.2325
  121OSM   H14B12768   0.975   3.030  11.532  2.9855  0.3774  1.8743
  121OSM   H14C12769   1.071   2.961  11.399  1.7081 -0.1899  0.2302
  121OSM    C1312770   0.917   2.734  11.433  0.0761 -0.5550 -0.7009
  121OSM   H13A12771   0.838   2.663  11.414 -0.8284  0.4247 -0.7533
  121OSM   H13B12772   0.966   2.708  11.525 -2.9727 -0.8683  0.9799
  121OSM   H13C12773   0.994   2.713  11.360  0.9119 -0.5023  0.1541
  121OSM    C1212774   0.837   2.937  11.297  0.5415 -0.5640 -0.3093
  121OSM   H12A12775   0.776   3.023  11.318  0.7917 -0.9440  2.1790
  121OSM   H12B12776   0.769   2.863  11.255 -0.5058 -0.3357  0.9321
  121OSM    C1112777   0.945   2.969  11.197 -0.5090 -0.3066  0.6432
  121OSM   H11A12778   1.013   3.049  11.233 -1.3449  1.0878 -0.7264
  121OSM   H11B12779   0.899   3.031  11.117 -0.1919 -0.4195  0.3720
  121OSM      P12780   0.960   2.774  11.039 -0.8625  0.0219 -0.3526
  121OSM    O1312781   1.039   2.652  11.009  0.0492  0.1396  0.1495
  121OSM    O1412782   0.817   2.755  11.054 -0.0219  0.0903 -0.6435
  121OSM    O1112783   0.977   2.863  10.910 -0.2479  0.2757  0.2609
  121OSM    O1212784   1.023   2.854  11.162  0.8673  0.1213 -0.2939
  121OSM    C1S12785   1.089   2.942  10.886 -0.9959  0.7613 -0.0226
  121OSM    H1S12786   1.185   2.891  10.910  0.3246  3.2497  0.2796
  121OSM    H1T12787   1.087   3.033  10.950 -3.1002  2.3773 -2.1931
  121OSM     NF12788   1.219   3.041  10.707 -0.2215  0.1361  0.2190
  121OSM    HNF12789   1.221   3.139  10.689  1.2459  0.0832 -0.0522
  121OSM    C2S12790   1.097   2.972  10.736 -0.2052  0.1214  0.2619
  121OSM    H2S12791   1.102   2.874  10.684 -1.1899  1.6276 -2.8506
  121OSM    C3S12792   0.960   3.049  10.690 -0.4824  0.0825  0.1427
  121OSM    H3S12793   0.956   3.147  10.742 -0.9751  0.6526 -0.9274
  121OSM     O312794   0.838   2.984  10.720  0.1693  0.0869 -0.0265
  121OSM    HO312795   0.867   2.925  10.790 -0.4345  0.8758  0.9156
  121OSM    C4S12796   0.971   3.075  10.538  0.1336  0.2669  0.3965
  121OSM    H4S12797   1.000   2.995  10.468  2.5443 -0.1431  1.7539
  121OSM    C5S12798   0.983   3.205  10.487 -0.0046  0.0504 -0.1269
  121OSM    H5S12799   0.977   3.291  10.555  1.6480  0.8378 -0.9313
  121OSM    C6S12800   1.006   3.248  10.341 -0.3779  0.1092 -0.6226
  121OSM    H6S12801   1.113   3.280  10.333 -0.9007  1.8394 -1.2364
  121OSM    H6T12802   0.936   3.330  10.313 -1.7163 -0.7873  0.0376
  121OSM    C7S12803   0.978   3.131  10.237  0.1490 -0.4332 -0.6302
  121OSM    H7S12804   0.868   3.119  10.228  0.4673 -3.0237 -1.7245
  121OSM    H7T12805   1.031   3.039  10.270  0.1135  0.2784  1.6082
  121OSM    C8S12806   1.020   3.174  10.097  0.1480 -0.2172  0.3951
  121OSM    H8S12807   1.127   3.203  10.093  0.1846 -0.4537 -2.2434
  121OSM    H8T12808   0.974   3.272  10.072 -0.7658 -0.0056  2.6922
  121OSM    C9S12809   0.993   3.072   9.991 -0.0730  0.0765 -0.0204
  121OSM    H9S12810   0.896   3.020  10.008  0.3060 -0.4853  0.4320
  121OSM    H9T12811   1.073   2.995  10.002  1.8027  1.6869 -1.6289
  121OSM   C10S12812   0.982   3.129   9.848 -0.5564  0.5660 -0.3098
  121OSM   H10S12813   1.070   3.192   9.821  0.4496 -0.3978  0.6096
  121OSM   H10T12814   0.899   3.203   9.841 -0.7988  0.1668 -1.8702
  121OSM   C11S12815   0.974   3.025   9.743 -0.5427  0.2144  0.3546
  121OSM   H11S12816   0.873   2.979   9.749 -1.1633  1.3316 -0.9598
  121OSM   H11T12817   1.053   2.947   9.755 -1.2700 -0.4072  1.2537
  121OSM   C12S12818   0.998   3.084   9.602  0.6076  0.7518 -0.9098
  121OSM   H12S12819   1.091   3.144   9.597  1.6191 -0.8423 -2.4127
  121OSM   H12T12820   0.911   3.154   9.599  0.6488  0.8209 -0.4956
  121OSM   C13S12821   0.991   2.984   9.485 -0.4322 -0.0220  0.2542
  121OSM   H13S12822   0.882   2.983   9.466 -0.8801  1.6620  2.4619
  121OSM   H13T12823   1.025   2.886   9.525 -1.4590 -0.1671  0.7966
  121OSM   C14S12824   1.057   3.047   9.359 -0.2298 -0.4292  0.0794
  121OSM   H14S12825   1.165   3.065   9.377 -0.6196  2.4185  0.1218
  121OSM   H14T12826   1.005   3.145   9.351 -2.1321 -1.3798  0.2429
  121OSM   C15S12827   1.033   2.960   9.240  0.0473 -0.1963 -0.6437
  121OSM   H15S12828   0.925   2.953   9.215  0.0635 -2.8931 -0.2314
  121OSM   H15T12829   1.070   2.863   9.280  0.9502  1.3904  2.8295
  121OSM   C16S12830   1.116   3.004   9.122 -0.1518  0.1423  0.2347
  121OSM   H16S12831   1.225   2.985   9.137  0.2310  2.1508  0.3413
  121OSM   H16T12832   1.100   3.114   9.130 -1.2237 -0.0062  0.2567
  121OSM   C17S12833   1.069   2.950   8.987 -0.0315  0.0293 -0.3626
  121OSM   H17S12834   0.958   2.956   8.984 -0.2357 -0.0806  2.9334
  121OSM   H17T12835   1.106   2.846   8.977  1.2129  0.4562 -0.4500
  121OSM   C18S12836   1.131   3.036   8.871 -0.0805 -0.2688 -0.5427
  121OSM   H18S12837   1.096   3.142   8.867 -1.0396 -0.5960 -3.6271
  121OSM   H18T12838   1.096   2.982   8.780  1.6757 -1.2184 -0.6811
  121OSM   H18U12839   1.242   3.040   8.870 -0.0719  1.0146 -2.8989
  121OSM    C1F12840   1.347   2.991  10.698  0.0313  0.8753  0.3875
  121OSM     OF12841   1.369   2.874  10.726 -0.2288  0.5623 -0.5300
  121OSM    C2F12842   1.448   3.088  10.642  0.3367 -0.3102 -0.3413
  121OSM    H2F12843   1.458   3.177  10.707  1.5613  0.3177 -1.3592
  121OSM    H2G12844   1.414   3.113  10.540 -1.4354  0.1354  0.3269
  121OSM    C3F12845   1.597   3.036  10.645 -0.0580 -0.0457 -0.2474
  121OSM    H3F12846   1.632   3.027  10.750 -0.0634  0.3738 -0.2092
  121OSM    H3G12847   1.652   3.127  10.612 -0.1252  0.7324  1.6702
  121OSM    C4F12848   1.624   2.920  10.553  0.1476 -0.2199 -0.2810
  121OSM    H4F12849   1.578   2.942  10.454  0.5478  1.3091 -0.1450
  121OSM    H4G12850   1.584   2.826  10.598  1.3580 -0.1365  1.0205
  121OSM    C5F12851   1.776   2.888  10.520 -0.2844  0.5340  0.1998
  121OSM    H5F12852   1.838   2.864  10.609 -1.1824 -3.4874 -0.0801
  121OSM    H5G12853   1.813   2.983  10.476 -0.1340  0.0893 -0.6630
  121OSM    C6F12854   1.792   2.772  10.416 -0.2835  0.1272  1.0373
  121OSM    H6F12855   1.740   2.807  10.324  1.0412  0.9259  0.5678
  121OSM    H6G12856   1.750   2.682  10.465  0.9478  0.2273  2.3085
  121OSM    C7F12857   1.930   2.723  10.388 -0.4563  0.8212  1.1367
  121OSM    H7F12858   1.982   2.681  10.476 -0.1315 -0.2131  0.4745
  121OSM    H7G12859   1.995   2.808  10.356 -1.1390  2.0271  2.8132
  121OSM    C8F12860   1.936   2.605  10.283  0.1147 -0.3614 -0.9441
  121OSM    H8F12861   1.873   2.522  10.321 -0.9081 -0.2390 -2.2777
  121OSM    H8G12862   2.042   2.571  10.279  0.0642 -0.8745  1.1155
  121OSM    C9F12863   1.889   2.657  10.143  0.3406  0.2898  0.2222
  121OSM    H9F12864   1.797   2.716  10.136  0.8076  0.9267 -0.8678
  121OSM   C10F12865   1.946   2.632  10.028 -0.2770  0.3037  1.0977
  121OSM   H10F12866   1.901   2.677   9.938  0.5867 -2.9485 -1.1470
  121OSM   C11F12867   2.065   2.539  10.003  0.8488 -0.1293  0.3826
  121OSM   H11F12868   2.137   2.565  10.084 -1.9707 -3.2594  4.2937
  121OSM   H11G12869   2.112   2.547   9.903 -1.2281 -1.9596 -0.8311
  121OSM   C12F12870   2.013   2.396  10.027  0.0010  0.0836  0.4876
  121OSM   H12F12871   1.975   2.364  10.126  0.5096  1.5838  1.1940
  121OSM   H12G12872   2.106   2.336  10.019 -0.8418 -1.0995 -0.8402
  121OSM   C13F12873   1.919   2.336   9.914 -0.8606  0.4922  0.0287
  121OSM   H13F12874   1.825   2.395   9.915 -2.4936 -1.9706  1.2792
  121OSM   H13G12875   1.886   2.234   9.941  1.0419  0.2986  1.8050
  121OSM   C14F12876   1.989   2.344   9.779 -0.4918  0.0113 -0.1874
  121OSM   H14F12877   2.085   2.289   9.780 -0.1036  0.6802 -0.2776
  121OSM   H14G12878   1.997   2.451   9.752 -0.3404 -0.1583 -0.8459
  121OSM   C15F12879   1.904   2.287   9.664 -0.5735  0.4058 -0.3259
  121OSM   H15F12880   1.841   2.371   9.628 -2.1347 -0.4854  0.2399
  121OSM   H15G12881   1.831   2.211   9.700  0.0858  0.3983  1.0631
  121OSM   C16F12882   1.983   2.240   9.546  0.2787  0.1890 -0.5841
  121OSM   H16F12883   1.942   2.162   9.479 -0.6545  1.9434 -2.1404
  121OSM   H16G12884   2.074   2.197   9.594  0.4030  0.6740 -0.3806
  121OSM   C17F12885   2.014   2.362   9.460  0.3006 -0.2581 -0.1309
  121OSM   H17F12886   2.027   2.445   9.533 -1.2050 -0.1462  0.0509
  121OSM   H17G12887   1.931   2.400   9.397  1.9914  0.1619 -2.2411
  121OSM   C18F12888   2.133   2.341   9.363  0.3250 -0.5268 -0.4470
  121OSM   H18F12889   2.121   2.250   9.301 -1.2931 -0.5583 -0.1161
  121OSM   H18G12890   2.230   2.343   9.418  0.9319  0.8457 -1.4876
  121OSM   H18H12891   2.130   2.432   9.298 -1.2475  0.6428  1.1706
  122OSM      N12892   2.991   0.429  10.731 -0.0362 -0.6931  0.1755
  122OSM    C1512893   2.869   0.412  10.818 -0.3618  0.2937 -0.1636
  122OSM   H15A12894   2.784   0.370  10.767 -1.2737 -1.2406  2.4004
  122OSM   H15B12895   2.833   0.504  10.861 -0.0987 -0.5507  2.0327
  122OSM   H15C12896   2.903   0.354  10.903  0.6938  0.7991 -0.2280
  122OSM    C1412897   2.948   0.518  10.617  0.5137 -0.4176 -0.2067
  122OSM   H14A12898   2.901   0.611  10.647  1.6515  0.0522  0.1516
  122OSM   H14B12899   2.879   0.469  10.550  1.9174 -0.1697 -1.8958
  122OSM   H14C12900   3.023   0.554  10.549  1.2183 -1.2467  0.1219
  122OSM    C1312901   3.101   0.493  10.804 -0.1124  0.1177 -0.3085
  122OSM   H13A12902   3.083   0.598  10.822  1.2310  0.3504 -0.2126
  122OSM   H13B12903   3.185   0.488  10.736  0.6755 -0.5440  0.6870
  122OSM   H13C12904   3.113   0.442  10.898 -1.7083 -0.9106 -0.6290
  122OSM    C1212905   3.039   0.300  10.680 -0.1910 -0.1966  0.1216
  122OSM   H12A12906   3.119   0.327  10.612  0.2165  0.8017  0.9696
  122OSM   H12B12907   2.963   0.251  10.621  0.1155 -0.3991 -0.1075
  122OSM    C1112908   3.082   0.192  10.787  0.7069 -1.2240 -0.2344
  122OSM   H11A12909   3.131   0.252  10.867 -0.8535 -0.5375  0.2614
  122OSM   H11B12910   3.150   0.118  10.740  1.3079 -0.6483 -0.2877
  122OSM      P12911   2.916  -0.009  10.792 -0.6273  0.2900  0.0447
  122OSM    O1312912   3.029  -0.108  10.787  0.1540 -0.7930  0.1052
  122OSM    O1412913   2.802  -0.049  10.882 -0.0853 -0.2223  0.1252
  122OSM    O1112914   2.864   0.010  10.639  0.0238 -0.5565 -0.1119
  122OSM    O1212915   2.967   0.128  10.837 -0.3719 -0.5818 -0.1294
  122OSM    C1S12916   2.755   0.098  10.613  0.7540  0.3653  0.5492
  122OSM    H1S12917   2.783   0.202  10.640 -0.3461  1.0277 -0.7615
  122OSM    H1T12918   2.667   0.074  10.677 -0.4127 -0.3951 -1.2749
  122OSM     NF12919   2.644   0.212  10.427  0.5776 -0.0690 -0.1430
  122OSM    HNF12920   2.548   0.223  10.453  1.3075  3.3254  1.7283
  122OSM    C2S12921   2.712   0.086  10.461  0.6264 -0.0268 -0.9310
  122OSM    H2S12922   2.800   0.080  10.393 -1.7940  1.8837 -4.5144
  122OSM    C3S12923   2.630  -0.043  10.441 -0.5589  0.2493  0.8728
  122OSM    H3S12924   2.540  -0.049  10.506 -1.8929 -0.3344 -0.9486
  122OSM     O312925   2.722  -0.155  10.454  0.2701  0.5804 -0.4660
  122OSM    HO312926   2.801  -0.119  10.495  0.0558 -0.4119  0.9050
  122OSM    C4S12927   2.581  -0.050  10.296  0.4527 -0.2137 -0.3076
  122OSM    H4S12928   2.656  -0.083  10.223 -1.3987 -0.1763 -2.2882
  122OSM    C5S12929   2.452  -0.044  10.260 -0.2023  0.1052 -0.1387
  122OSM    H5S12930   2.370  -0.020  10.329 -1.9054  0.7883 -2.2617
  122OSM    C6S12931   2.387  -0.047  10.123  0.3696 -0.2262 -0.5192
  122OSM    H6S12932   2.343   0.053  10.104 -1.2924 -0.7659  0.3622
  122OSM    H6T12933   2.303  -0.119  10.128  1.2039 -1.1610  0.4385
  122OSM    C7S12934   2.482  -0.069  10.010 -0.1545 -0.3795  0.0416
  122OSM    H7S12935   2.532  -0.163  10.040 -2.1674 -1.7414 -0.6500
  122OSM    H7T12936   2.563   0.006   9.999  0.5843 -1.3633 -1.7686
  122OSM    C8S12937   2.420  -0.079   9.864 -0.4063 -0.0148 -0.2085
  122OSM    H8S12938   2.404   0.024   9.827  0.6974  0.6028  0.9478
  122OSM    H8T12939   2.324  -0.133   9.878 -0.1173 -0.2544  0.9218
  122OSM    C9S12940   2.505  -0.166   9.761 -0.1856 -0.6624  0.1658
  122OSM    H9S12941   2.502  -0.267   9.808 -2.9425 -0.2355  1.1168
  122OSM    H9T12942   2.612  -0.139   9.749 -0.1613 -0.7552  0.1730
  122OSM   C10S12943   2.424  -0.164   9.631  0.3936 -0.2780 -0.5172
  122OSM   H10S12944   2.369  -0.069   9.615 -0.4527 -0.5228  0.8286
  122OSM   H10T12945   2.352  -0.248   9.631  0.3986 -0.3062 -1.7653
  122OSM   C11S12946   2.498  -0.190   9.500 -0.2774  0.8489 -0.1132
  122OSM   H11S12947   2.598  -0.236   9.512 -0.5308  0.4402  0.4958
  122OSM   H11T12948   2.514  -0.086   9.464  0.4639  1.0989  0.9001
  122OSM   C12S12949   2.416  -0.272   9.403 -0.1951  0.0385  0.2553
  122OSM   H12S12950   2.316  -0.224   9.401  0.6963  1.9646 -0.3952
  122OSM   H12T12951   2.404  -0.378   9.434  2.1279 -0.2096  0.4247
  122OSM   C13S12952   2.479  -0.281   9.263  0.1378  0.0919  0.0585
  122OSM   H13S12953   2.585  -0.316   9.270 -0.4263 -1.9687 -0.9483
  122OSM   H13T12954   2.491  -0.173   9.238  1.8915 -0.3742 -1.3211
  122OSM   C14S12955   2.410  -0.368   9.159  0.0079  0.6218 -0.1482
  122OSM   H14S12956   2.301  -0.347   9.154 -0.2195 -0.7572 -3.3374
  122OSM   H14T12957   2.416  -0.477   9.183  2.1224  0.9343  1.0621
  122OSM   C15S12958   2.473  -0.356   9.024  0.3511 -0.2003  0.5564
  122OSM   H15S12959   2.566  -0.417   9.029 -0.3287 -1.2244  0.8777
  122OSM   H15T12960   2.501  -0.249   9.007 -0.6502 -0.1747 -1.1124
  122OSM   C16S12961   2.376  -0.385   8.909  0.7900 -0.5163  0.6202
  122OSM   H16S12962   2.282  -0.329   8.886  0.6714 -0.9865 -0.0694
  122OSM   H16T12963   2.344  -0.485   8.944 -1.4622  1.0440  3.5281
  122OSM   C17S12964   2.461  -0.400   8.777 -0.1803 -0.7109 -0.1982
  122OSM   H17S12965   2.533  -0.482   8.801  0.4455 -1.1079 -3.1382
  122OSM   H17T12966   2.512  -0.304   8.753 -0.4050 -1.1017 -2.3751
  122OSM   C18S12967   2.390  -0.442   8.653 -0.4590  0.6780  0.6068
  122OSM   H18S12968   2.318  -0.363   8.625 -1.0353 -0.4547 -1.2935
  122OSM   H18T12969   2.327  -0.532   8.668 -0.1585  0.5158  0.9070
  122OSM   H18U12970   2.470  -0.465   8.578 -0.5272 -0.9416  0.9814
  122OSM    C1F12971   2.714   0.318  10.398  0.1299  0.4442  0.5694
  122OSM     OF12972   2.833   0.315  10.409 -0.1430 -0.1444  0.2605
  122OSM    C2F12973   2.639   0.434  10.358  0.0513 -0.2370 -0.7228
  122OSM    H2F12974   2.630   0.502  10.445  1.0734 -0.5885 -0.3280
  122OSM    H2G12975   2.540   0.412  10.313 -1.7900 -0.2306  2.9709
  122OSM    C3F12976   2.716   0.515  10.244 -0.2036 -0.3633  0.4056
  122OSM    H3F12977   2.721   0.453  10.152 -0.6130  2.4804 -1.6762
  122OSM    H3G12978   2.814   0.548  10.282 -0.3440 -0.9198  1.2880
  122OSM    C4F12979   2.651   0.649  10.211  0.5898  0.3132 -0.0236
  122OSM    H4F12980   2.625   0.698  10.307 -1.8321 -0.8659 -0.0082
  122OSM    H4G12981   2.556   0.640  10.153  0.8294 -0.6696 -0.2937
  122OSM    C5F12982   2.753   0.732  10.131 -0.2948  0.3265 -0.0393
  122OSM    H5F12983   2.849   0.744  10.186 -1.3964  2.8937  1.5421
  122OSM    H5G12984   2.715   0.837  10.127  3.1023  1.7065  0.4499
  122OSM    C6F12985   2.781   0.676   9.994  0.1261 -0.3348  0.0865
  122OSM    H6F12986   2.684   0.675   9.939 -1.2460  0.4404  2.3862
  122OSM    H6G12987   2.817   0.574  10.017  1.0312 -0.2060 -0.6786
  122OSM    C7F12988   2.871   0.771   9.910 -0.5183  0.1355  0.0367
  122OSM    H7F12989   2.955   0.803   9.976 -1.8208  0.1846  1.7395
  122OSM    H7G12990   2.809   0.862   9.905  1.1366  1.3337  0.4851
  122OSM    C8F12991   2.918   0.724   9.773 -0.1808 -0.4290  0.9086
  122OSM    H8F12992   2.980   0.635   9.797  0.0351 -0.6585 -0.4452
  122OSM    H8G12993   2.987   0.805   9.742  0.2719 -1.8324 -2.0564
  122OSM    C9F12994   2.813   0.686   9.670  0.2381  0.1747 -0.2634
  122OSM    H9F12995   2.739   0.615   9.711  0.4571  0.0306 -0.1145
  122OSM   C10F12996   2.798   0.733   9.547 -0.1387  0.5203  0.3804
  122OSM   H10F12997   2.709   0.703   9.490 -0.3283 -1.1036  1.4609
  122OSM   C11F12998   2.890   0.832   9.487 -0.2541 -0.0255 -0.0534
  122OSM   H11F12999   2.980   0.860   9.545  1.2211  1.6130 -2.8924
  122OSM   H11G13000   2.834   0.926   9.467 -0.3883 -0.3510 -1.2759
  122OSM   C12F13001   2.948   0.785   9.353  0.3769  0.8016  0.2059
  122OSM   H12F13002   2.870   0.735   9.292  3.0226  0.9204 -3.6716
  122OSM   H12G13003   3.034   0.714   9.365  1.1683  1.2495 -2.1134
  122OSM   C13F13004   3.005   0.892   9.253  0.5017  0.0746  0.0721
  122OSM   H13F13005   3.064   0.960   9.318 -0.7187 -1.6537  3.1902
  122OSM   H13G13006   2.915   0.948   9.220  0.9363  0.5348 -0.3340
  122OSM   C14F13007   3.088   0.835   9.140  0.4834 -0.1991  0.2247
  122OSM   H14F13008   3.182   0.790   9.180  0.8789  1.3459  1.1354
  122OSM   H14G13009   3.130   0.916   9.077 -0.6798 -1.3681 -2.1777
  122OSM   C15F13010   3.004   0.745   9.052  0.0559  0.1488 -0.2881
  122OSM   H15F13011   2.949   0.663   9.103  1.0216 -0.0250  0.4944
  122OSM   H15G13012   3.076   0.689   8.988 -1.7919 -1.6022 -0.9489
  122OSM   C16F13013   2.917   0.827   8.960 -0.3871 -0.5933 -0.0727
  122OSM   H16F13014   2.968   0.911   8.909  2.5816 -2.7369 -0.9031
  122OSM   H16G13015   2.849   0.866   9.040  0.4169  1.8293 -0.4852
  122OSM   C17F13016   2.842   0.752   8.854  0.1018 -0.6117  0.2757
  122OSM   H17F13017   2.789   0.662   8.893  0.8260 -1.1561  0.0284
  122OSM   H17G13018   2.914   0.719   8.776  0.0255  1.8097 -0.9043
  122OSM   C18F13019   2.751   0.838   8.765 -0.3600  0.5679  0.6842
  122OSM   H18F13020   2.675   0.777   8.711 -0.1928  0.4829  0.5434
  122OSM   H18G13021   2.810   0.890   8.687  1.0256 -2.0486 -0.1300
  122OSM   H18H13022   2.703   0.924   8.816 -0.1454  0.9296  0.2719
  123OSM      N13023   0.320   5.714   5.931 -0.2655 -0.2960  0.2754
  123OSM    C1513024   0.292   5.857   5.914  0.4054 -0.2170  0.3254
  123OSM   H15A13025   0.309   5.878   5.810 -2.5818  2.0724  0.1665
  123OSM   H15B13026   0.369   5.903   5.974 -0.6729  0.4838  1.2180
  123OSM   H15C13027   0.197   5.886   5.956  1.1765 -0.1967  2.1574
  123OSM    C1413028   0.222   5.626   5.852  0.5074 -0.4761  0.1279
  123OSM   H14A13029   0.249   5.522   5.863  1.2413 -0.2579  0.4534
  123OSM   H14B13030   0.242   5.643   5.747  0.9623  1.0944  0.4284
  123OSM   H14C13031   0.118   5.643   5.877 -0.3009 -0.2558 -2.9756
  123OSM    C1313032   0.463   5.680   5.890  0.5420 -0.1781 -0.2187
  123OSM   H13A13033   0.482   5.575   5.911  1.4721 -0.2345 -1.2502
  123OSM   H13B13034   0.532   5.721   5.962 -2.5359  1.2069  2.1636
  123OSM   H13C13035   0.491   5.698   5.787  2.4476 -2.5953 -0.2119
  123OSM    C1213036   0.285   5.675   6.071 -0.6252  0.5687  0.1816
  123OSM   H12A13037   0.285   5.567   6.084 -0.9876  0.4742 -0.5425
  123OSM   H12B13038   0.184   5.699   6.102 -0.5684  0.4484  0.4708
  123OSM    C1113039   0.372   5.734   6.183 -1.1446  0.7409  0.2503
  123OSM   H11A13040   0.343   5.683   6.277  1.7457 -1.4958  0.0310
  123OSM   H11B13041   0.338   5.840   6.193  1.2123  1.5736  0.0856
  123OSM      P13042   0.609   5.845   6.204  0.4187 -0.5409  0.8127
  123OSM    O1313043   0.747   5.796   6.225 -0.5423  0.2079  0.1467
  123OSM    O1413044   0.596   5.952   6.099 -0.1588  0.0985 -0.5280
  123OSM    O1113045   0.566   5.915   6.347 -0.1573  0.6080 -0.0038
  123OSM    O1213046   0.511   5.724   6.175  0.1907 -0.0448 -0.4524
  123OSM    C1S13047   0.567   5.830   6.463  0.0807  0.0317 -0.1827
  123OSM    H1S13048   0.674   5.826   6.492 -0.2492  0.6633  1.2156
  123OSM    H1T13049   0.521   5.731   6.442 -1.9609  1.3369 -2.4228
  123OSM     NF13050   0.489   5.820   6.706 -0.1009 -0.3116  0.2912
  123OSM    HNF13051   0.397   5.781   6.712 -1.2193  1.8304 -1.3122
  123OSM    C2S13052   0.504   5.908   6.584 -0.4877 -0.3576 -0.3304
  123OSM    H2S13053   0.573   5.993   6.606 -0.5150  0.1173 -1.9792
  123OSM    C3S13054   0.369   5.974   6.547  1.1391 -0.1148  0.2558
  123OSM    H3S13055   0.302   5.885   6.547  1.3084 -0.2453 -0.0245
  123OSM     O313056   0.367   6.035   6.414 -0.6866  0.0545  0.0108
  123OSM    HO313057   0.455   6.020   6.379 -1.2593  0.7910 -1.8943
  123OSM    C4S13058   0.333   6.082   6.646  1.0146 -0.0760  0.9427
  123OSM    H4S13059   0.393   6.173   6.658 -1.4227  1.6993  0.5855
  123OSM    C5S13060   0.216   6.087   6.719 -0.7764  0.2618 -0.5638
  123OSM    H5S13061   0.152   5.998   6.708  1.8918 -1.9435  0.5624
  123OSM    C6S13062   0.178   6.198   6.817 -0.7010 -0.0531 -0.2441
  123OSM    H6S13063   0.097   6.168   6.886 -0.5411 -1.2502 -0.5561
  123OSM    H6T13064   0.146   6.289   6.762  2.3662  0.7922 -0.7972
  123OSM    C7S13065   0.295   6.226   6.911  1.3500  0.0763  0.2053
  123OSM    H7S13066   0.259   6.301   6.984  0.3656 -0.9769  0.8328
  123OSM    H7T13067   0.385   6.246   6.849  1.2539 -1.0171 -0.3277
  123OSM    C8S13068   0.328   6.112   7.013 -0.4755 -0.1850  0.0478
  123OSM    H8S13069   0.383   6.029   6.964 -0.6351 -0.6750  0.6940
  123OSM    H8T13070   0.226   6.075   7.037 -0.6853  1.1078  1.3397
  123OSM    C9S13071   0.403   6.154   7.138 -0.2631  0.1049  0.9210
  123OSM    H9S13072   0.376   6.257   7.169 -1.8610  0.7401 -2.2002
  123OSM    H9T13073   0.511   6.164   7.111 -0.8292  2.8246 -0.8463
  123OSM   C10S13074   0.386   6.064   7.256  0.0675 -0.4343  0.5937
  123OSM   H10S13075   0.432   5.965   7.234  0.7624  0.5641 -2.9556
  123OSM   H10T13076   0.277   6.061   7.276 -0.1299 -1.8283 -0.5797
  123OSM   C11S13077   0.453   6.109   7.387  0.0863 -0.3364  0.3408
  123OSM   H11S13078   0.406   6.196   7.437  0.5126  0.0645  0.0618
  123OSM   H11T13079   0.558   6.137   7.364 -0.3057  0.0610 -1.0654
  123OSM   C12S13080   0.459   6.014   7.510 -0.5223 -0.3012  0.1155
  123OSM   H12S13081   0.519   6.061   7.591 -0.5062 -2.0425  1.1694
  123OSM   H12T13082   0.516   5.920   7.490  2.2188  1.3197 -0.1334
  123OSM   C13S13083   0.320   5.986   7.567 -0.0086 -0.2918  0.0486
  123OSM   H13S13084   0.256   5.936   7.491 -1.8147  0.7836  0.7862
  123OSM   H13T13085   0.281   6.089   7.585  2.4168  1.0496 -1.8010
  123OSM   C14S13086   0.328   5.899   7.690  0.5537  0.8405 -0.1776
  123OSM   H14S13087   0.397   5.813   7.677  0.4394  0.7767 -0.3652
  123OSM   H14T13088   0.234   5.844   7.708  0.0913 -0.2348 -4.6649
  123OSM   C15S13089   0.378   5.956   7.823  0.3741 -0.4085  0.3447
  123OSM   H15S13090   0.330   6.054   7.844 -2.1269 -1.1241 -1.5352
  123OSM   H15T13091   0.486   5.973   7.806  0.5770 -1.0559  0.9491
  123OSM   C16S13092   0.379   5.858   7.948 -0.2356 -0.9139  0.0668
  123OSM   H16S13093   0.429   5.761   7.926 -0.6953 -1.7001  2.2139
  123OSM   H16T13094   0.283   5.833   7.998  0.7413 -1.3818  1.7826
  123OSM   C17S13095   0.464   5.921   8.059  0.3290 -0.2101 -0.5907
  123OSM   H17S13096   0.431   6.026   8.070 -0.7078 -0.4856 -0.9603
  123OSM   H17T13097   0.569   5.925   8.023  0.2781  1.9415 -0.5923
  123OSM   C18S13098   0.450   5.836   8.187 -0.4013 -0.2560 -0.4406
  123OSM   H18S13099   0.514   5.872   8.270  0.1635  1.5934 -1.6241
  123OSM   H18T13100   0.491   5.738   8.153  1.0886  0.1781  0.0510
  123OSM   H18U13101   0.343   5.823   8.214 -0.2799 -2.3581 -0.7724
  123OSM    C1F13102   0.594   5.772   6.767 -0.6744 -0.2776 -0.4536
  123OSM     OF13103   0.713   5.790   6.738  0.7542  0.0152  0.2985
  123OSM    C2F13104   0.559   5.673   6.880 -0.3661  0.1166 -0.3108
  123OSM    H2F13105   0.453   5.643   6.861 -0.1958 -1.5004  1.0758
  123OSM    H2G13106   0.557   5.722   6.979 -2.5616 -0.6036  0.0628
  123OSM    C3F13107   0.653   5.549   6.883 -0.5905  0.0001 -0.0023
  123OSM    H3F13108   0.750   5.589   6.921  0.3210 -0.4501 -1.7495
  123OSM    H3G13109   0.673   5.509   6.782  0.8677  1.3013 -0.2748
  123OSM    C4F13110   0.598   5.441   6.974  0.3724 -0.1342  0.6058
  123OSM    H4F13111   0.500   5.403   6.938 -0.7761  3.0934  0.0326
  123OSM    H4G13112   0.574   5.476   7.077  1.6971  0.0315  0.8699
  123OSM    C5F13113   0.696   5.327   6.980 -0.1665 -0.0166 -0.8477
  123OSM    H5F13114   0.787   5.365   7.031  0.3276 -0.6119 -1.2689
  123OSM    H5G13115   0.727   5.285   6.882 -0.6397  0.0228 -1.0145
  123OSM    C6F13116   0.632   5.210   7.062 -0.2969  0.3529 -0.0056
  123OSM    H6F13117   0.545   5.175   7.002 -0.3019  0.4224 -0.0386
  123OSM    H6G13118   0.597   5.245   7.162  2.9755  1.2816  0.9482
  123OSM    C7F13119   0.722   5.094   7.096 -0.2209  0.7594  0.3381
  123OSM    H7F13120   0.812   5.152   7.124  0.0252  1.1037 -1.0926
  123OSM    H7G13121   0.749   5.021   7.016 -0.8511 -0.9936  1.6573
  123OSM    C8F13122   0.675   5.014   7.218  0.4156  0.1863  0.1509
  123OSM    H8F13123   0.674   5.081   7.307 -0.4172 -2.3398  2.1477
  123OSM    H8G13124   0.753   4.938   7.241  1.3209  0.5687 -1.4977
  123OSM    C9F13125   0.537   4.953   7.188 -0.2392 -0.6268 -0.0415
  123OSM    H9F13126   0.494   5.001   7.100 -0.0768 -1.7312 -0.7357
  123OSM   C10F13127   0.490   4.846   7.251  0.2268  0.5039 -0.4928
  123OSM   H10F13128   0.384   4.816   7.239 -0.0761  0.8599  1.0998
  123OSM   C11F13129   0.566   4.771   7.360  0.6421 -0.2845 -0.2802
  123OSM   H11F13130   0.673   4.797   7.367  0.9581 -1.8289  1.3233
  123OSM   H11G13131   0.574   4.662   7.339  2.1921 -0.2712  0.1120
  123OSM   C12F13132   0.496   4.782   7.496  0.8460  0.1717 -1.3287
  123OSM   H12F13133   0.391   4.747   7.503  0.4930  1.4924  0.5534
  123OSM   H12G13134   0.489   4.891   7.515 -0.9995 -0.3812  1.9774
  123OSM   C13F13135   0.571   4.709   7.601  0.0910  0.2225  0.7410
  123OSM   H13F13136   0.677   4.741   7.599 -0.2926  1.7034 -2.6810
  123OSM   H13G13137   0.566   4.602   7.571  1.8034  0.7827 -1.9130
  123OSM   C14F13138   0.512   4.739   7.738  0.2859  0.6701  0.2267
  123OSM   H14F13139   0.405   4.710   7.740  1.0846 -2.6115  0.4983
  123OSM   H14G13140   0.510   4.850   7.748  1.9247  0.7025  0.5044
  123OSM   C15F13141   0.584   4.657   7.852 -0.3250  0.2612 -0.1156
  123OSM   H15F13142   0.692   4.643   7.829  0.2585 -0.1620  2.5789
  123OSM   H15G13143   0.542   4.554   7.855 -0.7160  0.4387  2.1998
  123OSM   C16F13144   0.590   4.741   7.984 -0.0187  0.7707 -0.1545
  123OSM   H16F13145   0.485   4.770   8.006 -0.9278 -2.9887  1.2648
  123OSM   H16G13146   0.666   4.822   7.990  2.3207 -1.3086  0.0982
  123OSM   C17F13147   0.618   4.656   8.105 -0.3183  0.3709  0.2875
  123OSM   H17F13148   0.724   4.624   8.099 -0.4803  0.1302 -2.1581
  123OSM   H17G13149   0.549   4.570   8.098 -0.7525  0.5791  1.6304
  123OSM   C18F13150   0.583   4.735   8.238  0.8749  0.4128  0.5446
  123OSM   H18F13151   0.472   4.739   8.240  0.7203  2.6040 -2.9133
  123OSM   H18G13152   0.618   4.841   8.232  0.3676  0.5149 -1.5392
  123OSM   H18H13153   0.617   4.697   8.336 -2.0648  1.7999  2.2385
  124OSM      N13154   4.465   3.329   6.170 -0.1045 -0.6543 -0.2948
  124OSM    C1513155   4.375   3.368   6.059  0.6368 -0.0542 -0.2840
  124OSM   H15A13156   4.271   3.348   6.079  1.1708 -2.6815  0.1627
  124OSM   H15B13157   4.401   3.317   5.967  0.9013 -3.0088  1.3213
  124OSM   H15C13158   4.382   3.474   6.035 -2.0280  0.5717  1.3445
  124OSM    C1413159   4.501   3.190   6.159 -0.4050 -0.0376 -0.5058
  124OSM   H14A13160   4.541   3.164   6.062 -0.0748  1.2054 -0.7276
  124OSM   H14B13161   4.418   3.123   6.177  0.3895 -1.2199 -1.1194
  124OSM   H14C13162   4.581   3.162   6.225 -1.2439  1.9722  1.4942
  124OSM    C1313163   4.586   3.416   6.151 -0.0894  0.0342 -0.5619
  124OSM   H13A13164   4.565   3.520   6.129 -4.5067 -0.3695  0.8898
  124OSM   H13B13165   4.655   3.376   6.078  4.5034 -0.3570  3.4513
  124OSM   H13C13166   4.648   3.421   6.239  0.4364  0.9737 -0.9704
  124OSM    C1213167   4.393   3.357   6.301  0.4146 -0.4099  0.0740
  124OSM   H12A13168   4.383   3.463   6.320  2.1065 -0.3486  0.8008
  124OSM   H12B13169   4.464   3.331   6.378 -0.3247 -1.8580  0.3000
  124OSM    C1113170   4.257   3.302   6.338  0.2311 -0.8602  0.9792
  124OSM   H11A13171   4.229   3.339   6.439  0.4657  2.1191  0.0407
  124OSM   H11B13172   4.263   3.191   6.346 -1.2587 -0.8651  2.4831
  124OSM      P13173   4.064   3.456   6.276 -0.1919 -0.5295 -0.1120
  124OSM    O1313174   4.028   3.549   6.161  0.1037  0.2707  0.7477
  124OSM    O1413175   3.956   3.390   6.356  0.4268 -0.1053  0.2612
  124OSM    O1113176   4.138   3.546   6.379 -0.6120  0.1736 -0.5290
  124OSM    O1213177   4.159   3.342   6.239 -0.7439  0.3077 -0.1445
  124OSM    C1S13178   4.076   3.644   6.464  0.0367  0.0514 -0.6699
  124OSM    H1S13179   3.966   3.630   6.450  0.2956 -0.2423 -2.6769
  124OSM    H1T13180   4.097   3.748   6.433 -2.0352  0.2929 -1.4473
  124OSM     NF13181   4.036   3.733   6.695  0.0257 -0.0639 -0.1901
  124OSM    HNF13182   4.077   3.807   6.748 -0.5598  1.1215 -1.3309
  124OSM    C2S13183   4.115   3.635   6.611 -0.8900 -0.2854 -0.2227
  124OSM    H2S13184   4.097   3.538   6.662 -1.0826 -0.4702 -0.6362
  124OSM    C3S13185   4.273   3.650   6.622 -0.0316  0.3364  0.2784
  124OSM    H3S13186   4.308   3.741   6.568  0.3879  0.7261  1.1882
  124OSM     O313187   4.338   3.546   6.552  0.3390 -0.0917 -0.4646
  124OSM    HO313188   4.278   3.525   6.481 -1.3003 -0.1802  0.8729
  124OSM    C4S13189   4.330   3.666   6.765  0.4785  0.8699  0.4279
  124OSM    H4S13190   4.360   3.771   6.783  1.1707  0.8420 -0.4713
  124OSM    C5S13191   4.347   3.566   6.852 -0.4451  0.0429 -0.2974
  124OSM    H5S13192   4.310   3.464   6.837 -0.8481  0.2228 -0.5561
  124OSM    C6S13193   4.403   3.580   6.991  0.2726 -0.0008  0.6218
  124OSM    H6S13194   4.512   3.561   6.992 -0.1569 -2.7798  1.0512
  124OSM    H6T13195   4.355   3.500   7.051  0.2771 -1.2777 -1.0146
  124OSM    C7S13196   4.354   3.705   7.071  0.1789 -0.7671 -0.2483
  124OSM    H7S13197   4.243   3.714   7.066 -0.2265 -1.1280  4.0296
  124OSM    H7T13198   4.393   3.799   7.026 -2.2037  1.0868  1.2685
  124OSM    C8S13199   4.398   3.693   7.216  0.3572  0.0410 -0.2310
  124OSM    H8S13200   4.506   3.669   7.208 -0.2137 -2.7606 -0.2558
  124OSM    H8T13201   4.344   3.607   7.261  2.1056 -0.6063  0.7187
  124OSM    C9S13202   4.378   3.822   7.297 -1.1693  1.2674  0.1775
  124OSM    H9S13203   4.271   3.848   7.301 -1.8998 -1.5149  0.9233
  124OSM    H9T13204   4.437   3.907   7.256 -0.1460  1.1452  1.3591
  124OSM   C10S13205   4.427   3.790   7.434  0.0725 -0.7778  0.2336
  124OSM   H10S13206   4.537   3.806   7.440 -0.0282 -0.6060  2.4408
  124OSM   H10T13207   4.403   3.688   7.471  0.7020 -0.6821  0.9224
  124OSM   C11S13208   4.349   3.875   7.540  0.3455  0.1703 -0.2815
  124OSM   H11S13209   4.241   3.868   7.514 -0.2219  1.9187  1.3951
  124OSM   H11T13210   4.378   3.982   7.532 -0.8798  0.8401  2.8506
  124OSM   C12S13211   4.362   3.831   7.687  0.0644 -0.1454  0.0944
  124OSM   H12S13212   4.340   3.723   7.700 -2.6957  0.3297  0.1162
  124OSM   H12T13213   4.289   3.890   7.747 -0.7345 -0.0030 -0.9776
  124OSM   C13S13214   4.499   3.860   7.738 -0.2346 -0.0589 -0.1290
  124OSM   H13S13215   4.529   3.965   7.722  0.0559  0.2539  2.1499
  124OSM   H13T13216   4.568   3.794   7.681 -1.1620 -2.9890  1.8683
  124OSM   C14S13217   4.502   3.809   7.883 -0.2563  0.0702 -0.1178
  124OSM   H14S13218   4.601   3.762   7.901 -0.3956 -0.2558 -0.2043
  124OSM   H14T13219   4.427   3.727   7.884  0.4093 -0.5482  0.5872
  124OSM   C15S13220   4.481   3.907   7.995  0.1315  0.1950  0.0754
  124OSM   H15S13221   4.393   3.957   7.950 -0.4859 -2.6783 -2.2125
  124OSM   H15T13222   4.562   3.982   8.005 -0.6519  1.0956 -0.2707
  124OSM   C16S13223   4.438   3.839   8.128 -0.0457 -0.0035 -0.0015
  124OSM   H16S13224   4.526   3.801   8.185 -1.3541 -2.5306  0.4932
  124OSM   H16T13225   4.391   3.741   8.103  0.7398 -0.9570  2.0008
  124OSM   C17S13226   4.344   3.916   8.219  0.3254  0.2066 -0.2867
  124OSM   H17S13227   4.248   3.935   8.166  0.5240 -0.3720 -0.8673
  124OSM   H17T13228   4.396   4.013   8.240  0.9903 -0.5372  1.8226
  124OSM   C18S13229   4.306   3.857   8.357 -0.3455  0.4603  0.7264
  124OSM   H18S13230   4.286   3.749   8.342 -2.3131  1.0870 -1.9798
  124OSM   H18T13231   4.216   3.903   8.403 -0.3093 -0.0587  1.3263
  124OSM   H18U13232   4.391   3.862   8.429 -1.9361  0.1825  2.7076
  124OSM    C1F13233   3.905   3.725   6.715  0.1214 -0.1416  0.7366
  124OSM     OF13234   3.845   3.632   6.675  0.0568  0.1255 -0.2452
  124OSM    C2F13235   3.834   3.841   6.787 -0.8295  0.9658 -0.3629
  124OSM    H2F13236   3.829   3.933   6.724  0.2738  0.8653 -0.6253
  124OSM    H2G13237   3.891   3.855   6.881  0.2293 -2.2473 -0.4201
  124OSM    C3F13238   3.691   3.796   6.820 -0.6012  0.2338  0.1441
  124OSM    H3F13239   3.696   3.707   6.886 -0.8199  0.8517  1.0050
  124OSM    H3G13240   3.636   3.771   6.726 -0.8988 -0.0127  0.3818
  124OSM    C4F13241   3.616   3.904   6.895  0.0910  0.2581 -0.0714
  124OSM    H4F13242   3.515   3.859   6.909  0.0861 -0.0078 -0.8981
  124OSM    H4G13243   3.607   3.983   6.818  2.0871 -0.2415 -0.8709
  124OSM    C5F13244   3.681   3.951   7.023 -0.2042 -0.9354 -0.1980
  124OSM    H5F13245   3.754   4.023   6.982 -0.2420 -1.1005 -0.5577
  124OSM    H5G13246   3.742   3.867   7.061 -0.1040 -0.5854  0.4323
  124OSM    C6F13247   3.585   4.013   7.126  0.0339  0.7872 -0.0670
  124OSM    H6F13248   3.518   4.086   7.076 -0.0798  0.5488 -0.2629
  124OSM    H6G13249   3.648   4.064   7.202  0.3286  0.7340 -0.2758
  124OSM    C7F13250   3.493   3.906   7.185  0.1942 -0.2795 -0.0897
  124OSM    H7F13251   3.555   3.821   7.221  0.2294 -1.0320 -1.8522
  124OSM    H7G13252   3.415   3.866   7.117  0.3037  0.7112 -0.8160
  124OSM    C8F13253   3.422   3.953   7.312  0.2031 -0.3927 -0.6167
  124OSM    H8F13254   3.503   3.992   7.377 -1.7124  0.2448  1.5172
  124OSM    H8G13255   3.383   3.856   7.349  0.7695 -0.5801 -0.5140
  124OSM    C9F13256   3.315   4.053   7.280  0.0423 -0.2209 -0.5806
  124OSM    H9F13257   3.325   4.115   7.189  0.1641  0.1519 -0.3164
  124OSM   C10F13258   3.213   4.082   7.364  0.3565  0.1909  0.1443
  124OSM   H10F13259   3.131   4.144   7.326 -1.1028 -1.4965  0.4097
  124OSM   C11F13260   3.190   4.005   7.493  0.2616  0.2059  0.5914
  124OSM   H11F13261   3.279   4.012   7.559 -0.2027 -2.4845  1.6632
  124OSM   H11G13262   3.171   3.897   7.473 -0.8783  0.0710  2.1579
  124OSM   C12F13263   3.074   4.064   7.568  0.5044  0.0694  0.2215
  124OSM   H12F13264   2.969   4.051   7.533  0.4621 -2.1359  1.0123
  124OSM   H12G13265   3.086   4.174   7.578  0.6623 -0.0667  1.9123
  124OSM   C13F13266   3.077   4.007   7.714 -0.8184  0.2312 -0.0558
  124OSM   H13F13267   3.175   4.020   7.764 -1.4074 -1.1960  1.5823
  124OSM   H13G13268   3.076   3.896   7.713 -0.2980  0.2018 -2.1431
  124OSM   C14F13269   2.967   4.059   7.810  0.0568  0.3247 -0.1713
  124OSM   H14F13270   2.867   4.024   7.776 -0.3928 -0.3828  1.7605
  124OSM   H14G13271   2.962   4.170   7.822 -1.6723  0.3467 -0.7376
  124OSM   C15F13272   2.991   4.015   7.951  0.6335  0.3392 -0.1536
  124OSM   H15F13273   3.083   4.060   7.994  0.3280 -0.5691  1.5244
  124OSM   H15G13274   2.999   3.904   7.956  2.7233  0.3689 -1.7682
  124OSM   C16F13275   2.876   4.062   8.043  0.0030  0.6547 -0.4205
  124OSM   H16F13276   2.776   4.021   8.017 -1.0274  2.3781  0.6248
  124OSM   H16G13277   2.858   4.169   8.019  0.2437  1.2985  1.9541
  124OSM   C17F13278   2.910   4.031   8.192  0.2309 -0.4308 -0.1429
  124OSM   H17F13279   3.007   4.081   8.210 -0.3380  0.6840 -0.0419
  124OSM   H17G13280   2.936   3.926   8.215  1.1548 -0.2599 -0.3873
  124OSM   C18F13281   2.801   4.078   8.294 -0.3981 -0.2278 -0.7207
  124OSM   H18F13282   2.764   4.168   8.240  2.1091  0.6692 -1.1234
  124OSM   H18G13283   2.843   4.128   8.384 -2.9867  0.2732  0.2783
  124OSM   H18H13284   2.717   4.006   8.302 -0.0629 -0.7510 -1.7231
  125OSM      N13285   3.610   4.057   6.327 -0.0786  0.0487 -0.6206
  125OSM    C1513286   3.494   4.000   6.405 -0.6116 -0.8059  0.1110
  125OSM   H15A13287   3.422   4.080   6.405 -0.7832 -0.9548  0.9728
  125OSM   H15B13288   3.531   3.973   6.503 -0.0458 -2.6278 -0.5525
  125OSM   H15C13289   3.470   3.905   6.358  1.0681 -1.2221  0.0378
  125OSM    C1413290   3.559   4.096   6.194 -0.0219  0.0329  0.5194
  125OSM   H14A13291   3.495   4.182   6.201  0.8142  0.8180 -0.9613
  125OSM   H14B13292   3.513   4.008   6.151  1.1100 -0.2124 -0.2365
  125OSM   H14C13293   3.635   4.127   6.124 -1.2127  0.6742 -0.5214
  125OSM    C1313294   3.654   4.185   6.388  0.1127 -0.6998  0.6457
  125OSM   H13A13295   3.701   4.245   6.312 -0.0007 -0.2566  0.9265
  125OSM   H13B13296   3.718   4.165   6.472 -2.8442 -1.2552  2.9490
  125OSM   H13C13297   3.573   4.256   6.394  0.3977 -0.0327 -2.0451
  125OSM    C1213298   3.729   3.966   6.310 -0.3833  0.6165  0.0565
  125OSM   H12A13299   3.792   3.998   6.228  1.1138 -0.9639  0.5244
  125OSM   H12B13300   3.689   3.869   6.285 -0.5692  0.6689  0.1496
  125OSM    C1113301   3.815   3.942   6.437 -0.0489  0.0926  0.3368
  125OSM   H11A13302   3.868   3.845   6.436 -0.6981 -0.2891  1.0655
  125OSM   H11B13303   3.752   3.931   6.528  0.3262 -0.9459  0.4752
  125OSM      P13304   4.020   4.087   6.382  0.4351 -0.4064  0.4668
  125OSM    O1313305   4.011   4.018   6.251 -0.5490  0.0182 -0.6742
  125OSM    O1413306   4.020   4.237   6.368 -0.6170  0.1228  0.2715
  125OSM    O1113307   4.144   4.044   6.467  0.3246 -0.1173  0.0876
  125OSM    O1213308   3.900   4.049   6.470  0.3651 -0.5738 -0.3754
  125OSM    C1S13309   4.163   4.118   6.587 -0.2906  0.9607 -0.5200
  125OSM    H1S13310   4.073   4.109   6.652 -1.5239  0.2879 -2.2261
  125OSM    H1T13311   4.181   4.226   6.568 -0.0424  1.1358  0.6640
  125OSM     NF13312   4.279   4.098   6.812  0.4689  0.4443  0.2388
  125OSM    HNF13313   4.321   4.182   6.844 -2.0517  1.7350  0.4488
  125OSM    C2S13314   4.289   4.067   6.669 -0.0693 -0.2968  0.5914
  125OSM    H2S13315   4.286   3.956   6.672  1.6213 -0.6027 -3.4670
  125OSM    C3S13316   4.418   4.111   6.596 -0.3848 -0.1661 -0.0907
  125OSM    H3S13317   4.424   4.222   6.599  0.4505 -0.1576 -1.5331
  125OSM     O313318   4.420   4.085   6.458  0.2234 -0.2912  0.5739
  125OSM    HO313319   4.326   4.085   6.439 -0.3759 -0.0013  3.0938
  125OSM    C4S13320   4.532   4.053   6.677 -0.2232 -0.1898 -0.2214
  125OSM    H4S13321   4.589   4.124   6.739  1.8359 -1.8096 -0.1755
  125OSM    C5S13322   4.586   3.932   6.671 -0.3660  0.6865 -0.2011
  125OSM    H5S13323   4.542   3.849   6.613  1.4020 -0.2406 -0.2787
  125OSM    C6S13324   4.705   3.882   6.749  0.2792 -0.5823 -0.3726
  125OSM    H6S13325   4.800   3.930   6.717 -0.1216 -0.5653 -1.5913
  125OSM    H6T13326   4.714   3.771   6.742 -2.5473 -0.9128 -0.1000
  125OSM    C7S13327   4.681   3.906   6.898  0.3563 -0.2758 -0.3570
  125OSM    H7S13328   4.584   3.862   6.931  1.0556 -1.0435  0.7290
  125OSM    H7T13329   4.691   4.016   6.913  0.1950 -0.3241  0.1164
  125OSM    C8S13330   4.790   3.841   6.985  0.9364 -0.1004 -0.1898
  125OSM    H8S13331   4.880   3.871   6.927 -0.2304  1.4427 -1.3018
  125OSM    H8T13332   4.783   3.730   6.989 -1.4673  0.0384  2.5864
  125OSM    C9S13333   4.792   3.885   7.130 -0.8718  0.0396  0.2891
  125OSM    H9S13334   4.695   3.878   7.185 -0.4497  2.8257  1.5414
  125OSM    H9T13335   4.805   3.993   7.149 -2.7529  0.2057  0.8571
  125OSM   C10S13336   4.901   3.815   7.205 -0.7809 -0.2456 -0.8884
  125OSM   H10S13337   4.996   3.843   7.155 -1.0562 -1.1059 -1.9188
  125OSM   H10T13338   4.894   3.704   7.204  1.4154 -0.4627  0.3193
  125OSM   C11S13339   4.919   3.864   7.349  0.2184  0.2961 -0.4166
  125OSM   H11S13340   4.827   3.862   7.412  0.3094  0.1989 -0.2858
  125OSM   H11T13341   4.935   3.973   7.332 -1.5174  0.3512 -2.0506
  125OSM   C12S13342   5.031   3.796   7.419  0.5799 -0.4075  0.2360
  125OSM   H12S13343   5.118   3.785   7.350 -0.6131 -0.8863 -1.2504
  125OSM   H12T13344   5.003   3.691   7.442 -0.3941  0.0816  1.3606
  125OSM   C13S13345   5.088   3.865   7.550 -0.4407 -0.2392 -0.2703
  125OSM   H13S13346   5.117   3.967   7.517 -1.0475  0.3563  0.9498
  125OSM   H13T13347   5.176   3.807   7.585 -2.4130 -1.8072  2.5326
  125OSM   C14S13348   4.989   3.856   7.654 -0.3706 -0.1510  0.2232
  125OSM   H14S13349   4.957   3.751   7.672 -0.8141 -0.1302 -0.4196
  125OSM   H14T13350   4.896   3.910   7.628 -1.2187 -2.0448 -0.8570
  125OSM   C15S13351   5.040   3.926   7.784 -0.1890 -0.6212 -0.7838
  125OSM   H15S13352   5.069   4.032   7.767  2.3727 -1.5380 -2.8336
  125OSM   H15T13353   5.125   3.869   7.825  0.0766  1.6421  2.1884
  125OSM   C16S13354   4.934   3.913   7.887  0.2913 -0.4273 -0.1186
  125OSM   H16S13355   4.897   3.809   7.896  2.3485 -1.1822  0.1252
  125OSM   H16T13356   4.849   3.973   7.850  1.5761  1.1881 -0.5965
  125OSM   C17S13357   4.973   3.972   8.029 -0.1289 -0.4948 -0.5884
  125OSM   H17S13358   5.008   4.076   8.008  2.9881 -1.1145  0.8498
  125OSM   H17T13359   5.057   3.921   8.081  0.2767  3.4575  3.2866
  125OSM   C18S13360   4.844   3.969   8.120 -0.7007  0.0293  0.3679
  125OSM   H18S13361   4.867   4.013   8.219 -0.4094  0.9330 -0.0944
  125OSM   H18T13362   4.813   3.863   8.133  1.4481 -0.9166 -1.5299
  125OSM   H18U13363   4.765   4.022   8.064 -1.9319 -2.4341 -0.3854
  125OSM    C1F13364   4.194   4.032   6.900  0.2405  0.9605 -0.2831
  125OSM     OF13365   4.126   3.942   6.851  0.0324 -0.2996 -0.5150
  125OSM    C2F13366   4.184   4.077   7.049  0.0652 -0.5101 -0.3483
  125OSM    H2F13367   4.210   4.185   7.044  0.7292 -0.6430  0.1397
  125OSM    H2G13368   4.273   4.033   7.097  0.5906 -0.7425 -1.4864
  125OSM    C3F13369   4.050   4.029   7.112 -0.0230 -0.8296  0.2352
  125OSM    H3F13370   4.028   3.926   7.076 -1.0788 -0.3333 -0.6047
  125OSM    H3G13371   3.970   4.091   7.067 -0.5516 -1.7716 -0.1524
  125OSM    C4F13372   4.036   4.040   7.265 -0.0725 -0.4226 -1.4094
  125OSM    H4F13373   4.038   4.147   7.294  0.9835 -0.9090  0.4977
  125OSM    H4G13374   4.128   3.995   7.308 -1.5015 -1.2317  0.9700
  125OSM    C5F13375   3.897   3.991   7.313  0.0419  0.0475 -0.1798
  125OSM    H5F13376   3.909   3.895   7.258  1.3368  0.5860 -0.8885
  125OSM    H5G13377   3.824   4.062   7.270 -0.9942 -0.6869  0.3301
  125OSM    C6F13378   3.893   3.970   7.462  0.3566 -0.1474  0.3189
  125OSM    H6F13379   3.982   3.917   7.502  1.5566  2.3058  1.0544
  125OSM    H6G13380   3.795   3.921   7.482 -0.7897  1.9794  0.2117
  125OSM    C7F13381   3.891   4.109   7.538 -0.0150  0.2098 -0.3371
  125OSM    H7F13382   3.794   4.157   7.513  0.4643  1.9997  1.0956
  125OSM    H7G13383   3.979   4.164   7.500  1.6252 -1.9800  0.1090
  125OSM    C8F13384   3.902   4.103   7.693 -0.3183  0.1299  0.9912
  125OSM    H8F13385   3.816   4.042   7.728 -1.8451  1.7780  0.2397
  125OSM    H8G13386   3.892   4.209   7.725 -4.1295  0.2039  0.0316
  125OSM    C9F13387   4.036   4.042   7.728  0.0303 -1.0246  0.1650
  125OSM    H9F13388   4.102   4.018   7.643  0.2182 -0.2787  0.0891
  125OSM   C10F13389   4.073   4.023   7.856  0.0428  0.5187  0.0315
  125OSM   H10F13390   4.166   3.967   7.873 -0.6800 -0.0519  2.5957
  125OSM   C11F13391   3.995   4.041   7.980 -0.1878  0.6646 -0.1745
  125OSM   H11F13392   3.899   4.092   7.957 -0.1377  0.5649 -0.5974
  125OSM   H11G13393   4.052   4.108   8.048 -0.8386 -1.0586  2.2085
  125OSM   C12F13394   3.959   3.906   8.051 -0.5106 -0.4019  0.1449
  125OSM   H12F13395   4.046   3.837   8.055 -0.6775 -0.6160  0.1174
  125OSM   H12G13396   3.881   3.863   7.985  0.2914 -0.3646 -0.8544
  125OSM   C13F13397   3.914   3.931   8.194  0.4616 -0.1070 -0.3444
  125OSM   H13F13398   3.823   3.995   8.193 -0.2126 -0.7647  3.6922
  125OSM   H13G13399   3.997   3.965   8.260  1.3211 -1.9761 -0.4042
  125OSM   C14F13400   3.882   3.802   8.267  0.0616 -0.1365  0.4976
  125OSM   H14F13401   3.973   3.741   8.253  0.1565  0.5168 -2.2239
  125OSM   H14G13402   3.802   3.752   8.209  0.0844  0.7178 -0.2850
  125OSM   C15F13403   3.855   3.834   8.422  0.1078  0.6375 -0.1218
  125OSM   H15F13404   3.945   3.869   8.476 -0.3143  0.9283  0.3947
  125OSM   H15G13405   3.837   3.729   8.452  2.5712 -0.2654 -1.5117
  125OSM   C16F13406   3.731   3.919   8.457  0.3122 -0.4615 -0.0501
  125OSM   H16F13407   3.641   3.865   8.420 -0.6450  1.1667 -0.2068
  125OSM   H16G13408   3.723   4.016   8.404 -1.0958  0.3234  1.5038
  125OSM   C17F13409   3.706   3.956   8.607  0.3710  0.2765  0.1374
  125OSM   H17F13410   3.711   3.869   8.676  0.5195  0.9006  0.9377
  125OSM   H17G13411   3.603   3.998   8.609  1.0807  2.0999  1.8168
  125OSM   C18F13412   3.803   4.065   8.659  0.4280 -0.0362  0.0606
  125OSM   H18F13413   3.806   4.158   8.599 -1.3128  1.1577  1.7202
  125OSM   H18G13414   3.905   4.022   8.661  0.3050 -0.3934 -0.6234
  125OSM   H18H13415   3.772   4.086   8.763  1.0800  1.9174 -0.1012
  126OSM      N13416   0.669   5.287   6.537  0.9087  1.5910  0.4505
  126OSM    C1513417   0.783   5.325   6.625 -0.1795  0.4257 -0.8058
  126OSM   H15A13418   0.824   5.236   6.670  0.2978  1.0660  0.0426
  126OSM   H15B13419   0.756   5.381   6.713  3.1496 -0.8481  1.1738
  126OSM   H15C13420   0.857   5.385   6.574  1.6935  1.7290  3.0880
  126OSM    C1413421   0.620   5.412   6.480 -0.3290  0.5060 -0.5329
  126OSM   H14A13422   0.560   5.469   6.549 -1.2524 -0.6006 -0.3848
  126OSM   H14B13423   0.550   5.378   6.405 -1.8676  0.6428  0.7891
  126OSM   H14C13424   0.701   5.467   6.434  1.6875 -3.7516 -2.8088
  126OSM    C1313425   0.714   5.196   6.426 -0.3501  0.4618 -0.4560
  126OSM   H13A13426   0.783   5.119   6.457  1.2124  0.7007 -3.0758
  126OSM   H13B13427   0.750   5.252   6.341 -0.2178  0.9217 -0.0966
  126OSM   H13C13428   0.639   5.131   6.384 -1.8539  0.6513  1.7692
  126OSM    C1213429   0.546   5.224   6.614  0.0259 -0.2163 -0.4217
  126OSM   H12A13430   0.465   5.214   6.545 -0.7695 -0.9843  0.5901
  126OSM   H12B13431   0.516   5.289   6.695 -0.6577 -1.5485  0.4301
  126OSM    C1113432   0.562   5.085   6.686  0.4227  0.1797  0.6876
  126OSM   H11A13433   0.470   5.073   6.747 -1.7190  1.9484 -1.9513
  126OSM   H11B13434   0.644   5.107   6.758  0.9872 -0.9802  0.4165
  126OSM      P13435   0.486   4.915   6.509 -0.1064 -0.2529  0.0888
  126OSM    O1313436   0.382   5.011   6.476 -0.1321 -0.2673  0.7734
  126OSM    O1413437   0.552   4.854   6.393 -0.1547  0.3106 -0.3856
  126OSM    O1113438   0.417   4.807   6.595 -0.4759 -0.6723 -0.4278
  126OSM    O1213439   0.601   4.978   6.599  0.0096 -1.0596 -0.3288
  126OSM    C1S13440   0.491   4.699   6.652  0.3053  0.2225  1.0398
  126OSM    H1S13441   0.601   4.703   6.634  0.5688 -1.1794  2.1440
  126OSM    H1T13442   0.465   4.605   6.599  1.1446  1.1804 -1.1738
  126OSM     NF13443   0.550   4.589   6.874  0.2092  0.7866  0.2397
  126OSM    HNF13444   0.521   4.500   6.906  2.7642 -0.5544 -0.8520
  126OSM    C2S13445   0.467   4.690   6.809 -0.2727  0.5585  0.3868
  126OSM    H2S13446   0.498   4.790   6.847 -1.5230  0.8586  0.6749
  126OSM    C3S13447   0.321   4.670   6.839 -0.7330 -0.0083  0.1070
  126OSM    H3S13448   0.290   4.566   6.813 -0.8197 -0.3744  1.5632
  126OSM     O313449   0.238   4.765   6.768 -0.5196 -0.4307 -0.2161
  126OSM    HO313450   0.298   4.796   6.700 -0.3652 -0.4075 -0.0685
  126OSM    C4S13451   0.287   4.683   6.988  0.1725  0.4547 -0.8410
  126OSM    H4S13452   0.309   4.781   7.033 -0.0321  0.1478 -0.0703
  126OSM    C5S13453   0.209   4.596   7.053  0.4338 -0.0551 -1.1252
  126OSM    H5S13454   0.174   4.511   6.994 -1.1039  0.9368 -1.7189
  126OSM    C6S13455   0.161   4.597   7.197  0.0061 -0.4131  0.4348
  126OSM    H6S13456   0.052   4.616   7.197  0.3070  1.4902  0.7915
  126OSM    H6T13457   0.202   4.680   7.258  2.7728 -2.6833  1.9547
  126OSM    C7S13458   0.194   4.463   7.269  0.1918  0.3501 -0.3571
  126OSM    H7S13459   0.162   4.377   7.205 -0.7309 -1.3765  2.2665
  126OSM    H7T13460   0.129   4.454   7.359  1.0570 -0.2104  0.2338
  126OSM    C8S13461   0.340   4.440   7.309 -0.3471 -0.0522 -0.4544
  126OSM    H8S13462   0.358   4.533   7.368  0.2576 -0.4268 -0.0280
  126OSM    H8T13463   0.408   4.449   7.222 -0.9595  1.0707 -0.8361
  126OSM    C9S13464   0.351   4.309   7.390 -0.2552 -0.6490  0.9401
  126OSM    H9S13465   0.456   4.273   7.395 -0.3674 -1.5869 -1.9281
  126OSM    H9T13466   0.297   4.230   7.334  0.3950  0.3285 -1.1705
  126OSM   C10S13467   0.287   4.302   7.532  0.7359 -0.0110  0.1974
  126OSM   H10S13468   0.193   4.361   7.530  1.7189  1.6636  0.7498
  126OSM   H10T13469   0.354   4.364   7.596  1.8004 -1.2125  0.2889
  126OSM   C11S13470   0.268   4.163   7.595  0.5549  0.2827 -0.9616
  126OSM   H11S13471   0.369   4.120   7.579  0.4183 -1.0279  1.3501
  126OSM   H11T13472   0.192   4.105   7.538  1.1767 -1.0844 -0.4325
  126OSM   C12S13473   0.233   4.168   7.743  0.4568  0.0429 -0.5008
  126OSM   H12S13474   0.315   4.233   7.781  1.5173 -0.1212 -2.4058
  126OSM   H12T13475   0.237   4.065   7.785 -2.0102  1.1370  2.8622
  126OSM   C13S13476   0.098   4.231   7.782 -0.5055 -0.2289 -0.2778
  126OSM   H13S13477   0.020   4.157   7.754 -0.3776 -0.4699 -0.0049
  126OSM   H13T13478   0.070   4.331   7.743 -0.8892 -0.7382 -1.3441
  126OSM   C14S13479   0.104   4.240   7.935  0.0014 -0.4834 -0.7998
  126OSM   H14S13480   0.159   4.331   7.969  0.6135 -0.0743 -2.7452
  126OSM   H14T13481   0.164   4.153   7.968  3.2524  1.0250 -2.2318
  126OSM   C15S13482  -0.040   4.243   7.997 -0.4810  0.4228 -0.5614
  126OSM   H15S13483  -0.041   4.236   8.108  5.1473 -2.0596 -0.3010
  126OSM   H15T13484  -0.085   4.152   7.952  0.9843 -1.4175  1.4730
  126OSM   C16S13485  -0.132   4.354   7.956 -0.3428 -0.0163  0.0817
  126OSM   H16S13486  -0.123   4.354   7.845  0.8899  0.0100  0.1641
  126OSM   H16T13487  -0.087   4.449   7.995  0.3101 -0.5981  0.7853
  126OSM   C17S13488  -0.278   4.358   7.992  0.7053  1.1930 -0.3200
  126OSM   H17S13489  -0.285   4.357   8.103  0.2041  0.4643 -0.3561
  126OSM   H17T13490  -0.324   4.263   7.958  1.4142  0.5872  0.3719
  126OSM   C18S13491  -0.365   4.474   7.940 -0.1961  0.0863  0.1557
  126OSM   H18S13492  -0.365   4.476   7.829 -1.3957 -2.3046  0.0579
  126OSM   H18T13493  -0.321   4.572   7.970 -0.4538  0.1689  0.2591
  126OSM   H18U13494  -0.474   4.474   7.958 -0.3648  0.4134 -0.7950
  126OSM    C1F13495   0.677   4.616   6.900 -0.5009  0.5899  0.5454
  126OSM     OF13496   0.741   4.703   6.844  0.7418 -0.0832 -0.2848
  126OSM    C2F13497   0.739   4.544   7.019 -0.0073  0.5635 -0.1409
  126OSM    H2F13498   0.727   4.608   7.109  1.1367  2.1795 -1.0819
  126OSM    H2G13499   0.850   4.544   7.011 -0.0771  2.4895 -2.3420
  126OSM    C3F13500   0.659   4.410   7.043 -0.9903  0.2115 -0.8699
  126OSM    H3F13501   0.647   4.340   6.957 -1.7620 -0.8829  0.0929
  126OSM    H3G13502   0.558   4.451   7.068 -0.2208  1.4796  0.2916
  126OSM    C4F13503   0.707   4.320   7.162 -0.3513  0.3635  0.3816
  126OSM    H4F13504   0.793   4.278   7.106  0.1808  3.4661 -1.3811
  126OSM    H4G13505   0.639   4.236   7.187 -1.8513  1.0015 -1.3063
  126OSM    C5F13506   0.754   4.391   7.286  0.0739 -0.0670  0.1699
  126OSM    H5F13507   0.659   4.429   7.329 -0.8787 -0.7230 -1.2738
  126OSM    H5G13508   0.827   4.471   7.259 -0.0917  1.2092  3.1342
  126OSM    C6F13509   0.827   4.311   7.393 -0.1525 -0.1973 -0.0132
  126OSM    H6F13510   0.919   4.266   7.350 -1.1387 -0.8025 -1.6154
  126OSM    H6G13511   0.754   4.239   7.437 -0.3622  0.0793  0.0958
  126OSM    C7F13512   0.848   4.407   7.515 -0.4767  0.4331  0.4466
  126OSM    H7F13513   0.753   4.459   7.541  0.2417  2.4064 -0.6614
  126OSM    H7G13514   0.917   4.490   7.487  2.4961 -2.5061 -1.6809
  126OSM    C8F13515   0.896   4.326   7.638  0.3178 -0.1301 -0.5530
  126OSM    H8F13516   1.001   4.301   7.614  0.7938  1.8417 -0.7110
  126OSM    H8G13517   0.837   4.232   7.645 -0.0324  0.0866 -0.5786
  126OSM    C9F13518   0.884   4.387   7.778  0.1086  0.4527  0.3084
  126OSM    H9F13519   0.892   4.496   7.783  1.7904  0.5430 -2.4555
  126OSM   C10F13520   0.841   4.318   7.886  0.1268 -0.0359  0.6489
  126OSM   H10F13521   0.841   4.371   7.983  1.1840 -0.0671  0.6798
  126OSM   C11F13522   0.795   4.177   7.893  0.7862 -0.0635 -0.1882
  126OSM   H11F13523   0.825   4.122   7.984  0.8087 -0.1747 -0.2620
  126OSM   H11G13524   0.833   4.116   7.808  0.3749  1.2161 -1.3375
  126OSM   C12F13525   0.634   4.190   7.898  0.2236  0.1204  0.2524
  126OSM   H12F13526   0.589   4.089   7.887  2.1624 -0.6980 -0.6414
  126OSM   H12G13527   0.614   4.248   7.806  0.3815  0.3008  0.3312
  126OSM   C13F13528   0.563   4.245   8.021 -0.6844 -0.1336  0.4369
  126OSM   H13F13529   0.455   4.251   7.997 -0.5025  1.1751 -0.1611
  126OSM   H13G13530   0.594   4.350   8.042 -0.6760 -0.3885  1.8097
  126OSM   C14F13531   0.605   4.181   8.147 -0.3141  0.5215  0.2438
  126OSM   H14F13532   0.715   4.192   8.159  0.0139 -1.7968 -0.2231
  126OSM   H14G13533   0.587   4.072   8.142 -0.1032  0.3358  2.3907
  126OSM   C15F13534   0.530   4.232   8.264  0.6116 -0.0966  0.7856
  126OSM   H15F13535   0.535   4.342   8.249  0.5343 -0.1619  0.2839
  126OSM   H15G13536   0.568   4.208   8.366 -1.3863 -1.3688  1.2883
  126OSM   C16F13537   0.390   4.192   8.278  0.5117  0.7906  0.3726
  126OSM   H16F13538   0.371   4.088   8.313  1.3252  1.5783  3.3665
  126OSM   H16G13539   0.327   4.212   8.188 -1.9129 -0.3859  1.6924
  126OSM   C17F13540   0.329   4.287   8.391  0.0954 -0.0229 -0.8796
  126OSM   H17F13541   0.360   4.393   8.379  1.0247  0.3419  3.2047
  126OSM   H17G13542   0.365   4.268   8.495 -0.7702 -0.8754 -0.7168
  126OSM   C18F13543   0.176   4.273   8.394 -0.1169 -0.3733 -0.2635
  126OSM   H18F13544   0.132   4.310   8.299  0.9122  3.0994  0.4623
  126OSM   H18G13545   0.135   4.334   8.477  1.3890  1.6119 -0.8987
  126OSM   H18H13546   0.133   4.174   8.420 -2.5369  0.4686 -0.8525
  127OSM      N13547   1.885   1.240   6.057  0.5997 -0.4716  0.1396
  127OSM    C1513548   1.967   1.119   6.040 -0.6659  0.3309  0.2578
  127OSM   H15A13549   1.905   1.037   6.009 -0.3913  0.3364 -0.3245
  127OSM   H15B13550   2.017   1.104   6.135 -2.8422  0.6980  1.5324
  127OSM   H15C13551   2.037   1.146   5.962 -0.4611 -1.1116 -0.0697
  127OSM    C1413552   1.868   1.299   5.918  0.2926  0.1429  0.0119
  127OSM   H14A13553   1.963   1.341   5.889 -0.0673  0.8699 -0.1455
  127OSM   H14B13554   1.797   1.381   5.919 -2.2749 -1.9430  0.4402
  127OSM   H14C13555   1.821   1.229   5.850 -2.1181  1.8008 -0.1631
  127OSM    C1313556   1.753   1.196   6.105 -0.3918  0.6738  0.3550
  127OSM   H13A13557   1.682   1.276   6.085  0.8267  1.5989 -0.4110
  127OSM   H13B13558   1.760   1.179   6.211  0.6489 -0.3424  0.1425
  127OSM   H13C13559   1.715   1.107   6.058 -0.6478  2.0555 -2.2262
  127OSM    C1213560   1.941   1.349   6.140 -0.3348  0.0807  0.0890
  127OSM   H12A13561   1.950   1.313   6.241  1.2114  0.1809  0.0125
  127OSM   H12B13562   1.879   1.436   6.150 -0.9129 -0.3828  0.6152
  127OSM    C1113563   2.073   1.411   6.092 -0.2659 -0.4090 -0.6316
  127OSM   H11A13564   2.103   1.493   6.161  0.3259 -1.0485 -0.1026
  127OSM   H11B13565   2.065   1.464   5.995  1.7365 -0.8737 -1.0895
  127OSM      P13566   2.234   1.261   6.241 -0.2053 -0.0878  0.1141
  127OSM    O1313567   2.272   1.121   6.216  0.1813 -0.5128  0.0462
  127OSM    O1413568   2.345   1.353   6.287 -0.1859  0.4141  0.2026
  127OSM    O1113569   2.123   1.267   6.352 -0.0951 -0.8116  0.4287
  127OSM    O1213570   2.182   1.328   6.106 -0.3654  0.2465 -0.3120
  127OSM    C1S13571   2.099   1.363   6.455  0.4170  0.0373  0.0321
  127OSM    H1S13572   2.027   1.438   6.416  1.6936  2.3169  1.8402
  127OSM    H1T13573   2.190   1.423   6.477  1.8999 -1.6942 -1.0927
  127OSM     NF13574   1.996   1.398   6.678  0.1609 -0.3966 -0.0053
  127OSM    HNF13575   2.057   1.419   6.754 -2.3942 -0.7417  2.3106
  127OSM    C2S13576   2.049   1.292   6.583  0.4737 -0.4735 -0.3292
  127OSM    H2S13577   1.961   1.225   6.577 -0.6500  0.8895  0.1699
  127OSM    C3S13578   2.173   1.216   6.639 -0.2916  0.0332  0.8875
  127OSM    H3S13579   2.262   1.282   6.648 -0.1135 -0.2790  1.5166
  127OSM     O313580   2.217   1.102   6.550  0.3298 -0.1870 -0.3218
  127OSM    HO313581   2.151   1.110   6.480 -0.9576  0.2423  0.8899
  127OSM    C4S13582   2.139   1.171   6.778  0.0219 -0.8095 -0.0663
  127OSM    H4S13583   2.181   1.234   6.858 -0.0746 -0.8976  0.0545
  127OSM    C5S13584   2.057   1.073   6.826 -0.4448 -0.0973  0.3851
  127OSM    H5S13585   2.004   1.005   6.758  1.6343  0.6434 -2.1291
  127OSM    C6S13586   2.033   1.043   6.972 -0.3397  0.2581  0.0253
  127OSM    H6S13587   2.118   1.096   7.020  2.0638 -2.5089 -0.8601
  127OSM    H6T13588   2.024   0.936   7.002 -0.8861  0.9799  2.7621
  127OSM    C7S13589   1.907   1.110   7.013  0.5537 -0.5041 -0.4797
  127OSM    H7S13590   1.835   1.095   6.929 -1.4441 -1.3016  1.2810
  127OSM    H7T13591   1.933   1.218   7.003  1.4897 -0.8817 -2.9650
  127OSM    C8S13592   1.851   1.048   7.142 -0.3914  0.0690 -0.5433
  127OSM    H8S13593   1.862   0.939   7.158 -3.7757 -0.3224 -0.1106
  127OSM    H8T13594   1.742   1.067   7.140 -0.2162  1.0450 -1.7510
  127OSM    C9S13595   1.904   1.125   7.261 -0.5807  0.2367 -0.7231
  127OSM    H9S13596   1.875   1.232   7.259 -0.5915  0.3477  1.7429
  127OSM    H9T13597   2.014   1.137   7.271 -0.7793  1.0476  0.8431
  127OSM   C10S13598   1.852   1.062   7.389 -0.0055 -0.2867  0.0831
  127OSM   H10S13599   1.856   0.951   7.395 -1.1842 -0.3110  0.8055
  127OSM   H10T13600   1.744   1.085   7.407  0.5052  1.4103  1.2433
  127OSM   C11S13601   1.926   1.119   7.515  0.3001  0.4402 -0.6608
  127OSM   H11S13602   1.917   1.229   7.522  1.0601  0.4152  1.2926
  127OSM   H11T13603   2.034   1.102   7.495 -0.3446 -3.3457 -1.6874
  127OSM   C12S13604   1.895   1.044   7.650 -0.2680  0.5177  0.7990
  127OSM   H12S13605   1.973   1.064   7.727 -0.7893 -1.0898  1.8122
  127OSM   H12T13606   1.902   0.937   7.620  1.4154  0.8397 -0.0291
  127OSM   C13S13607   1.765   1.085   7.713  0.4283 -0.4378  0.1192
  127OSM   H13S13608   1.691   1.059   7.634 -1.6984  2.8891  0.7903
  127OSM   H13T13609   1.764   1.195   7.730  0.7978 -0.5980  1.2100
  127OSM   C14S13610   1.726   1.021   7.848  0.1243 -0.7113 -0.2933
  127OSM   H14S13611   1.716   0.911   7.842  0.7087 -0.7482 -0.7283
  127OSM   H14T13612   1.624   1.060   7.866 -0.4360 -2.7412  1.3367
  127OSM   C15S13613   1.820   1.065   7.968  0.1196  0.3586  0.7252
  127OSM   H15S13614   1.800   1.171   7.995  1.0831  1.4996 -2.6028
  127OSM   H15T13615   1.924   1.059   7.932 -0.3691  0.6071 -0.7789
  127OSM   C16S13616   1.807   0.972   8.098 -0.8780 -0.0507  0.8329
  127OSM   H16S13617   1.885   1.000   8.173 -0.9905  1.4928  0.4044
  127OSM   H16T13618   1.834   0.870   8.064 -2.3715  0.1721 -1.1508
  127OSM   C17S13619   1.673   0.988   8.169 -0.6932  1.2963 -0.5734
  127OSM   H17S13620   1.599   0.955   8.093 -1.2603 -1.0045  0.8787
  127OSM   H17T13621   1.657   1.094   8.197  2.2444  1.7665 -0.3371
  127OSM   C18S13622   1.661   0.882   8.285  0.1241 -0.1356  0.5507
  127OSM   H18S13623   1.696   0.784   8.246 -0.4195 -0.0302 -0.2180
  127OSM   H18T13624   1.557   0.889   8.325  0.6570 -0.2044  2.0082
  127OSM   H18U13625   1.730   0.909   8.368  1.0687  1.4828 -0.7217
  127OSM    C1F13626   1.883   1.462   6.657 -0.4624 -0.2741 -0.2283
  127OSM     OF13627   1.806   1.433   6.568  0.6425 -0.0334  0.7132
  127OSM    C2F13628   1.861   1.589   6.739 -0.0555 -0.1973  0.9988
  127OSM    H2F13629   1.797   1.645   6.668 -0.0922 -2.2784 -0.7165
  127OSM    H2G13630   1.959   1.638   6.757  0.2590  1.4814 -3.7867
  127OSM    C3F13631   1.782   1.555   6.861  0.4212  0.4281 -0.1030
  127OSM    H3F13632   1.843   1.494   6.931 -0.0649  0.1579  0.0931
  127OSM    H3G13633   1.704   1.482   6.829  1.1334 -0.3855 -0.0062
  127OSM    C4F13634   1.727   1.668   6.943  0.2677 -0.4979  1.0278
  127OSM    H4F13635   1.658   1.632   7.021 -0.3961 -0.8879  0.2724
  127OSM    H4G13636   1.675   1.737   6.873  0.1221 -0.6072  1.0291
  127OSM    C5F13637   1.841   1.759   7.003 -0.2755  0.0557 -0.3653
  127OSM    H5F13638   1.797   1.830   7.076 -1.1194 -0.9957  0.1866
  127OSM    H5G13639   1.899   1.811   6.924  0.8566 -0.3650  0.1484
  127OSM    C6F13640   1.951   1.686   7.076  0.4183  0.6274 -0.0103
  127OSM    H6F13641   2.021   1.764   7.113  1.3187 -0.6651  1.1010
  127OSM    H6G13642   2.012   1.628   7.004 -0.8497 -1.2384  0.3573
  127OSM    C7F13643   1.902   1.589   7.185  0.5465  0.1918  0.0977
  127OSM    H7F13644   1.835   1.514   7.138  0.0044  0.2062  0.8269
  127OSM    H7G13645   1.826   1.636   7.251  0.3916  1.7569 -1.1438
  127OSM    C8F13646   2.013   1.513   7.265  0.1719  0.8753  0.0931
  127OSM    H8F13647   2.084   1.461   7.196  0.8944  1.4970  0.3624
  127OSM    H8G13648   1.961   1.430   7.319  0.8127 -0.0546 -0.6813
  127OSM    C9F13649   2.082   1.603   7.365  0.2558  0.2468 -0.2264
  127OSM    H9F13650   2.127   1.692   7.318  0.7934 -0.0888 -0.3490
  127OSM   C10F13651   2.098   1.572   7.490 -0.4186 -0.1863 -0.5073
  127OSM   H10F13652   2.166   1.643   7.540  2.5125 -2.2937 -1.2356
  127OSM   C11F13653   2.048   1.454   7.566 -0.5268 -0.4728 -0.6919
  127OSM   H11F13654   2.066   1.362   7.507  0.5967 -0.8788  0.2513
  127OSM   H11G13655   1.942   1.463   7.598  0.0430 -1.5853  1.6967
  127OSM   C12F13656   2.125   1.436   7.704  0.3491  0.4165  0.6903
  127OSM   H12F13657   2.229   1.405   7.684 -0.1577 -0.4612 -0.7521
  127OSM   H12G13658   2.082   1.351   7.761  1.8806 -0.0788  1.1573
  127OSM   C13F13659   2.122   1.561   7.786 -0.2928 -0.2604 -0.4550
  127OSM   H13F13660   2.039   1.632   7.769  0.1857  0.1628 -1.0570
  127OSM   H13G13661   2.213   1.624   7.780 -0.8609  0.6825  0.4655
  127OSM   C14F13662   2.101   1.539   7.938  0.6741  0.2592 -0.2515
  127OSM   H14F13663   2.113   1.638   7.988  1.7640  0.6093 -1.1752
  127OSM   H14G13664   2.183   1.469   7.966  0.3170 -0.5103 -1.0886
  127OSM   C15F13665   1.980   1.449   7.979  0.6454  0.6407 -0.6410
  127OSM   H15F13666   1.997   1.344   7.949 -1.2102  0.7971 -2.4768
  127OSM   H15G13667   1.886   1.471   7.924 -0.0634 -1.8583 -0.5490
  127OSM   C16F13668   1.959   1.441   8.140  0.4333 -0.4189  0.6752
  127OSM   H16F13669   1.884   1.362   8.164 -0.4423 -0.4678 -1.9158
  127OSM   H16G13670   1.913   1.530   8.189 -2.3017 -0.8311 -0.9007
  127OSM   C17F13671   2.092   1.414   8.210 -0.7026 -0.0951  0.3059
  127OSM   H17F13672   2.169   1.488   8.178 -0.4190  0.3093  1.8379
  127OSM   H17G13673   2.128   1.310   8.195 -0.2322 -0.1689  1.7744
  127OSM   C18F13674   2.082   1.430   8.365 -0.1539  0.0103  0.0303
  127OSM   H18F13675   1.987   1.387   8.400 -0.4068 -0.3138 -1.0191
  127OSM   H18G13676   2.078   1.540   8.381 -2.3966  0.4127 -2.5556
  127OSM   H18H13677   2.176   1.389   8.408  0.6319  2.7851  1.1834
  128OSM      N13678   3.754   5.969   5.837 -0.0599  0.0107  0.6565
  128OSM    C1513679   3.772   5.929   5.697 -0.3249 -0.3755 -0.2265
  128OSM   H15A13680   3.689   5.967   5.640 -3.3620 -0.9930  3.3396
  128OSM   H15B13681   3.771   5.821   5.687  0.1894 -0.1761 -3.3209
  128OSM   H15C13682   3.864   5.964   5.652 -0.3240 -0.5257 -0.3455
  128OSM    C1413683   3.750   6.120   5.837  0.2933 -0.1436  0.2937
  128OSM   H14A13684   3.844   6.153   5.795  0.7002 -0.9068  0.5777
  128OSM   H14B13685   3.742   6.149   5.941  0.0538 -2.2725  0.9107
  128OSM   H14C13686   3.664   6.146   5.777  0.8850  0.6772 -0.2225
  128OSM    C1313687   3.616   5.923   5.886  0.9251 -0.3132 -0.0604
  128OSM   H13A13688   3.597   5.816   5.880 -1.6093  0.0813 -0.0757
  128OSM   H13B13689   3.536   5.969   5.830 -0.1282 -1.5557  0.3782
  128OSM   H13C13690   3.604   5.957   5.987 -0.7001  0.8556 -0.6146
  128OSM    C1213691   3.863   5.932   5.936  0.1052  0.1732  0.5167
  128OSM   H12A13692   3.954   5.979   5.901 -0.2015  0.9627  0.7440
  128OSM   H12B13693   3.882   5.826   5.928  1.6037  0.3694  1.0408
  128OSM    C1113694   3.834   5.973   6.081  0.2589 -0.1554 -0.5466
  128OSM   H11A13695   3.819   6.081   6.100  1.2866 -0.4665  2.5268
  128OSM   H11B13696   3.931   5.947   6.127  0.2805 -2.2423 -1.6241
  128OSM      P13697   3.734   5.742   6.165  0.0349  0.5036  0.4584
  128OSM    O1313698   3.619   5.685   6.098  0.3840 -0.2495  0.5403
  128OSM    O1413699   3.867   5.695   6.117  0.0893 -0.5325  0.1326
  128OSM    O1113700   3.735   5.731   6.317  0.0125  0.4308 -0.2589
  128OSM    O1213701   3.727   5.900   6.141 -0.8450  0.0741  0.9939
  128OSM    C1S13702   3.626   5.790   6.393 -0.2687  0.3530 -0.7210
  128OSM    H1S13703   3.561   5.702   6.416  1.5183 -0.6616  0.6864
  128OSM    H1T13704   3.563   5.865   6.341 -1.3709 -0.0240  0.0263
  128OSM     NF13705   3.555   5.863   6.626  0.1575 -0.0938 -0.3041
  128OSM    HNF13706   3.511   5.952   6.633 -0.0331 -0.2669  0.9887
  128OSM    C2S13707   3.669   5.848   6.534  0.3895  0.0812 -0.4875
  128OSM    H2S13708   3.729   5.767   6.581 -1.4533  0.0728  2.0690
  128OSM    C3S13709   3.753   5.974   6.511  0.2778  1.0644  1.0671
  128OSM    H3S13710   3.687   6.052   6.466  1.4533  1.5147  0.0551
  128OSM     O313711   3.860   5.943   6.420  0.6678  0.5150  0.2119
  128OSM    HO313712   3.822   5.873   6.366  2.3960 -1.6785  1.6349
  128OSM    C4S13713   3.801   6.038   6.636  0.9882  0.3616  0.0420
  128OSM    H4S13714   3.744   6.129   6.659 -0.2072 -0.0466 -1.1924
  128OSM    C5S13715   3.899   5.989   6.718  0.2114 -0.1193  0.2406
  128OSM    H5S13716   3.959   5.901   6.689  2.0105  0.2022  2.6570
  128OSM    C6S13717   3.952   6.045   6.848 -0.1456 -0.3357 -0.1742
  128OSM    H6S13718   3.894   6.023   6.941  2.5169  0.0652  1.7128
  128OSM    H6T13719   3.946   6.156   6.843 -0.4391 -0.2541  1.4098
  128OSM    C7S13720   4.103   6.016   6.866  0.2563  0.6173 -0.3737
  128OSM    H7S13721   4.159   6.056   6.779 -0.5704  2.7109  0.0048
  128OSM    H7T13722   4.117   5.907   6.882 -2.3891  0.6220  3.3317
  128OSM    C8S13723   4.162   6.075   7.000 -0.0001  0.0817  0.5016
  128OSM    H8S13724   4.184   6.181   6.978  0.4372 -0.5893 -2.7351
  128OSM    H8T13725   4.258   6.027   7.028 -1.7264 -3.0917  1.5276
  128OSM    C9S13726   4.064   6.059   7.121  0.5839  1.0365 -0.8193
  128OSM    H9S13727   4.033   5.952   7.118  2.8759 -0.0681  4.5117
  128OSM    H9T13728   3.975   6.125   7.109 -0.1098  1.0243  2.9500
  128OSM   C10S13729   4.124   6.091   7.260  0.1962 -0.1277  0.3417
  128OSM   H10S13730   4.146   6.200   7.262 -0.7299  0.1218 -1.3226
  128OSM   H10T13731   4.210   6.023   7.281  0.3978  0.2638  0.7977
  128OSM   C11S13732   4.015   6.070   7.369  0.6973 -0.3747  0.5055
  128OSM   H11S13733   3.989   5.962   7.379 -2.5422 -0.0077 -2.1065
  128OSM   H11T13734   3.925   6.126   7.335 -0.8924 -3.1743 -0.2782
  128OSM   C12S13735   4.061   6.115   7.502  0.6039  0.4370 -0.4230
  128OSM   H12S13736   4.102   6.218   7.502  1.9905 -0.0975 -0.1364
  128OSM   H12T13737   4.135   6.050   7.553 -0.5203 -0.6045 -0.0828
  128OSM   C13S13738   3.948   6.106   7.613  0.4097  0.5278  0.1335
  128OSM   H13S13739   3.930   5.996   7.619 -0.9254  0.5378 -2.3395
  128OSM   H13T13740   3.854   6.153   7.578  0.2169 -1.5653 -2.4781
  128OSM   C14S13741   4.009   6.157   7.751 -0.2964  0.3583 -0.5543
  128OSM   H14S13742   4.052   6.258   7.736  0.1833  0.3498  0.6716
  128OSM   H14T13743   4.084   6.085   7.791  0.6011  0.6960 -1.5787
  128OSM   C15S13744   3.901   6.170   7.859 -0.4786  0.0453 -0.2235
  128OSM   H15S13745   3.836   6.080   7.871  0.6261 -0.4300  3.0419
  128OSM   H15T13746   3.830   6.252   7.834 -0.3911  0.5095  1.0257
  128OSM   C16S13747   3.976   6.190   7.996 -0.2409 -0.1779 -0.1866
  128OSM   H16S13748   4.008   6.296   8.007 -0.8348  0.0047 -0.1245
  128OSM   H16T13749   4.064   6.125   8.012  0.4351  0.8234  0.2494
  128OSM   C17S13750   3.879   6.160   8.116 -0.2292  0.5075 -0.9506
  128OSM   H17S13751   3.932   6.174   8.213 -1.2502  1.4603 -0.5052
  128OSM   H17T13752   3.864   6.051   8.102 -3.5988  0.9219 -1.3692
  128OSM   C18S13753   3.748   6.227   8.105 -0.5313 -0.9082  0.0841
  128OSM   H18S13754   3.759   6.337   8.091  0.3406 -1.1223 -1.1012
  128OSM   H18T13755   3.681   6.205   8.190  1.3854  0.4581  2.0723
  128OSM   H18U13756   3.697   6.197   8.011  0.6561 -0.2915 -0.7967
  128OSM    C1F13757   3.481   5.754   6.664  0.2321 -0.3736 -0.1363
  128OSM     OF13758   3.531   5.645   6.657 -0.1773  0.4902  0.4208
  128OSM    C2F13759   3.342   5.781   6.710  0.8627  0.2811 -0.1203
  128OSM    H2F13760   3.310   5.887   6.710  0.5762  0.2576  2.4581
  128OSM    H2G13761   3.341   5.755   6.818  0.0673 -0.1890 -0.2270
  128OSM    C3F13762   3.238   5.687   6.647  0.0303  0.2506  0.4905
  128OSM    H3F13763   3.272   5.582   6.661  2.7175  0.8749 -0.6768
  128OSM    H3G13764   3.244   5.707   6.538  0.4412  0.6518  0.5832
  128OSM    C4F13765   3.094   5.715   6.682 -0.0993  0.4304 -0.7791
  128OSM    H4F13766   3.036   5.684   6.592 -2.4321 -1.1794  1.1514
  128OSM    H4G13767   3.064   5.819   6.710 -0.5006 -0.1755  1.1631
  128OSM    C5F13768   3.033   5.631   6.792 -0.0179  0.1044  0.5114
  128OSM    H5F13769   3.049   5.522   6.776  4.4023  0.3977  1.5927
  128OSM    H5G13770   2.922   5.643   6.791 -0.1295 -0.8940  0.6052
  128OSM    C6F13771   3.070   5.665   6.938 -0.4510  0.2277  0.4523
  128OSM    H6F13772   3.050   5.771   6.963 -1.6565  0.0837  0.1509
  128OSM    H6G13773   3.176   5.635   6.955 -0.4951 -1.1264 -1.3194
  128OSM    C7F13774   2.986   5.578   7.038  0.0607  0.5555  0.5015
  128OSM    H7F13775   2.982   5.475   6.998 -1.0428  1.1025 -0.8689
  128OSM    H7G13776   2.879   5.606   7.049 -0.6102 -1.4017 -0.6250
  128OSM    C8F13777   3.044   5.577   7.179 -0.1004 -0.2494  0.4441
  128OSM    H8F13778   3.154   5.564   7.171 -0.1571 -1.3228  1.2514
  128OSM    H8G13779   3.007   5.487   7.232  2.0596 -0.6292  1.4124
  128OSM    C9F13780   2.994   5.692   7.265 -0.0439  0.2688 -0.2792
  128OSM    H9F13781   2.909   5.746   7.220 -1.6502 -1.3946  0.6049
  128OSM   C10F13782   3.031   5.725   7.390 -0.0852 -0.3907  0.3612
  128OSM   H10F13783   2.983   5.812   7.436 -0.1208  0.5032 -1.2722
  128OSM   C11F13784   3.142   5.671   7.472 -0.1629 -0.3214  0.6073
  128OSM   H11F13785   3.206   5.752   7.512  0.8361  0.9683 -3.2233
  128OSM   H11G13786   3.212   5.609   7.413  2.7473  1.4849  1.9518
  128OSM   C12F13787   3.078   5.583   7.580  0.5947  0.6646 -0.0450
  128OSM   H12F13788   3.166   5.528   7.619 -0.5443 -0.3151  1.2368
  128OSM   H12G13789   3.016   5.506   7.529  1.2497 -0.1756  0.3913
  128OSM   C13F13790   3.007   5.657   7.694 -0.3109  0.3475  0.4414
  128OSM   H13F13791   2.956   5.588   7.765 -2.2279  0.5584 -0.6781
  128OSM   H13G13792   2.922   5.716   7.654 -0.0018  0.2005 -0.4495
  128OSM   C14F13793   3.095   5.754   7.776 -0.2682 -0.1750  0.0246
  128OSM   H14F13794   3.126   5.835   7.707  0.7231 -0.9317 -0.4369
  128OSM   H14G13795   3.191   5.713   7.812  0.3172  0.2079 -1.0627
  128OSM   C15F13796   3.028   5.825   7.897 -0.3773 -0.1585 -0.1636
  128OSM   H15F13797   2.952   5.896   7.857  1.5238  1.9777 -0.2034
  128OSM   H15G13798   3.117   5.871   7.946 -1.0334  0.9260  0.0426
  128OSM   C16F13799   2.954   5.736   7.997 -0.0389 -0.8978  0.0253
  128OSM   H16F13800   3.022   5.650   8.018  0.3807 -0.8889 -1.2026
  128OSM   H16G13801   2.855   5.703   7.959 -1.5772  1.6089  1.5938
  128OSM   C17F13802   2.933   5.811   8.141  0.1340  1.1306  0.8095
  128OSM   H17F13803   2.890   5.910   8.111 -0.6061 -0.2828 -3.4447
  128OSM   H17G13804   3.028   5.839   8.192 -0.0808  1.2341  1.1591
  128OSM   C18F13805   2.832   5.733   8.230 -0.2831 -0.8021 -0.8430
  128OSM   H18F13806   2.877   5.645   8.279 -1.4647 -0.7422  0.4043
  128OSM   H18G13807   2.751   5.701   8.161 -1.0084  0.7205 -0.7589
  128OSM   H18H13808   2.794   5.802   8.308  0.6879 -0.2886 -0.8110
  129OSM      N13809   1.396   3.080   5.929 -0.4625 -0.0845  0.3147
  129OSM    C1513810   1.393   3.201   6.016 -0.2232  0.9400 -0.3097
  129OSM   H15A13811   1.413   3.288   5.956  1.9858  0.9379  0.3456
  129OSM   H15B13812   1.474   3.194   6.087 -0.4723 -1.2493 -0.1574
  129OSM   H15C13813   1.304   3.209   6.077  0.9861  2.5058  1.3615
  129OSM    C1413814   1.296   3.111   5.819 -0.4251  0.5117 -0.1189
  129OSM   H14A13815   1.196   3.122   5.858 -0.4585 -1.5026  0.4458
  129OSM   H14B13816   1.306   3.044   5.735  4.3585  0.4428  0.2239
  129OSM   H14C13817   1.323   3.211   5.786  2.8708 -0.4131 -0.6592
  129OSM    C1313818   1.532   3.092   5.856  0.3730 -0.3035 -0.3311
  129OSM   H13A13819   1.533   3.021   5.775  0.5299 -0.8242  0.1266
  129OSM   H13B13820   1.611   3.077   5.927 -0.4280  2.8474  1.3860
  129OSM   H13C13821   1.547   3.179   5.794  0.6479 -2.3586 -3.3776
  129OSM    C1213822   1.370   2.945   5.996  0.2646 -0.5487 -0.2607
  129OSM   H12A13823   1.399   2.870   5.924 -0.4856  0.1781 -1.3548
  129OSM   H12B13824   1.263   2.936   6.013 -0.2163  1.4611 -1.9137
  129OSM    C1113825   1.445   2.912   6.126 -0.3575  0.3267 -0.1968
  129OSM   H11A13826   1.406   2.808   6.130 -0.5462  0.2990 -1.9839
  129OSM   H11B13827   1.409   2.980   6.205  1.2852  0.3945  0.5404
  129OSM      P13828   1.680   2.942   6.235 -0.1506 -0.0620 -0.5719
  129OSM    O1313829   1.783   2.836   6.250 -0.1709  0.5662 -0.2960
  129OSM    O1413830   1.726   3.085   6.235 -0.0323  0.4094 -0.0399
  129OSM    O1113831   1.583   2.915   6.354  0.2862  0.4376 -0.4411
  129OSM    O1213832   1.591   2.922   6.113 -0.3104 -0.6441  0.4760
  129OSM    C1S13833   1.610   2.950   6.493  0.6931  0.0761  0.7521
  129OSM    H1S13834   1.607   3.060   6.501 -2.4900  0.0406  1.2480
  129OSM    H1T13835   1.706   2.905   6.526 -0.2831 -2.3985  0.4617
  129OSM     NF13836   1.567   2.903   6.715  0.7740  0.3268  0.0605
  129OSM    HNF13837   1.617   2.821   6.741 -1.5219 -1.7166 -1.4513
  129OSM    C2S13838   1.500   2.886   6.581 -0.1606  0.1096  0.5315
  129OSM    H2S13839   1.401   2.936   6.579 -0.8002 -1.1276 -1.4399
  129OSM    C3S13840   1.474   2.729   6.548  0.0560  0.4201 -0.4295
  129OSM    H3S13841   1.577   2.685   6.546  0.3043  0.9255 -3.3343
  129OSM     O313842   1.413   2.705   6.426 -0.0337  0.3193  0.0429
  129OSM    HO313843   1.433   2.787   6.380 -1.3575  0.0170 -1.1429
  129OSM    C4S13844   1.389   2.662   6.656 -0.2624 -0.3163 -0.7375
  129OSM    H4S13845   1.448   2.631   6.743 -2.2659  0.5228  1.0148
  129OSM    C5S13846   1.256   2.653   6.665  0.4436 -0.4547  0.1678
  129OSM    H5S13847   1.194   2.703   6.589 -0.8177 -1.3276  0.6046
  129OSM    C6S13848   1.181   2.588   6.773 -0.8948 -0.7713 -0.1596
  129OSM    H6S13849   1.122   2.517   6.711 -1.3221 -0.2128 -0.4014
  129OSM    H6T13850   1.098   2.648   6.816  0.7821  1.4667  0.1338
  129OSM    C7S13851   1.248   2.502   6.879  0.4591 -0.2242 -0.1731
  129OSM    H7S13852   1.287   2.574   6.954 -0.3368  0.5388 -0.4634
  129OSM    H7T13853   1.324   2.448   6.819  1.4519 -0.3360  1.1501
  129OSM    C8S13854   1.155   2.401   6.940 -0.5739 -0.1092  0.2857
  129OSM    H8S13855   1.104   2.347   6.858 -0.3401 -0.1460  0.1647
  129OSM    H8T13856   1.065   2.448   6.985 -0.5675 -2.4215  2.9979
  129OSM    C9S13857   1.222   2.313   7.045  0.0094  0.1232  0.2017
  129OSM    H9S13858   1.332   2.311   7.029  0.0631  2.7216 -0.1237
  129OSM    H9T13859   1.177   2.212   7.059 -0.4866  0.3574  0.3184
  129OSM   C10S13860   1.209   2.391   7.180 -0.0246  0.2784  0.4793
  129OSM   H10S13861   1.126   2.465   7.175 -0.5563 -0.3782 -1.3607
  129OSM   H10T13862   1.306   2.445   7.193  0.4965 -0.4287 -0.3492
  129OSM   C11S13863   1.180   2.300   7.301 -0.2768  0.3667 -0.5412
  129OSM   H11S13864   1.090   2.240   7.278 -0.6725 -0.1877  2.1808
  129OSM   H11T13865   1.161   2.349   7.399  1.8004  1.3860 -0.5913
  129OSM   C12S13866   1.296   2.196   7.326 -0.9129 -0.7431 -0.1179
  129OSM   H12S13867   1.380   2.266   7.346 -0.9725 -0.2884 -1.3831
  129OSM   H12T13868   1.320   2.147   7.229 -0.9628  0.3249 -0.6848
  129OSM   C13S13869   1.273   2.097   7.441 -0.2182 -0.3961 -0.0024
  129OSM   H13S13870   1.331   2.006   7.418  0.2295 -0.8217  2.4996
  129OSM   H13T13871   1.163   2.086   7.440 -0.0487 -3.1611  1.7998
  129OSM   C14S13872   1.319   2.154   7.577  0.0225  0.2207  0.4716
  129OSM   H14S13873   1.290   2.261   7.589 -0.7223  0.0159  0.5426
  129OSM   H14T13874   1.429   2.139   7.576  0.2301  1.4165 -2.0978
  129OSM   C15S13875   1.282   2.077   7.707  0.4108  0.3237 -0.7268
  129OSM   H15S13876   1.278   1.966   7.705 -1.9537  0.2263  1.8987
  129OSM   H15T13877   1.177   2.106   7.731  0.3695 -0.6702  0.4092
  129OSM   C16S13878   1.378   2.115   7.823  0.4551 -0.0432  0.7593
  129OSM   H16S13879   1.410   2.222   7.825  2.0384 -0.4790  0.4211
  129OSM   H16T13880   1.475   2.068   7.795  1.0192  0.7026  1.4277
  129OSM   C17S13881   1.320   2.065   7.956 -0.4868 -0.1021  0.8065
  129OSM   H17S13882   1.293   1.960   7.934  0.0081  0.1826 -1.4008
  129OSM   H17T13883   1.227   2.125   7.965 -0.1599  0.6778 -0.7776
  129OSM   C18S13884   1.418   2.079   8.075  0.6213  0.0481 -0.6038
  129OSM   H18S13885   1.460   2.182   8.066  0.4556  0.2069  0.3675
  129OSM   H18T13886   1.499   2.003   8.068  0.4129 -0.2585  0.1841
  129OSM   H18U13887   1.357   2.061   8.166  0.2068  0.9888 -0.6886
  129OSM    C1F13888   1.587   3.011   6.783 -0.6520 -0.4370 -0.5628
  129OSM     OF13889   1.543   3.119   6.746 -0.0696 -0.4581 -0.5309
  129OSM    C2F13890   1.682   2.990   6.903 -0.0971  0.1529  0.3496
  129OSM    H2F13891   1.785   2.982   6.862  0.1434  2.3499  0.3699
  129OSM    H2G13892   1.649   2.900   6.958  0.5131  0.3834  1.1094
  129OSM    C3F13893   1.678   3.109   7.000  0.2245 -0.4690 -0.2484
  129OSM    H3F13894   1.575   3.121   7.041 -0.4299  0.1787 -1.9524
  129OSM    H3G13895   1.700   3.204   6.947 -0.4101 -0.1140  0.1099
  129OSM    C4F13896   1.757   3.082   7.133  0.0044  0.4586 -0.0991
  129OSM    H4F13897   1.861   3.048   7.111 -0.8246 -0.7722 -2.4401
  129OSM    H4G13898   1.706   2.997   7.183 -0.8081  1.1463  0.2520
  129OSM    C5F13899   1.753   3.212   7.211  0.2226 -0.4159 -0.0660
  129OSM    H5F13900   1.653   3.256   7.187  0.2491 -0.9811 -1.2866
  129OSM    H5G13901   1.832   3.275   7.166  0.9289 -2.2902 -1.5924
  129OSM    C6F13902   1.762   3.200   7.365 -0.5242  0.5783 -0.7405
  129OSM    H6F13903   1.784   3.300   7.409  2.4152 -0.5471  0.6613
  129OSM    H6G13904   1.855   3.144   7.388 -0.8664  0.8773  1.7032
  129OSM    C7F13905   1.639   3.125   7.423  0.3700  0.3806 -0.1234
  129OSM    H7F13906   1.633   3.018   7.393 -0.3784  0.3506  0.1193
  129OSM    H7G13907   1.552   3.184   7.388  1.7026  2.4207 -0.1234
  129OSM    C8F13908   1.628   3.119   7.577  0.2685 -0.7329 -0.2810
  129OSM    H8F13909   1.530   3.078   7.608  0.2283  1.0050  2.2196
  129OSM    H8G13910   1.630   3.224   7.615 -1.4477  0.0057 -2.0661
  129OSM    C9F13911   1.735   3.035   7.637  0.0916  0.4344 -0.1055
  129OSM    H9F13912   1.798   2.973   7.572  2.6397  1.3210  1.3664
  129OSM   C10F13913   1.773   3.031   7.767  0.0295  0.4683 -0.5229
  129OSM   H10F13914   1.871   2.988   7.792  0.0204  0.1201 -1.0742
  129OSM   C11F13915   1.716   3.098   7.883 -0.0136 -0.2702  0.1398
  129OSM   H11F13916   1.613   3.131   7.856 -0.0792 -0.1448  0.5390
  129OSM   H11G13917   1.787   3.181   7.905  0.5436  1.2054 -5.5952
  129OSM   C12F13918   1.708   3.015   8.014 -0.0069 -0.3900  0.2994
  129OSM   H12F13919   1.691   3.079   8.103 -2.0095 -0.2784 -0.1209
  129OSM   H12G13920   1.803   2.965   8.042  0.0385 -0.2712  0.3611
  129OSM   C13F13921   1.585   2.920   8.021 -0.2841  0.7218 -1.0154
  129OSM   H13F13922   1.584   2.847   7.938 -3.0286 -0.1386 -0.3251
  129OSM   H13G13923   1.494   2.982   8.006 -0.2729  1.1137  0.3457
  129OSM   C14F13924   1.573   2.840   8.161 -0.4190 -0.3648  0.2301
  129OSM   H14F13925   1.474   2.789   8.159 -0.5049 -0.2105 -2.2142
  129OSM   H14G13926   1.566   2.912   8.245  0.0532 -1.0000  0.8205
  129OSM   C15F13927   1.680   2.737   8.188  0.5099 -0.3507  0.0934
  129OSM   H15F13928   1.784   2.776   8.179  0.6980 -0.9413 -0.3460
  129OSM   H15G13929   1.661   2.661   8.110 -2.9124  0.6555 -0.1879
  129OSM   C16F13930   1.664   2.665   8.323 -0.4258 -0.2913  0.6807
  129OSM   H16F13931   1.721   2.570   8.322 -1.6317 -1.0586 -1.2187
  129OSM   H16G13932   1.555   2.642   8.324 -0.5269 -0.0335 -1.2422
  129OSM   C17F13933   1.710   2.745   8.445 -0.0571  0.8208  0.2498
  129OSM   H17F13934   1.644   2.834   8.455  2.2415  2.5139  1.4232
  129OSM   H17G13935   1.811   2.784   8.420  0.6183 -1.8111 -1.4982
  129OSM   C18F13936   1.720   2.671   8.578  0.1091  0.9655  0.4250
  129OSM   H18F13937   1.796   2.591   8.574  2.7439  3.3312  0.2174
  129OSM   H18G13938   1.624   2.627   8.614 -0.4439  1.1232 -0.8121
  129OSM   H18H13939   1.751   2.747   8.653  0.1137  0.7635  0.6288
  130OSM      N13940   4.725   4.155   6.286 -0.8203  0.1097  0.3958
  130OSM    C1513941   4.704   4.022   6.356  0.0756  0.0494  0.4744
  130OSM   H15A13942   4.678   3.951   6.280  0.8404  0.5581 -0.2794
  130OSM   H15B13943   4.617   4.036   6.419 -0.1402  0.5744  0.0683
  130OSM   H15C13944   4.780   3.985   6.423  1.4391  1.3207 -0.3113
  130OSM    C1413945   4.816   4.141   6.158  0.3585  0.7661 -0.5589
  130OSM   H14A13946   4.909   4.100   6.193  0.9608  0.6755 -2.1743
  130OSM   H14B13947   4.817   4.240   6.114 -0.1741  0.7362 -0.6523
  130OSM   H14C13948   4.774   4.075   6.083  0.0114 -0.5035  0.7103
  130OSM    C1313949   4.596   4.212   6.245  0.0105  0.3200 -0.5995
  130OSM   H13A13950   4.543   4.163   6.164 -1.1795  0.5586  0.0038
  130OSM   H13B13951   4.601   4.318   6.223  0.1133  1.2638  3.2795
  130OSM   H13C13952   4.527   4.208   6.328 -0.1091 -0.8287 -0.7424
  130OSM    C1213953   4.806   4.239   6.377  0.1337  0.6310  0.0737
  130OSM   H12A13954   4.886   4.176   6.412 -1.3939 -1.2899  0.2544
  130OSM   H12B13955   4.748   4.258   6.466 -1.0397  1.6795 -0.8725
  130OSM    C1113956   4.872   4.374   6.331  0.1950  0.1690 -0.1961
  130OSM   H11A13957   4.954   4.357   6.258 -0.3206  1.9170 -1.2236
  130OSM   H11B13958   4.928   4.417   6.417  2.2640 -2.0243 -0.3168
  130OSM      P13959   4.672   4.546   6.352  0.1313 -0.0744 -0.1171
  130OSM    O1313960   4.565   4.595   6.266  0.1309  0.2198 -0.2506
  130OSM    O1413961   4.630   4.476   6.474  0.4272  0.5996  0.2416
  130OSM    O1113962   4.764   4.662   6.400 -0.4209  0.2999  0.4704
  130OSM    O1213963   4.778   4.463   6.267 -0.8111 -0.2596  0.6447
  130OSM    C1S13964   4.731   4.741   6.512 -0.0079  0.3648  0.7788
  130OSM    H1S13965   4.638   4.720   6.570 -0.0327  2.5464  1.6479
  130OSM    H1T13966   4.716   4.847   6.482 -0.6630  0.2109  0.5444
  130OSM     NF13967   4.824   4.791   6.734 -0.0663  0.0596 -0.8232
  130OSM    HNF13968   4.838   4.889   6.747 -0.1970  0.1600 -1.3861
  130OSM    C2S13969   4.851   4.727   6.609 -0.1457  0.1255  0.2833
  130OSM    H2S13970   4.868   4.620   6.634  1.9649  0.1642 -0.7940
  130OSM    C3S13971   4.973   4.792   6.543  0.1578 -0.1001  0.5627
  130OSM    H3S13972   4.947   4.897   6.518  0.7648 -0.1273 -0.2111
  130OSM     O313973   5.016   4.730   6.423 -0.5132 -0.1270 -0.3199
  130OSM    HO313974   4.945   4.673   6.391 -1.0620  1.4158 -2.0148
  130OSM    C4S13975   5.092   4.785   6.632  0.0490  0.1628 -0.2599
  130OSM    H4S13976   5.085   4.696   6.697 -1.1758  0.8044  0.5190
  130OSM    C5S13977   5.204   4.856   6.640 -0.1632  0.2636 -0.5237
  130OSM    H5S13978   5.225   4.931   6.562  0.0711 -0.1525 -0.8663
  130OSM    C6S13979   5.304   4.825   6.746  0.2198 -0.0969  0.1125
  130OSM    H6S13980   5.369   4.909   6.776  1.0308 -1.6651  3.1844
  130OSM    H6T13981   5.361   4.736   6.711 -0.7093 -1.3966  1.7073
  130OSM    C7S13982   5.245   4.790   6.883  0.0402 -0.9183  0.2071
  130OSM    H7S13983   5.328   4.764   6.952 -0.1085 -1.4244  0.2037
  130OSM    H7T13984   5.179   4.701   6.875 -0.6660 -0.4023  0.2009
  130OSM    C8S13985   5.160   4.896   6.962  0.0500  0.3081 -0.3286
  130OSM    H8S13986   5.070   4.914   6.900 -0.6483 -0.6444  0.3716
  130OSM    H8T13987   5.220   4.989   6.970  1.4941 -0.4140 -1.9632
  130OSM    C9S13988   5.117   4.854   7.111 -0.2128 -0.6063  0.3717
  130OSM    H9S13989   5.066   4.755   7.113 -1.0922 -0.2427 -1.3971
  130OSM    H9T13990   5.029   4.916   7.140  0.6337 -0.5864  3.1466
  130OSM   C10S13991   5.230   4.871   7.219 -0.1639  0.0520  0.0212
  130OSM   H10S13992   5.268   4.975   7.226 -0.5760  0.1671  0.6309
  130OSM   H10T13993   5.308   4.797   7.189 -0.8905 -1.0972  0.8664
  130OSM   C11S13994   5.158   4.822   7.348 -0.1228 -0.0214 -0.2138
  130OSM   H11S13995   5.128   4.717   7.330  1.5563 -0.7942  1.2131
  130OSM   H11T13996   5.067   4.887   7.352  0.0221  0.1860 -0.2276
  130OSM   C12S13997   5.244   4.851   7.468  0.3700 -0.1102 -0.4414
  130OSM   H12S13998   5.267   4.960   7.475 -1.1377  0.1722  0.6991
  130OSM   H12T13999   5.338   4.793   7.462  1.5232  1.7710 -1.3214
  130OSM   C13S14000   5.170   4.808   7.595 -0.1904 -0.1099  0.7666
  130OSM   H13S14001   5.175   4.697   7.599  1.8096 -0.1364 -0.7397
  130OSM   H13T14002   5.065   4.841   7.599 -0.1960  0.0997 -0.6458
  130OSM   C14S14003   5.246   4.852   7.721 -0.7274  0.0009 -0.2020
  130OSM   H14S14004   5.261   4.962   7.727 -0.0914 -0.1227  0.5303
  130OSM   H14T14005   5.352   4.824   7.698 -0.4628  0.5099  0.3664
  130OSM   C15S14006   5.180   4.816   7.848  0.0558  0.1410 -0.2652
  130OSM   H15S14007   5.160   4.706   7.851  0.3752  0.0434  3.0985
  130OSM   H15T14008   5.078   4.859   7.843  0.2243  0.4926 -0.7115
  130OSM   C16S14009   5.270   4.848   7.971  0.0600  0.0669 -0.2591
  130OSM   H16S14010   5.268   4.957   7.992  0.6766  0.1358 -0.5337
  130OSM   H16T14011   5.374   4.827   7.938 -0.7264 -2.7127 -1.3218
  130OSM   C17S14012   5.247   4.764   8.093  0.4308 -0.6212  0.0343
  130OSM   H17S14013   5.245   4.655   8.073 -2.4300 -0.7141  0.4850
  130OSM   H17T14014   5.160   4.792   8.156  0.6195 -0.7273  0.3460
  130OSM   C18S14015   5.361   4.780   8.190  0.0232  0.2364  0.2349
  130OSM   H18S14016   5.453   4.744   8.138  0.9478  1.9957  0.5626
  130OSM   H18T14017   5.345   4.724   8.285 -2.4138 -2.8476 -1.8118
  130OSM   H18U14018   5.379   4.887   8.214  0.3051  0.3282 -0.3637
  130OSM    C1F14019   4.751   4.743   6.835 -0.6344 -0.0116  1.0213
  130OSM     OF14020   4.678   4.644   6.822 -0.0964  0.3789  0.3943
  130OSM    C2F14021   4.771   4.814   6.962  0.8073  0.3462  0.1368
  130OSM    H2F14022   4.810   4.916   6.941  0.3071  0.8380  1.4527
  130OSM    H2G14023   4.843   4.764   7.030 -0.1883 -2.5414 -0.8164
  130OSM    C3F14024   4.641   4.827   7.035 -0.0567  0.1458  0.2412
  130OSM    H3F14025   4.594   4.728   7.058  0.8103  0.2659  2.7791
  130OSM    H3G14026   4.578   4.892   6.971  0.8952 -0.3830 -1.2970
  130OSM    C4F14027   4.653   4.898   7.165  0.2947  0.0676 -0.3961
  130OSM    H4F14028   4.550   4.904   7.206  0.2334  0.3370 -0.5869
  130OSM    H4G14029   4.694   5.001   7.153 -0.3439  0.4620  0.6252
  130OSM    C5F14030   4.721   4.824   7.281 -0.2415 -0.2152 -0.2292
  130OSM    H5F14031   4.830   4.808   7.264 -0.4135 -1.6725 -0.0301
  130OSM    H5G14032   4.673   4.725   7.293 -0.8841  0.2827  1.6638
  130OSM    C6F14033   4.694   4.877   7.423 -0.4056 -0.9474  0.3172
  130OSM    H6F14034   4.584   4.880   7.438 -0.4719 -0.7416 -0.1728
  130OSM    H6G14035   4.736   4.979   7.430 -1.7557 -0.3632  0.0859
  130OSM    C7F14036   4.755   4.793   7.538  0.4264  0.0224 -0.2632
  130OSM    H7F14037   4.864   4.784   7.523  0.7952  0.7955  1.7367
  130OSM    H7G14038   4.705   4.693   7.534 -0.6137  0.4118  1.8587
  130OSM    C8F14039   4.746   4.855   7.677 -0.2555  0.3079 -0.2384
  130OSM    H8F14040   4.639   4.884   7.682 -0.7563 -0.6921 -3.0430
  130OSM    H8G14041   4.807   4.946   7.695 -1.1313  0.9964 -0.6931
  130OSM    C9F14042   4.772   4.751   7.777  0.6725  0.0309 -0.3557
  130OSM    H9F14043   4.793   4.652   7.734 -0.2790 -0.3165 -0.0448
  130OSM   C10F14044   4.768   4.762   7.908 -0.2761  0.3727 -0.1194
  130OSM   H10F14045   4.783   4.674   7.973  1.8486  0.1505 -0.8337
  130OSM   C11F14046   4.741   4.894   7.987 -0.7536 -0.5400  0.8367
  130OSM   H11F14047   4.736   4.982   7.919 -0.9328 -1.3454 -0.2198
  130OSM   H11G14048   4.834   4.928   8.038 -0.3538  0.3271 -0.4421
  130OSM   C12F14049   4.611   4.896   8.066 -0.0375 -0.0603  0.7070
  130OSM   H12F14050   4.598   4.826   8.151 -3.6509 -0.6235 -0.1561
  130OSM   H12G14051   4.527   4.877   7.997  0.2729  0.5402  0.1515
  130OSM   C13F14052   4.579   5.039   8.118 -0.0284  0.3236  0.3368
  130OSM   H13F14053   4.555   5.108   8.035  0.4121  2.0461  1.5727
  130OSM   H13G14054   4.668   5.091   8.160 -1.3458  3.5886 -0.6038
  130OSM   C14F14055   4.464   5.048   8.224  0.0116  0.1402 -0.7385
  130OSM   H14F14056   4.511   5.017   8.320 -1.1425 -2.6524 -0.9823
  130OSM   H14G14057   4.389   4.969   8.205  0.3588 -0.3235 -0.2440
  130OSM   C15F14058   4.400   5.189   8.212 -0.4587  0.6663 -0.4104
  130OSM   H15F14059   4.329   5.191   8.298  1.3325  1.0967  1.1293
  130OSM   H15G14060   4.355   5.196   8.111  0.7276 -1.9853 -1.2141
  130OSM   C16F14061   4.499   5.299   8.241 -0.0996  0.0764 -0.3912
  130OSM   H16F14062   4.552   5.321   8.146 -2.1682 -0.2791 -1.7195
  130OSM   H16G14063   4.575   5.266   8.315 -0.5033 -2.3935 -0.9976
  130OSM   C17F14064   4.429   5.433   8.275  0.4532  0.4110  0.4836
  130OSM   H17F14065   4.374   5.417   8.370  0.1281 -2.0298 -0.0521
  130OSM   H17G14066   4.358   5.448   8.190 -0.2775  1.2727  1.2273
  130OSM   C18F14067   4.514   5.557   8.274 -0.4020 -0.3719  0.3365
  130OSM   H18F14068   4.526   5.593   8.170  0.7293  1.4382  1.0643
  130OSM   H18G14069   4.616   5.532   8.309  0.1912  0.0825 -0.9817
  130OSM   H18H14070   4.463   5.632   8.338  1.3916  0.1372  1.2022
  131OSM      N14071   1.689   6.685   5.698  0.3026  0.0106  0.1024
  131OSM    C1514072   1.561   6.605   5.687 -0.2613 -0.1963 -0.4851
  131OSM   H15A14073   1.575   6.503   5.719 -1.1513  0.7427  3.5278
  131OSM   H15B14074   1.509   6.614   5.593 -0.4150 -0.9681 -0.4830
  131OSM   H15C14075   1.479   6.640   5.747  0.8725  0.3000  0.8314
  131OSM    C1414076   1.793   6.620   5.610 -0.8548  0.1360 -0.7928
  131OSM   H14A14077   1.803   6.524   5.658 -3.0611 -0.1175 -0.7497
  131OSM   H14B14078   1.883   6.678   5.624 -0.1417 -0.5081 -2.4846
  131OSM   H14C14079   1.762   6.614   5.507 -1.6562 -0.7191 -0.5152
  131OSM    C1314080   1.668   6.831   5.650 -0.4788 -0.0039 -0.4234
  131OSM   H13A14081   1.574   6.869   5.687  0.0295 -0.3511  1.3287
  131OSM   H13B14082   1.674   6.848   5.544 -1.2557  0.4752 -0.4010
  131OSM   H13C14083   1.753   6.887   5.687 -0.9138  0.9376 -0.8149
  131OSM    C1214084   1.733   6.687   5.843  0.4308  0.4292 -0.0839
  131OSM   H12A14085   1.766   6.588   5.868 -1.2950 -0.1679  0.0102
  131OSM   H12B14086   1.649   6.709   5.907 -0.2871  1.5932 -1.3504
  131OSM    C1114087   1.853   6.783   5.865  0.5056  0.7916  0.0848
  131OSM   H11A14088   1.938   6.753   5.800  0.8056 -1.6281  1.4910
  131OSM   H11B14089   1.894   6.752   5.963 -0.7680 -0.9785  0.1034
  131OSM      P14090   1.751   7.012   5.963  0.0719  0.0905  0.1697
  131OSM    O1314091   1.846   7.084   6.048  0.0273 -0.4943  0.0951
  131OSM    O1414092   1.653   7.103   5.892 -0.0380  0.4266 -0.1975
  131OSM    O1114093   1.674   6.906   6.052  0.0770 -0.0085  0.4245
  131OSM    O1214094   1.828   6.926   5.853 -0.1282  0.0996  0.2902
  131OSM    C1S14095   1.732   6.858   6.171  0.3174  0.1342 -0.1037
  131OSM    H1S14096   1.843   6.867   6.178  0.1292  1.3143  2.2207
  131OSM    H1T14097   1.703   6.752   6.181 -1.6805  0.7083  0.6673
  131OSM     NF14098   1.715   6.877   6.424 -0.1762 -0.1323  0.6950
  131OSM    HNF14099   1.650   6.818   6.471  0.2949 -1.8906 -0.7950
  131OSM    C2S14100   1.668   6.932   6.296  0.0891  0.2077  0.3427
  131OSM    H2S14101   1.693   7.039   6.282 -1.8917  0.8289  1.1826
  131OSM    C3S14102   1.515   6.936   6.284  0.6740  0.3952 -0.5727
  131OSM    H3S14103   1.474   6.833   6.279  2.6656 -0.4785  0.1016
  131OSM     O314104   1.472   6.999   6.164 -0.1892  0.4589  0.0086
  131OSM    HO314105   1.558   6.996   6.122  2.3075  0.5626  4.4766
  131OSM    C4S14106   1.467   7.006   6.411  0.1874  0.2485  0.1416
  131OSM    H4S14107   1.530   7.080   6.462  0.1463  0.9483 -0.8031
  131OSM    C5S14108   1.347   6.976   6.470 -0.0938 -0.0825  0.0730
  131OSM    H5S14109   1.292   6.891   6.425  0.3767 -0.4705  0.2217
  131OSM    C6S14110   1.302   7.043   6.595  0.1899  0.7533 -0.0609
  131OSM    H6S14111   1.206   7.098   6.580 -1.3609 -0.8345  3.0389
  131OSM    H6T14112   1.375   7.111   6.645  0.8621  1.2143 -1.6176
  131OSM    C7S14113   1.264   6.951   6.710 -0.0100  1.4702 -0.4332
  131OSM    H7S14114   1.197   6.872   6.669  1.6826 -1.0724  1.4008
  131OSM    H7T14115   1.205   7.004   6.788 -0.1636 -2.4028  2.3793
  131OSM    C8S14116   1.377   6.871   6.776 -0.0592  0.8003 -0.6349
  131OSM    H8S14117   1.396   6.777   6.722  0.8852  0.9464 -0.5760
  131OSM    H8T14118   1.328   6.826   6.865  0.3027  0.5790 -0.5432
  131OSM    C9S14119   1.504   6.939   6.832 -0.3858  0.2300 -0.0359
  131OSM    H9S14120   1.558   6.992   6.751 -1.6274  0.9266 -0.4433
  131OSM    H9T14121   1.569   6.861   6.877 -0.7640 -0.5603 -0.8397
  131OSM   C10S14122   1.476   7.034   6.949 -0.9497 -0.0538  0.7865
  131OSM   H10S14123   1.397   7.106   6.919  0.3952  0.3542 -2.1203
  131OSM   H10T14124   1.561   7.098   6.982 -2.7191  2.9620 -0.0968
  131OSM   C11S14125   1.431   6.965   7.072  0.2758  0.5784  0.2171
  131OSM   H11S14126   1.513   6.912   7.124  0.3654  0.7030  0.2062
  131OSM   H11T14127   1.348   6.898   7.045  1.4644 -0.8680  0.0443
  131OSM   C12S14128   1.393   7.071   7.178  0.8267  0.6970 -0.0513
  131OSM   H12S14129   1.324   7.145   7.132 -0.1840  0.0056  0.3126
  131OSM   H12T14130   1.481   7.132   7.207  0.4408  1.1313  0.2164
  131OSM   C13S14131   1.326   7.015   7.308 -0.5105 -0.3391 -0.3531
  131OSM   H13S14132   1.241   6.951   7.275  1.6697 -1.9556 -3.3378
  131OSM   H13T14133   1.282   7.104   7.357  1.5931  0.8617 -0.5270
  131OSM   C14S14134   1.420   6.939   7.400  0.7975  0.0560 -0.2210
  131OSM   H14S14135   1.501   7.006   7.437  2.0767 -1.5075 -0.0541
  131OSM   H14T14136   1.454   6.850   7.344 -0.2355 -0.7208  0.3549
  131OSM   C15S14137   1.342   6.874   7.529  0.1118 -0.1857 -0.8305
  131OSM   H15S14138   1.298   6.776   7.500  1.0706 -1.0372  0.4818
  131OSM   H15T14139   1.260   6.942   7.559  1.3561  1.0861 -0.2047
  131OSM   C16S14140   1.437   6.843   7.654  0.1346 -0.1977  0.8646
  131OSM   H16S14141   1.525   6.789   7.613 -0.0887 -0.3600  0.5979
  131OSM   H16T14142   1.387   6.776   7.727 -2.3195  0.0952 -0.4541
  131OSM   C17S14143   1.490   6.965   7.725 -0.1596 -0.4919 -0.1081
  131OSM   H17S14144   1.424   7.007   7.804  0.8606  0.9449  0.0220
  131OSM   H17T14145   1.511   7.045   7.650  0.0868 -0.4144  0.0425
  131OSM   C18S14146   1.630   6.930   7.794 -0.6783 -0.0798  0.7275
  131OSM   H18S14147   1.624   6.836   7.853 -0.3458 -0.1154  0.7087
  131OSM   H18T14148   1.674   7.009   7.858  2.6261 -0.6301 -0.6559
  131OSM   H18U14149   1.696   6.907   7.707 -2.5609  0.7055 -0.9948
  131OSM    C1F14150   1.845   6.894   6.467  0.5811  0.2881 -0.0570
  131OSM     OF14151   1.924   6.968   6.409 -0.3012  0.6011  0.0362
  131OSM    C2F14152   1.872   6.831   6.598  0.4897  0.5668 -0.6917
  131OSM    H2F14153   1.938   6.743   6.586 -0.9332 -0.2342 -3.5576
  131OSM    H2G14154   1.771   6.803   6.634  0.5246  1.9192  0.5705
  131OSM    C3F14155   1.936   6.936   6.691  0.9312 -0.1370 -0.2250
  131OSM    H3F14156   1.875   7.029   6.682  1.8095  0.3323 -1.7647
  131OSM    H3G14157   2.041   6.961   6.663  1.3396  1.2819  2.2850
  131OSM    C4F14158   1.932   6.890   6.837  0.5692  0.1565  0.1371
  131OSM    H4F14159   2.011   6.812   6.844  2.1837  1.4610 -2.0855
  131OSM    H4G14160   1.833   6.840   6.848  0.3208  0.0905 -2.0138
  131OSM    C5F14161   1.935   6.995   6.941  0.3679  0.5786 -0.0715
  131OSM    H5F14162   1.909   6.941   7.034 -2.3830  0.8919 -0.5682
  131OSM    H5G14163   1.852   7.068   6.929  0.6569  1.1970  1.4748
  131OSM    C6F14164   2.060   7.085   6.953  0.0537 -0.0095  0.7329
  131OSM    H6F14165   2.036   7.142   7.046 -1.8686  0.8880 -0.2608
  131OSM    H6G14166   2.075   7.146   6.862  1.9313  1.3725  1.9142
  131OSM    C7F14167   2.188   7.004   6.972 -0.1431 -0.1705  0.0441
  131OSM    H7F14168   2.216   6.952   6.878 -1.9269 -1.2064  0.0594
  131OSM    H7G14169   2.177   6.921   7.045 -0.9814  0.7326  0.9846
  131OSM    C8F14170   2.298   7.099   7.026 -1.0691  0.2011 -0.8716
  131OSM    H8F14171   2.281   7.135   7.129  2.1030  2.1091 -0.8961
  131OSM    H8G14172   2.301   7.186   6.957  0.3596  2.5531  1.9596
  131OSM    C9F14173   2.432   7.029   7.001  0.0164  0.6860  0.0550
  131OSM    H9F14174   2.452   7.010   6.895 -1.4597 -0.3656 -0.0595
  131OSM   C10F14175   2.520   7.000   7.098 -0.1885  0.3816 -0.0462
  131OSM   H10F14176   2.617   6.969   7.056 -0.0216 -0.5066  0.9736
  131OSM   C11F14177   2.496   7.022   7.244  0.1988  0.4514 -0.3149
  131OSM   H11F14178   2.395   7.062   7.266  1.1037  2.3536  0.6342
  131OSM   H11G14179   2.564   7.105   7.274  1.2088 -0.5817  0.3695
  131OSM   C12F14180   2.521   6.898   7.332 -0.2087  0.2468 -0.0580
  131OSM   H12F14181   2.627   6.874   7.314  0.3824  1.5482  1.4078
  131OSM   H12G14182   2.447   6.819   7.305 -0.3213 -0.3855  1.8730
  131OSM   C13F14183   2.509   6.925   7.488  0.0164  0.4123  0.1621
  131OSM   H13F14184   2.497   6.823   7.532  0.7310 -0.8346 -2.3492
  131OSM   H13G14185   2.406   6.964   7.504  0.3975  1.0964  1.0020
  131OSM   C14F14186   2.626   7.001   7.559  0.6066 -0.4392  0.2287
  131OSM   H14F14187   2.608   7.106   7.528 -0.7492 -0.8678 -0.5084
  131OSM   H14G14188   2.724   6.958   7.529  0.8358  0.7922 -0.8427
  131OSM   C15F14189   2.614   7.006   7.714  0.5387  0.0956  0.3450
  131OSM   H15F14190   2.704   7.055   7.757  1.3500 -1.1320  0.1011
  131OSM   H15G14191   2.602   6.903   7.753 -2.5321  0.2975  0.2198
  131OSM   C16F14192   2.485   7.076   7.763  0.3972 -0.2373 -0.5734
  131OSM   H16F14193   2.404   7.011   7.725  0.0545  0.5404 -1.1854
  131OSM   H16G14194   2.481   7.179   7.722  0.3286 -0.2369 -0.5646
  131OSM   C17F14195   2.490   7.089   7.919  0.4159  0.1401  0.1057
  131OSM   H17F14196   2.394   7.135   7.953  0.4831 -0.6830  1.4846
  131OSM   H17G14197   2.575   7.153   7.952 -0.0315 -0.1852  2.0417
  131OSM   C18F14198   2.511   6.957   7.994  0.4162  0.8135  0.4343
  131OSM   H18F14199   2.457   6.880   7.935  3.0089  2.0613 -4.0400
  131OSM   H18G14200   2.468   6.964   8.096  1.5070 -2.2299  1.1990
  131OSM   H18H14201   2.620   6.935   7.990  0.5236  1.0632  1.6438
  132OSM      N14202   4.657   2.512   6.240  0.0009  0.0494 -0.2938
  132OSM    C1514203   4.784   2.476   6.306  0.7991  0.3267  0.4752
  132OSM   H15A14204   4.780   2.384   6.362  0.0964  1.1788  1.8709
  132OSM   H15B14205   4.813   2.558   6.370 -0.8651  1.0673  0.3220
  132OSM   H15C14206   4.858   2.462   6.228 -1.6043  0.0502 -1.8866
  132OSM    C1414207   4.677   2.646   6.166 -0.4365  0.0314 -0.5460
  132OSM   H14A14208   4.584   2.690   6.132  0.5201  1.2692 -1.7343
  132OSM   H14B14209   4.735   2.624   6.077  3.2080  2.3415  1.0262
  132OSM   H14C14210   4.732   2.715   6.228 -0.3255  0.2366 -0.8703
  132OSM    C1314211   4.613   2.420   6.132  0.6772 -0.1719  0.4279
  132OSM   H13A14212   4.682   2.422   6.049 -1.2042  0.6381 -1.1923
  132OSM   H13B14213   4.518   2.445   6.087  1.1247  1.7033  0.4489
  132OSM   H13C14214   4.609   2.322   6.177 -0.0099 -0.6014 -0.5452
  132OSM    C1214215   4.556   2.515   6.346 -0.2580  0.2339 -0.1743
  132OSM   H12A14216   4.589   2.582   6.424 -0.8173 -1.3339  1.4715
  132OSM   H12B14217   4.553   2.419   6.393 -0.0438  0.7670  0.9568
  132OSM    C1114218   4.415   2.575   6.313  0.6238  0.1254  0.7670
  132OSM   H11A14219   4.338   2.572   6.393 -0.6797  1.5059 -0.3679
  132OSM   H11B14220   4.368   2.516   6.231 -0.4370  0.9919  0.7220
  132OSM      P14221   4.385   2.840   6.352  0.3165 -0.3034 -0.1772
  132OSM    O1314222   4.502   2.879   6.433  0.5583 -0.3982 -0.2286
  132OSM    O1414223   4.328   2.937   6.255 -0.0629 -0.1167  0.4547
  132OSM    O1114224   4.265   2.794   6.447  0.0934  0.3069 -0.1901
  132OSM    O1214225   4.418   2.708   6.271 -0.2403  0.5430  0.4521
  132OSM    C1S14226   4.201   2.898   6.522  0.2965 -0.3592 -0.5565
  132OSM    H1S14227   4.142   2.962   6.452 -0.0464  0.0474  0.0893
  132OSM    H1T14228   4.270   2.965   6.578 -0.3375 -0.4326  0.3262
  132OSM     NF14229   4.051   2.951   6.704 -0.2045 -0.4614 -0.2903
  132OSM    HNF14230   4.076   2.955   6.801  1.7263  0.2607 -0.7695
  132OSM    C2S14231   4.102   2.842   6.629  0.0852  0.6058  0.1711
  132OSM    H2S14232   4.013   2.790   6.586  1.6209 -3.8965  1.8102
  132OSM    C3S14233   4.156   2.721   6.722  0.2899 -0.7631 -0.6102
  132OSM    H3S14234   4.251   2.760   6.763 -0.4959  0.1896  0.3524
  132OSM     O314235   4.164   2.611   6.637 -0.6668  0.3380  0.2005
  132OSM    HO314236   4.160   2.646   6.548 -0.4493 -0.8368 -0.2771
  132OSM    C4S14237   4.068   2.672   6.839  0.7097  0.2395  0.2662
  132OSM    H4S14238   3.982   2.611   6.806 -0.0267  1.4218 -0.0543
  132OSM    C5S14239   4.093   2.685   6.971  0.5139  0.0243  0.2683
  132OSM    H5S14240   4.186   2.737   7.000 -1.1068  2.6292  1.1492
  132OSM    C6S14241   4.005   2.645   7.086  0.5289  0.7305 -0.7848
  132OSM    H6S14242   3.902   2.616   7.056  1.1528 -0.2998 -2.0404
  132OSM    H6T14243   3.981   2.727   7.157  1.0979 -0.3713  0.7300
  132OSM    C7S14244   4.069   2.551   7.188  0.5909  0.0217  0.2896
  132OSM    H7S14245   4.172   2.578   7.220 -0.4481  1.5247  2.7439
  132OSM    H7T14246   4.072   2.454   7.135 -0.2938  0.6513 -0.9751
  132OSM    C8S14247   3.987   2.544   7.326  0.0830  0.5680 -0.0388
  132OSM    H8S14248   4.019   2.447   7.370 -0.6350  0.1235 -0.4847
  132OSM    H8T14249   3.878   2.543   7.304  0.1127  3.9626 -0.8433
  132OSM    C9S14250   4.022   2.646   7.436 -0.5642 -0.2008  0.0991
  132OSM    H9S14251   3.943   2.722   7.455  0.2612  0.2318  2.0553
  132OSM    H9T14252   4.119   2.691   7.407 -1.2464  1.8880  0.8822
  132OSM   C10S14253   4.055   2.583   7.576  0.7986  0.2234 -0.6486
  132OSM   H10S14254   4.067   2.677   7.634 -0.4804 -0.7968  1.3673
  132OSM   H10T14255   4.151   2.526   7.576  1.6253  1.2098  3.7040
  132OSM   C11S14256   3.948   2.512   7.654 -0.3060  0.4611 -0.0852
  132OSM   H11S14257   3.922   2.411   7.615  1.4329  0.2900 -0.9556
  132OSM   H11T14258   3.863   2.583   7.646 -1.2446 -0.7793 -2.0081
  132OSM   C12S14259   4.000   2.482   7.797  0.0927 -0.1049 -0.4032
  132OSM   H12S14260   4.061   2.566   7.837  2.3314 -2.1924  0.8611
  132OSM   H12T14261   4.059   2.388   7.792  0.0603 -0.1614  0.1574
  132OSM   C13S14262   3.877   2.449   7.897 -0.9256 -0.6893  0.1349
  132OSM   H13S14263   3.837   2.355   7.854 -0.5750 -1.0830  0.6422
  132OSM   H13T14264   3.802   2.531   7.899  0.3098  0.4954  2.2553
  132OSM   C14S14265   3.928   2.422   8.039 -0.1873  0.1223 -0.5163
  132OSM   H14S14266   4.035   2.394   8.043  0.3882  2.1117 -0.8805
  132OSM   H14T14267   3.871   2.334   8.074 -0.6675  0.4145 -0.5499
  132OSM   C15S14268   3.896   2.536   8.132 -0.1315 -0.2489 -1.3130
  132OSM   H15S14269   3.786   2.536   8.147  0.2350  0.0923  2.6705
  132OSM   H15T14270   3.932   2.633   8.091 -0.4790  0.4584 -0.0209
  132OSM   C16S14271   3.969   2.528   8.266 -0.0083  0.3576  0.4818
  132OSM   H16S14272   4.078   2.519   8.247 -0.0775  0.8428 -0.1704
  132OSM   H16T14273   3.944   2.426   8.304  3.1308 -0.6360  0.1720
  132OSM   C17S14274   3.945   2.647   8.355  0.4393  0.6065 -0.0377
  132OSM   H17S14275   3.839   2.653   8.391 -1.1552 -2.0574 -3.6574
  132OSM   H17T14276   3.961   2.738   8.294  0.2933 -0.5626 -1.9082
  132OSM   C18S14277   4.052   2.643   8.464  0.3716 -0.1980  0.4595
  132OSM   H18S14278   4.043   2.552   8.527 -1.7531 -0.5616 -0.2969
  132OSM   H18T14279   4.043   2.736   8.524  3.1020  0.2115  0.3986
  132OSM   H18U14280   4.149   2.650   8.408  0.5954 -0.5624  0.7954
  132OSM    C1F14281   3.970   3.045   6.655 -0.1600  0.2553  0.2650
  132OSM     OF14282   3.922   3.038   6.543 -0.0617  0.1121  0.0877
  132OSM    C2F14283   3.923   3.166   6.736  0.5828  0.9972  0.2470
  132OSM    H2F14284   3.813   3.162   6.754  1.0852 -0.6371  3.6726
  132OSM    H2G14285   3.955   3.247   6.668 -1.3078 -0.0088 -2.0007
  132OSM    C3F14286   3.992   3.172   6.868  0.3529  1.4908  0.0742
  132OSM    H3F14287   4.102   3.171   6.852  0.3182 -0.3816 -0.3832
  132OSM    H3G14288   3.964   3.078   6.921  0.9954  0.6709 -0.9932
  132OSM    C4F14289   3.944   3.286   6.958 -0.6005 -0.1735 -0.8153
  132OSM    H4F14290   3.969   3.378   6.902  2.0203 -0.2101  0.1797
  132OSM    H4G14291   4.015   3.277   7.043 -1.9468  0.2379  0.3987
  132OSM    C5F14292   3.796   3.288   7.011 -1.1045 -0.5648 -1.2434
  132OSM    H5F14293   3.785   3.209   7.089 -0.5655  1.3283  0.8672
  132OSM    H5G14294   3.727   3.266   6.927 -1.8671 -1.3091 -0.4538
  132OSM    C6F14295   3.781   3.419   7.088  0.6410  0.1692  0.1488
  132OSM    H6F14296   3.671   3.423   7.101  0.6820 -1.7461  1.6674
  132OSM    H6G14297   3.813   3.509   7.031  2.8494 -0.6310  0.0325
  132OSM    C7F14298   3.840   3.429   7.233 -0.0023  0.6435 -0.7698
  132OSM    H7F14299   3.938   3.377   7.237  0.6576  1.9181  1.2181
  132OSM    H7G14300   3.762   3.385   7.299  0.8629 -0.6850 -0.5983
  132OSM    C8F14301   3.853   3.578   7.277 -0.0421  0.1728  0.6275
  132OSM    H8F14302   3.752   3.615   7.249  0.1048 -0.5653 -0.9611
  132OSM    H8G14303   3.917   3.634   7.207 -1.4128 -0.4611 -1.2215
  132OSM    C9F14304   3.885   3.585   7.428 -0.2253  0.3900 -0.1991
  132OSM    H9F14305   3.990   3.563   7.453  0.2559  2.9637  0.3040
  132OSM   C10F14306   3.797   3.604   7.531  0.0057  0.0680 -0.0075
  132OSM   H10F14307   3.825   3.613   7.637  0.2083 -3.0131  0.2891
  132OSM   C11F14308   3.646   3.629   7.510  0.0465  0.0578 -0.4857
  132OSM   H11F14309   3.614   3.596   7.409 -0.1121 -1.8828  0.1643
  132OSM   H11G14310   3.619   3.737   7.511 -5.4310 -1.0452  1.0844
  132OSM   C12F14311   3.554   3.549   7.601  0.7128  0.0709 -0.5636
  132OSM   H12F14312   3.544   3.442   7.573  0.5442  0.0057 -0.2573
  132OSM   H12G14313   3.454   3.597   7.590 -0.4565 -2.0539  0.3300
  132OSM   C13F14314   3.582   3.568   7.756  0.0581 -0.0156  0.9789
  132OSM   H13F14315   3.668   3.499   7.769  1.2196  1.0723 -0.4892
  132OSM   H13G14316   3.498   3.528   7.817 -0.3264 -0.1578  0.3616
  132OSM   C14F14317   3.616   3.709   7.806  0.1170 -0.2598 -0.4333
  132OSM   H14F14318   3.707   3.761   7.771  0.8635 -0.6274  0.9014
  132OSM   H14G14319   3.633   3.696   7.915  1.0810  0.4181 -0.4996
  132OSM   C15F14320   3.505   3.808   7.791  0.1877 -0.4999 -0.5740
  132OSM   H15F14321   3.416   3.759   7.838  1.3158 -2.4810 -0.3730
  132OSM   H15G14322   3.489   3.826   7.683 -0.6472  1.2181 -0.1877
  132OSM   C16F14323   3.547   3.934   7.871  0.4428 -0.6352  0.1013
  132OSM   H16F14324   3.619   3.996   7.814  0.0262 -2.4402 -2.5579
  132OSM   H16G14325   3.587   3.897   7.968  2.2929 -0.5592 -0.5955
  132OSM   C17F14326   3.421   4.018   7.884  0.3483 -0.3473  0.4598
  132OSM   H17F14327   3.345   3.949   7.927  0.2165 -1.2658 -1.1891
  132OSM   H17G14328   3.381   4.058   7.788 -0.3766 -1.6696  0.1903
  132OSM   C18F14329   3.441   4.139   7.975  0.2561 -0.0710 -0.3148
  132OSM   H18F14330   3.350   4.203   7.979  1.8398  2.2812  0.6515
  132OSM   H18G14331   3.528   4.206   7.954 -0.7715  2.3654  2.4221
  132OSM   H18H14332   3.469   4.100   8.075  3.1338  0.4279 -0.8330
  133OSM      N14333   4.289   1.699   6.302  0.3361  0.1647  0.0482
  133OSM    C1514334   4.272   1.616   6.426  0.6307  0.6363  0.3211
  133OSM   H15A14335   4.221   1.677   6.499 -2.4723 -1.2778 -0.0673
  133OSM   H15B14336   4.358   1.575   6.475  1.3070  0.2211 -1.1688
  133OSM   H15C14337   4.212   1.530   6.400  2.5636 -0.3454 -1.0984
  133OSM    C1414338   4.354   1.623   6.193  0.0200 -1.0171  0.4050
  133OSM   H14A14339   4.289   1.543   6.161 -1.8380  0.0909  1.1883
  133OSM   H14B14340   4.450   1.590   6.229  0.3617 -0.5037 -0.0101
  133OSM   H14C14341   4.371   1.691   6.111  0.3821 -1.7037 -0.0919
  133OSM    C1314342   4.156   1.750   6.255  0.5073  0.4914  0.3551
  133OSM   H13A14343   4.087   1.802   6.319 -1.5473 -0.2964 -1.1053
  133OSM   H13B14344   4.105   1.664   6.214  0.7018 -0.8457  2.7384
  133OSM   H13C14345   4.188   1.804   6.167  0.5560 -1.1364 -0.6845
  133OSM    C1214346   4.367   1.827   6.340 -0.1571  0.5612 -0.1572
  133OSM   H12A14347   4.454   1.789   6.392 -0.3118 -1.0355 -1.0158
  133OSM   H12B14348   4.308   1.877   6.416 -1.0991 -2.5129  1.2891
  133OSM    C1114349   4.418   1.923   6.234  0.1938 -0.4256  0.3175
  133OSM   H11A14350   4.485   1.869   6.163 -0.7690 -0.0159 -0.9510
  133OSM   H11B14351   4.477   2.000   6.287 -0.1230  0.5466 -0.6997
  133OSM      P14352   4.231   2.095   6.221  0.4416 -0.0528 -0.5181
  133OSM    O1314353   4.257   2.233   6.164 -0.5359  0.2739 -0.1014
  133OSM    O1414354   4.092   2.050   6.204  0.0048 -0.1771  0.8308
  133OSM    O1114355   4.267   2.097   6.377 -0.3512 -0.1847  0.6945
  133OSM    O1214356   4.309   1.982   6.158  0.0490 -0.0898 -0.0931
  133OSM    C1S14357   4.177   2.160   6.467 -0.6161 -0.9231 -0.4087
  133OSM    H1S14358   4.109   2.080   6.504 -1.6428  0.6582  1.2731
  133OSM    H1T14359   4.131   2.249   6.419  0.1748 -0.5754 -0.5468
  133OSM     NF14360   4.164   2.284   6.682  0.6191  0.1134  0.0479
  133OSM    HNF14361   4.155   2.380   6.658 -4.8866  0.0796  0.6464
  133OSM    C2S14362   4.252   2.211   6.602 -0.9148 -0.0283  0.0146
  133OSM    H2S14363   4.294   2.131   6.668 -2.3045  0.5512  1.7084
  133OSM    C3S14364   4.381   2.298   6.568  0.2140  0.6000 -0.0858
  133OSM    H3S14365   4.357   2.377   6.494 -0.5989 -0.1925 -0.6974
  133OSM     O314366   4.484   2.225   6.502 -0.5797  0.5417 -0.0867
  133OSM    HO314367   4.435   2.154   6.460  0.0583  1.2677 -2.1662
  133OSM    C4S14368   4.451   2.362   6.681  0.2703  0.1725 -0.1005
  133OSM    H4S14369   4.490   2.286   6.751 -1.4389  0.8338  1.6429
  133OSM    C5S14370   4.470   2.489   6.707  0.0508 -0.4237 -0.3523
  133OSM    H5S14371   4.452   2.569   6.634 -2.1880 -0.2065  0.3760
  133OSM    C6S14372   4.544   2.533   6.833  0.0640 -0.1315 -0.8839
  133OSM    H6S14373   4.622   2.601   6.793 -1.8103  1.2280 -2.3628
  133OSM    H6T14374   4.592   2.446   6.883 -1.5722  0.5052  2.0054
  133OSM    C7S14375   4.470   2.605   6.948 -0.2162 -0.6774 -0.3854
  133OSM    H7S14376   4.374   2.551   6.957 -1.0778  0.9520  0.8638
  133OSM    H7T14377   4.461   2.712   6.919 -1.1696 -0.3821  0.9140
  133OSM    C8S14378   4.554   2.597   7.077  0.0096  0.0863 -0.0575
  133OSM    H8S14379   4.647   2.654   7.057  2.2035 -3.1091  0.1968
  133OSM    H8T14380   4.585   2.491   7.094  0.5849  0.3878  0.7906
  133OSM    C9S14381   4.478   2.632   7.208 -0.2432  0.6685 -0.1178
  133OSM    H9S14382   4.378   2.586   7.201  1.2281 -2.6555 -1.2461
  133OSM    H9T14383   4.461   2.742   7.211  0.1473  0.7221  1.7687
  133OSM   C10S14384   4.563   2.586   7.333  0.3080  0.3308 -0.4124
  133OSM   H10S14385   4.669   2.618   7.324  0.6863 -1.0062 -0.8599
  133OSM   H10T14386   4.554   2.476   7.342 -1.8479  0.6253  2.5811
  133OSM   C11S14387   4.487   2.644   7.453 -0.0534 -0.0945 -0.1135
  133OSM   H11S14388   4.386   2.601   7.467  0.5550 -2.0165 -1.2556
  133OSM   H11T14389   4.482   2.751   7.423 -0.4913  0.0901  0.5828
  133OSM   C12S14390   4.568   2.632   7.583 -0.5923 -0.7402 -0.1435
  133OSM   H12S14391   4.674   2.659   7.563 -0.0725 -1.4419  1.4460
  133OSM   H12T14392   4.557   2.531   7.628 -0.0385 -0.3459  0.9279
  133OSM   C13S14393   4.522   2.730   7.696 -0.2055 -0.1400  0.5059
  133OSM   H13S14394   4.527   2.837   7.667 -3.0937  0.0582  0.4205
  133OSM   H13T14395   4.583   2.723   7.788  2.7319 -0.7193 -1.3416
  133OSM   C14S14396   4.383   2.699   7.739  0.7625  0.3196 -0.0010
  133OSM   H14S14397   4.385   2.596   7.781  0.4604 -0.5932 -2.1290
  133OSM   H14T14398   4.315   2.706   7.651  1.3251 -0.2146 -0.4811
  133OSM   C15S14399   4.324   2.791   7.848  0.0802  0.0182 -0.4146
  133OSM   H15S14400   4.234   2.844   7.812  0.2159  0.1731 -0.5241
  133OSM   H15T14401   4.400   2.868   7.870 -0.9416  0.6925  0.8774
  133OSM   C16S14402   4.291   2.718   7.988  0.2532  0.3740  0.4915
  133OSM   H16S14403   4.382   2.681   8.040 -0.6677 -0.0497  1.8578
  133OSM   H16T14404   4.223   2.635   7.961 -1.0815  1.3282  0.8122
  133OSM   C17S14405   4.216   2.815   8.078  0.4766 -0.4775  0.5029
  133OSM   H17S14406   4.278   2.906   8.090  0.7032 -0.8023  2.1137
  133OSM   H17T14407   4.203   2.778   8.182  0.8981 -1.6067  0.1699
  133OSM   C18S14408   4.067   2.853   8.032  0.4674 -0.6050 -0.5779
  133OSM   H18S14409   4.071   2.940   7.964 -1.0392  1.0098  1.2948
  133OSM   H18T14410   4.002   2.886   8.115 -0.3946 -2.4017 -0.4947
  133OSM   H18U14411   4.026   2.768   7.973 -0.5471 -2.7176  2.8695
  133OSM    C1F14412   4.078   2.227   6.764 -0.0682  0.3230 -0.0584
  133OSM     OF14413   4.100   2.105   6.804  0.1975 -0.1746 -0.1503
  133OSM    C2F14414   3.956   2.303   6.807 -0.1067  0.2840  0.7456
  133OSM    H2F14415   3.883   2.320   6.725  1.8957 -2.1057 -1.7005
  133OSM    H2G14416   4.001   2.396   6.847 -1.3335  0.1161  2.6881
  133OSM    C3F14417   3.876   2.234   6.921  0.3529  0.1378  0.4188
  133OSM    H3F14418   3.947   2.199   7.000  0.3731 -1.1613 -0.1484
  133OSM    H3G14419   3.825   2.145   6.879  1.2734  0.4247 -1.3690
  133OSM    C4F14420   3.784   2.330   7.000 -0.1415 -0.2175  0.7832
  133OSM    H4F14421   3.722   2.378   6.922 -0.2420 -1.4126  0.0981
  133OSM    H4G14422   3.839   2.411   7.052 -1.3798  1.3900 -0.3482
  133OSM    C5F14423   3.684   2.253   7.092 -0.5939 -0.5086  0.2891
  133OSM    H5F14424   3.644   2.162   7.043  0.9141 -0.9520 -0.1729
  133OSM    H5G14425   3.597   2.311   7.129 -1.2480 -0.1240 -1.7513
  133OSM    C6F14426   3.753   2.201   7.224 -0.2230  0.6180 -0.0139
  133OSM    H6F14427   3.794   2.290   7.277 -2.7394  2.6310 -1.2030
  133OSM    H6G14428   3.833   2.130   7.193 -0.2000  0.3040  0.7479
  133OSM    C7F14429   3.662   2.124   7.322  0.5652 -0.1037  0.2227
  133OSM    H7F14430   3.624   2.045   7.254  2.5454 -1.1428  0.2527
  133OSM    H7G14431   3.584   2.175   7.382 -0.2400  0.0598 -0.9123
  133OSM    C8F14432   3.747   2.070   7.440  0.0289  0.5356 -0.4252
  133OSM    H8F14433   3.775   2.150   7.512 -0.5975 -0.8333  1.4216
  133OSM    H8G14434   3.843   2.040   7.395 -0.0162 -1.9063  0.9553
  133OSM    C9F14435   3.681   1.957   7.507 -0.2915  0.4935 -0.5073
  133OSM    H9F14436   3.651   1.875   7.441 -1.3002 -1.6494  2.4013
  133OSM   C10F14437   3.659   1.938   7.637 -0.1897 -0.2401 -0.0320
  133OSM   H10F14438   3.592   1.853   7.656 -0.7560  0.0221 -0.8501
  133OSM   C11F14439   3.689   2.042   7.745 -0.8009  0.4487 -0.2804
  133OSM   H11F14440   3.628   2.133   7.730 -0.8112  0.8564  1.8941
  133OSM   H11G14441   3.799   2.059   7.749 -0.6212 -0.3627 -1.3031
  133OSM   C12F14442   3.642   1.987   7.890  0.1523 -0.0821  0.7048
  133OSM   H12F14443   3.678   1.882   7.893  2.4755  0.6401  0.2188
  133OSM   H12G14444   3.531   1.980   7.896  0.0575 -0.5461 -0.9873
  133OSM   C13F14445   3.705   2.062   8.012  0.5034  0.5666 -0.0450
  133OSM   H13F14446   3.664   2.164   8.000 -0.4723  0.6077  2.7924
  133OSM   H13G14447   3.816   2.066   8.006  0.6726 -1.5883  0.7175
  133OSM   C14F14448   3.658   1.998   8.150  0.0513 -0.8914  0.0997
  133OSM   H14F14449   3.684   1.891   8.166  2.5157  0.1553  4.2078
  133OSM   H14G14450   3.548   2.012   8.155 -0.1710 -1.8895 -1.3188
  133OSM   C15F14451   3.732   2.074   8.261 -0.1109 -0.0155 -0.1744
  133OSM   H15F14452   3.696   2.178   8.251  0.6054  0.0951 -2.0526
  133OSM   H15G14453   3.841   2.071   8.238 -0.3845 -0.3066 -1.5556
  133OSM   C16F14454   3.699   2.031   8.403 -0.2044  0.4182 -1.0739
  133OSM   H16F14455   3.747   1.932   8.421  0.9106  1.4562  2.6731
  133OSM   H16G14456   3.593   2.013   8.430  0.8485 -1.8011  2.3012
  133OSM   C17F14457   3.754   2.125   8.514 -0.6068 -0.1120  0.0256
  133OSM   H17F14458   3.865   2.116   8.512 -0.6427 -0.5160 -0.4022
  133OSM   H17G14459   3.719   2.083   8.611 -1.3053  0.2101 -0.0836
  133OSM   C18F14460   3.724   2.276   8.514 -0.2118  0.0405 -0.1142
  133OSM   H18F14461   3.614   2.282   8.503 -0.2510 -0.4670 -0.0112
  133OSM   H18G14462   3.756   2.339   8.429 -2.4429  0.9700 -0.3163
  133OSM   H18H14463   3.783   2.304   8.604  1.0588 -0.7697 -0.6657
  134OSM      N14464   4.906   5.668   6.292  0.3697  0.1441 -0.3409
  134OSM    C1514465   5.019   5.602   6.210  0.2078  0.0792  0.3781
  134OSM   H15A14466   5.092   5.678   6.186 -0.9955  1.0092 -0.4320
  134OSM   H15B14467   4.989   5.547   6.121  1.2845 -2.2715  1.3834
  134OSM   H15C14468   5.069   5.524   6.266  0.1740  0.0714  0.3982
  134OSM    C1414469   4.838   5.779   6.222  0.0886 -0.5692  0.1845
  134OSM   H14A14470   4.785   5.741   6.136  0.0026 -0.3215  0.1283
  134OSM   H14B14471   4.914   5.847   6.185  0.9935 -1.9705 -0.6170
  134OSM   H14C14472   4.770   5.829   6.289  0.1905  1.5619 -1.1827
  134OSM    C1314473   4.811   5.555   6.309 -0.4061 -0.3964  0.1401
  134OSM   H13A14474   4.788   5.519   6.209  2.6210 -0.0708 -0.7827
  134OSM   H13B14475   4.716   5.591   6.347 -0.3203 -0.0856  0.0580
  134OSM   H13C14476   4.858   5.474   6.363 -0.4989  0.8003  2.1112
  134OSM    C1214477   4.969   5.713   6.424  0.1635 -0.3500 -0.5696
  134OSM   H12A14478   4.889   5.735   6.494  0.6314 -2.0856  0.5785
  134OSM   H12B14479   5.019   5.809   6.420  0.5099 -0.5591 -1.3374
  134OSM    C1114480   5.062   5.608   6.499 -0.0839  0.4877 -1.1036
  134OSM   H11A14481   5.087   5.652   6.598 -0.5346 -0.4600 -0.5596
  134OSM   H11B14482   5.153   5.613   6.436  1.3494 -1.3726  0.6964
  134OSM      P14483   5.103   5.352   6.523  0.0601 -0.2040  0.0552
  134OSM    O1314484   5.041   5.235   6.594 -0.2940  0.0095  0.2633
  134OSM    O1414485   5.157   5.329   6.389  0.2931 -0.6037  0.2550
  134OSM    O1114486   5.220   5.412   6.608 -0.5964 -0.2371 -0.1344
  134OSM    O1214487   4.996   5.483   6.518 -0.4667  0.5301  0.2013
  134OSM    C1S14488   5.206   5.426   6.754 -0.3348 -0.2997  0.3082
  134OSM    H1S14489   5.097   5.419   6.778 -1.2454  1.1579 -2.8065
  134OSM    H1T14490   5.241   5.523   6.794 -1.2445  1.1126 -2.1161
  134OSM     NF14491   5.262   5.319   6.970  0.0554  0.1371  0.2424
  134OSM    HNF14492   5.333   5.348   7.034 -2.1613  0.7726  2.5929
  134OSM    C2S14493   5.292   5.320   6.832 -0.0120 -0.3813  0.7487
  134OSM    H2S14494   5.258   5.221   6.793  0.6730 -1.1293  1.9788
  134OSM    C3S14495   5.448   5.336   6.809  0.6403 -0.1182 -0.2633
  134OSM    H3S14496   5.483   5.419   6.872  0.0655  1.4907 -1.9751
  134OSM     O314497   5.478   5.341   6.668  0.1917 -0.0020 -0.0103
  134OSM    HO314498   5.396   5.358   6.621  1.1386  0.0167 -1.7427
  134OSM    C4S14499   5.523   5.207   6.852  0.2835 -0.3567 -0.0442
  134OSM    H4S14500   5.480   5.118   6.804  0.5892 -0.3501 -0.3343
  134OSM    C5S14501   5.614   5.199   6.954 -0.2902  0.1995  0.6148
  134OSM    H5S14502   5.650   5.287   7.010 -1.3929  0.0658  1.5730
  134OSM    C6S14503   5.685   5.066   6.984 -0.2244 -0.1609 -0.6625
  134OSM    H6S14504   5.785   5.076   6.936 -0.6437  2.6733 -1.1615
  134OSM    H6T14505   5.631   4.975   6.951 -1.2381 -0.2532  1.1309
  134OSM    C7S14506   5.711   5.040   7.139  0.1885 -0.9315 -0.1998
  134OSM    H7S14507   5.724   5.136   7.192  1.2274  0.5682 -2.9362
  134OSM    H7T14508   5.802   4.979   7.156  2.6150  2.0603 -1.4325
  134OSM    C8S14509   5.600   4.959   7.206  0.6286  0.3584  0.8081
  134OSM    H8S14510   5.604   4.863   7.151  0.6720  0.1260  1.2089
  134OSM    H8T14511   5.499   5.000   7.184 -0.8361 -3.8257 -1.1813
  134OSM    C9S14512   5.623   4.943   7.352 -0.4190 -0.4631 -0.4061
  134OSM    H9S14513   5.729   4.914   7.370  0.1524  1.6656 -0.1180
  134OSM    H9T14514   5.561   4.855   7.380 -0.7995  0.4703  1.8582
  134OSM   C10S14515   5.572   5.064   7.436 -0.1493  0.9230  0.8886
  134OSM   H10S14516   5.461   5.061   7.423  0.0397 -1.9469 -0.6739
  134OSM   H10T14517   5.616   5.159   7.399  0.4762  0.7217  1.0982
  134OSM   C11S14518   5.606   5.045   7.583  0.2713  0.0781 -0.6991
  134OSM   H11S14519   5.559   4.957   7.631  0.6240  0.1178 -0.2684
  134OSM   H11T14520   5.561   5.135   7.630 -0.3808 -0.9523  0.7072
  134OSM   C12S14521   5.758   5.040   7.621  0.5694  0.3757  0.5334
  134OSM   H12S14522   5.804   5.139   7.597 -1.7090  1.4681  0.3915
  134OSM   H12T14523   5.808   4.973   7.548 -0.0646  0.9912 -0.4944
  134OSM   C13S14524   5.801   5.009   7.761  0.5410 -0.5893 -0.3845
  134OSM   H13S14525   5.905   5.047   7.767  0.8122 -1.4630  0.7672
  134OSM   H13T14526   5.794   4.899   7.781  1.8337 -0.6561 -0.2385
  134OSM   C14S14527   5.724   5.087   7.874  0.2630  1.1937  0.7598
  134OSM   H14S14528   5.616   5.062   7.862  0.7053  0.2697 -1.9511
  134OSM   H14T14529   5.719   5.193   7.840 -0.2650  1.2058  0.8580
  134OSM   C15S14530   5.777   5.066   8.014 -0.5134 -0.1098 -0.8092
  134OSM   H15S14531   5.885   5.086   7.998 -0.7201  1.7801 -0.0554
  134OSM   H15T14532   5.763   4.960   8.043 -1.9436  0.6715  1.7640
  134OSM   C16S14533   5.728   5.160   8.126 -0.9321 -0.1348  0.1347
  134OSM   H16S14534   5.631   5.116   8.158  0.0269 -2.0210  0.5950
  134OSM   H16T14535   5.715   5.267   8.096  2.1077 -0.2651 -2.1954
  134OSM   C17S14536   5.844   5.145   8.230  0.2372 -1.2850  0.3843
  134OSM   H17S14537   5.917   5.207   8.175 -1.0000 -2.4516 -2.7774
  134OSM   H17T14538   5.884   5.041   8.234  1.0107 -0.9621  2.2640
  134OSM   C18S14539   5.823   5.218   8.365  0.4963 -0.0807  0.3929
  134OSM   H18S14540   5.883   5.151   8.431 -0.7053 -2.4629 -0.7760
  134OSM   H18T14541   5.715   5.234   8.384  0.8407  2.1440  0.7132
  134OSM   H18U14542   5.876   5.315   8.372 -1.3166  1.1183 -1.5237
  134OSM    C1F14543   5.144   5.286   7.028  0.0294 -0.1034  0.3699
  134OSM     OF14544   5.048   5.241   6.965  0.6646  0.1707  0.0226
  134OSM    C2F14545   5.136   5.305   7.179  0.3098  0.5188  0.1125
  134OSM    H2F14546   5.127   5.415   7.191  0.6265  0.6000 -0.3571
  134OSM    H2G14547   5.238   5.277   7.215  0.6053  1.5672  0.1343
  134OSM    C3F14548   5.030   5.217   7.243  1.1214 -0.8694  0.2523
  134OSM    H3F14549   5.057   5.109   7.240 -1.5181 -1.5934 -2.2467
  134OSM    H3G14550   4.928   5.227   7.199  0.1453  1.8459  2.8171
  134OSM    C4F14551   5.002   5.250   7.392  0.6824  0.8081 -0.3726
  134OSM    H4F14552   4.947   5.166   7.439  1.6590 -0.2831 -1.1329
  134OSM    H4G14553   4.933   5.337   7.402 -0.9113 -0.5804  1.6686
  134OSM    C5F14554   5.129   5.275   7.470  0.6254  0.1732 -1.2511
  134OSM    H5F14555   5.173   5.370   7.433  2.3399 -0.9916 -2.3866
  134OSM    H5G14556   5.210   5.201   7.450  1.7141  1.0791 -0.3062
  134OSM    C6F14557   5.101   5.285   7.622 -0.9422  0.4247 -0.6839
  134OSM    H6F14558   5.052   5.384   7.638 -0.2296  0.9614 -1.6786
  134OSM    H6G14559   5.204   5.295   7.662 -0.7092  1.2573 -1.4465
  134OSM    C7F14560   5.018   5.167   7.687  0.1046 -0.0606 -0.2134
  134OSM    H7F14561   5.052   5.075   7.636 -0.4916  1.0244 -2.7019
  134OSM    H7G14562   4.912   5.183   7.661 -0.1421  0.1893  0.8881
  134OSM    C8F14563   5.042   5.157   7.835 -0.6933 -0.0580  0.1357
  134OSM    H8F14564   5.148   5.128   7.855  0.2340  0.3315 -3.5770
  134OSM    H8G14565   4.983   5.076   7.882  1.2787 -1.9430 -0.5071
  134OSM    C9F14566   5.020   5.294   7.897  0.3706 -0.1594 -0.2053
  134OSM    H9F14567   4.949   5.362   7.847 -1.1982 -1.7924 -0.3126
  134OSM   C10F14568   5.083   5.344   8.002 -0.0141  0.1441  0.7625
  134OSM   H10F14569   5.052   5.440   8.046  0.3893 -0.7303  3.0975
  134OSM   C11F14570   5.201   5.276   8.082 -0.0533  0.9864  0.1828
  134OSM   H11F14571   5.264   5.348   8.138  2.0642 -1.0531  0.5653
  134OSM   H11G14572   5.278   5.222   8.023  0.2839  0.1243  1.3633
  134OSM   C12F14573   5.138   5.182   8.186  0.8815  0.4847 -0.1798
  134OSM   H12F14574   5.119   5.080   8.146  1.1032 -0.0160  0.9432
  134OSM   H12G14575   5.053   5.230   8.238 -1.1440 -2.9156 -0.0985
  134OSM   C13F14576   5.219   5.165   8.322 -0.3893 -0.5468 -0.1987
  134OSM   H13F14577   5.238   5.268   8.358 -1.4591  0.5879 -2.6140
  134OSM   H13G14578   5.315   5.116   8.294  0.4211 -0.2580  1.9362
  134OSM   C14F14579   5.147   5.079   8.425  0.0606  0.4509  0.1731
  134OSM   H14F14580   5.216   5.000   8.461 -0.1811  0.3343  0.3920
  134OSM   H14G14581   5.056   5.044   8.372  0.2452 -0.0566  0.1896
  134OSM   C15F14582   5.097   5.138   8.551  0.7219 -0.7985  0.2665
  134OSM   H15F14583   5.184   5.195   8.592 -0.8435  1.6581  0.4017
  134OSM   H15G14584   5.059   5.059   8.619 -0.0456 -3.9856 -3.5156
  134OSM   C16F14585   4.976   5.246   8.529 -0.4195  0.7275 -0.3752
  134OSM   H16F14586   4.986   5.302   8.433  3.3839  0.4086 -0.3240
  134OSM   H16G14587   4.977   5.326   8.606 -1.8273  0.5596 -0.1636
  134OSM   C17F14588   4.825   5.197   8.531 -0.3046  0.6349 -0.0716
  134OSM   H17F14589   4.753   5.277   8.505  0.3282  2.1480  2.5031
  134OSM   H17G14590   4.802   5.181   8.639  0.1734  2.3743  0.3122
  134OSM   C18F14591   4.794   5.063   8.447 -0.2545  1.4416 -0.0069
  134OSM   H18F14592   4.853   4.972   8.472 -0.1521  1.3886 -0.4227
  134OSM   H18G14593   4.792   5.085   8.338 -4.7110  1.9820 -0.0022
  134OSM   H18H14594   4.685   5.042   8.448 -0.0792  0.4041 -0.5638
  135OSM      N14595   3.984   5.445   6.404 -0.0750 -0.1673 -0.2167
  135OSM    C1514596   3.851   5.383   6.373  0.2506  0.3982 -0.1903
  135OSM   H15A14597   3.858   5.287   6.323 -0.7649  0.3873 -0.3433
  135OSM   H15B14598   3.792   5.442   6.305 -1.3250 -0.8099  0.0693
  135OSM   H15C14599   3.802   5.362   6.467 -2.1270  0.4464 -1.3334
  135OSM    C1414600   3.963   5.571   6.476  0.5976  0.4602 -0.0219
  135OSM   H14A14601   4.056   5.605   6.520 -1.0660  1.7017  2.8355
  135OSM   H14B14602   3.904   5.545   6.563 -1.2719  3.2851 -0.3086
  135OSM   H14C14603   3.912   5.655   6.431  1.5955  1.6325  0.9421
  135OSM    C1314604   4.047   5.348   6.502  0.2792  0.2936 -0.2841
  135OSM   H13A14605   4.135   5.391   6.547  0.4447 -1.5424  1.2858
  135OSM   H13B14606   4.096   5.266   6.451  1.8686  1.4241 -0.6694
  135OSM   H13C14607   3.980   5.306   6.575  0.3176  0.7231 -0.0008
  135OSM    C1214608   4.074   5.459   6.277  0.4974 -0.2797 -0.0458
  135OSM   H12A14609   4.035   5.547   6.228 -0.0017 -0.5799 -0.1951
  135OSM   H12B14610   4.075   5.376   6.209  1.1959  0.7608 -1.3604
  135OSM    C1114611   4.233   5.473   6.300  0.6368 -0.3765  1.3044
  135OSM   H11A14612   4.279   5.503   6.204 -1.4356  1.3207  0.7512
  135OSM   H11B14613   4.265   5.373   6.335  0.7135 -0.6081  0.5705
  135OSM      P14614   4.409   5.613   6.423 -0.0076  0.2273  0.1298
  135OSM    O1314615   4.509   5.507   6.389 -0.8271  0.6280 -0.2864
  135OSM    O1414616   4.426   5.738   6.358  0.0133 -0.3761  0.2980
  135OSM    O1114617   4.423   5.638   6.575  0.4517  0.1892 -0.1882
  135OSM    O1214618   4.265   5.566   6.400  0.7024  0.3381  0.2458
  135OSM    C1S14619   4.395   5.533   6.663 -0.0628  0.0472 -0.2085
  135OSM    H1S14620   4.481   5.462   6.667 -0.9082 -0.9367  2.2253
  135OSM    H1T14621   4.302   5.479   6.633 -1.1340  1.0243  1.2326
  135OSM     NF14622   4.422   5.470   6.896 -0.2078 -0.2198  0.4356
  135OSM    HNF14623   4.352   5.415   6.941 -1.4014  1.0651  0.2186
  135OSM    C2S14624   4.376   5.576   6.812 -0.2935 -0.3962  0.0745
  135OSM    H2S14625   4.442   5.662   6.833  0.7570 -0.9916 -0.6626
  135OSM    C3S14626   4.234   5.617   6.838  0.3370  0.1543  0.2628
  135OSM    H3S14627   4.163   5.531   6.841  1.2741 -0.6202  0.8049
  135OSM     O314628   4.188   5.719   6.741 -0.8090 -0.5448 -0.5936
  135OSM    HO314629   4.253   5.729   6.670  1.4109  0.8040  1.4548
  135OSM    C4S14630   4.227   5.677   6.981 -0.8706  0.4738  0.9754
  135OSM    H4S14631   4.286   5.769   6.989  1.3137 -0.8102  0.3892
  135OSM    C5S14632   4.155   5.636   7.089 -0.3340 -0.3044  0.0218
  135OSM    H5S14633   4.096   5.544   7.089  1.1774 -1.3116  0.9443
  135OSM    C6S14634   4.153   5.704   7.219 -0.9439 -0.3007 -0.0256
  135OSM    H6S14635   4.049   5.717   7.256  0.0339  2.1060  2.1489
  135OSM    H6T14636   4.208   5.800   7.211 -1.6591  0.0678 -0.5984
  135OSM    C7S14637   4.240   5.637   7.331  0.4005  0.2198 -0.0728
  135OSM    H7S14638   4.346   5.625   7.302  0.2676 -0.6342 -0.2156
  135OSM    H7T14639   4.191   5.541   7.355  1.5220  0.0015  1.4411
  135OSM    C8S14640   4.248   5.713   7.463 -0.0838 -0.0334 -0.9586
  135OSM    H8S14641   4.245   5.821   7.435 -0.8572  0.0558 -0.5522
  135OSM    H8T14642   4.348   5.691   7.506  0.3828  1.9346 -0.9185
  135OSM    C9S14643   4.129   5.692   7.556 -0.5771 -0.6671  0.2376
  135OSM    H9S14644   4.111   5.583   7.570 -2.3400 -0.1076  3.0241
  135OSM    H9T14645   4.041   5.746   7.516 -0.4243  0.3492  1.2309
  135OSM   C10S14646   4.161   5.753   7.699  0.0106 -0.1144  0.2428
  135OSM   H10S14647   4.192   5.859   7.686  2.0978 -0.6359  0.6163
  135OSM   H10T14648   4.251   5.703   7.741 -0.3188  0.1194  1.2539
  135OSM   C11S14649   4.048   5.749   7.801 -0.2252  0.1816 -0.3348
  135OSM   H11S14650   3.986   5.656   7.799  1.2097 -0.8127 -1.9065
  135OSM   H11T14651   3.973   5.826   7.773 -1.8447 -1.2769 -0.1842
  135OSM   C12S14652   4.103   5.781   7.938 -0.0794 -0.2237  0.1116
  135OSM   H12S14653   4.137   5.886   7.934  1.6222 -0.7633 -0.3129
  135OSM   H12T14654   4.186   5.712   7.965 -0.4165 -0.0580  1.6595
  135OSM   C13S14655   4.000   5.783   8.050  0.6488  0.1656 -0.6418
  135OSM   H13S14656   3.940   5.691   8.064  1.8602 -0.1861  3.9019
  135OSM   H13T14657   3.925   5.862   8.028 -1.7173 -1.1880  1.9565
  135OSM   C14S14658   4.046   5.820   8.184 -0.1536  0.2567  0.3714
  135OSM   H14S14659   3.960   5.834   8.254 -0.5037  1.4933 -0.2767
  135OSM   H14T14660   4.089   5.920   8.162 -1.5033  1.1557  1.6335
  135OSM   C15S14661   4.155   5.730   8.252 -0.7474 -0.2093 -0.4765
  135OSM   H15S14662   4.234   5.708   8.177 -0.6650  1.9216 -1.0844
  135OSM   H15T14663   4.121   5.627   8.276  0.9994 -0.0563  3.5330
  135OSM   C16S14664   4.232   5.792   8.368  0.1827 -0.1741  0.5023
  135OSM   H16S14665   4.319   5.834   8.313 -1.4656 -0.2236 -2.3341
  135OSM   H16T14666   4.277   5.712   8.430  0.0332 -0.8368 -0.2252
  135OSM   C17S14667   4.150   5.884   8.458  0.5717 -0.5439  0.1049
  135OSM   H17S14668   4.043   5.852   8.466  0.3769  0.1234  0.2402
  135OSM   H17T14669   4.150   5.984   8.411  1.8629  0.4306  2.0503
  135OSM   C18S14670   4.188   5.894   8.601 -0.0920 -0.2390 -0.1925
  135OSM   H18S14671   4.287   5.941   8.610  0.0825 -0.5459 -0.4484
  135OSM   H18T14672   4.203   5.793   8.645 -0.6455 -0.7469 -1.1148
  135OSM   H18U14673   4.119   5.958   8.660  2.3089  0.7141  1.7300
  135OSM    C1F14674   4.545   5.442   6.922 -0.2856 -0.0615  0.2448
  135OSM     OF14675   4.629   5.509   6.862 -0.4791 -0.1103  0.1856
  135OSM    C2F14676   4.574   5.330   7.018 -0.3161 -0.5227 -0.4535
  135OSM    H2F14677   4.622   5.265   6.942  1.9588  0.2455  0.2173
  135OSM    H2G14678   4.476   5.291   7.052  0.1316  0.3187  2.0572
  135OSM    C3F14679   4.684   5.354   7.132 -0.2977  0.1246 -0.9295
  135OSM    H3F14680   4.781   5.385   7.088 -1.4849  2.5127 -2.0552
  135OSM    H3G14681   4.704   5.257   7.182 -3.8019  0.6007  1.8026
  135OSM    C4F14682   4.632   5.449   7.240 -0.7239  0.3344  0.1938
  135OSM    H4F14683   4.646   5.554   7.207 -0.5202  0.8276  1.7849
  135OSM    H4G14684   4.709   5.437   7.319 -0.3288  0.1722 -0.2100
  135OSM    C5F14685   4.489   5.419   7.305 -0.3410  0.0971 -0.5321
  135OSM    H5F14686   4.402   5.424   7.235 -0.7485  1.6420  0.0531
  135OSM    H5G14687   4.479   5.504   7.375 -0.2477  1.7590 -2.4429
  135OSM    C6F14688   4.482   5.283   7.379  0.2805  0.6086 -0.6118
  135OSM    H6F14689   4.476   5.202   7.304 -2.6452  0.5167 -0.3679
  135OSM    H6G14690   4.389   5.291   7.440 -0.1789 -1.7453 -0.9165
  135OSM    C7F14691   4.599   5.268   7.487  0.0227 -0.3628 -0.4713
  135OSM    H7F14692   4.695   5.274   7.430 -1.3139 -1.2992 -2.9554
  135OSM    H7G14693   4.595   5.162   7.519 -1.2007 -0.6664 -1.5483
  135OSM    C8F14694   4.589   5.369   7.606 -0.0505 -0.4281  0.2756
  135OSM    H8F14695   4.481   5.393   7.601  0.7204  3.6518 -0.0084
  135OSM    H8G14696   4.637   5.465   7.579  1.9515 -0.8636  1.9954
  135OSM    C9F14697   4.649   5.340   7.738  0.2668  0.3118 -0.2011
  135OSM    H9F14698   4.693   5.240   7.748 -1.5417 -0.9103 -3.0316
  135OSM   C10F14699   4.618   5.404   7.857 -0.1124 -0.0277  0.0014
  135OSM   H10F14700   4.677   5.384   7.948 -0.2863 -3.7912 -0.5562
  135OSM   C11F14701   4.523   5.515   7.869 -0.0073 -0.3022 -0.4927
  135OSM   H11F14702   4.475   5.506   7.969  1.9872  0.0504  0.5523
  135OSM   H11G14703   4.445   5.520   7.790 -1.0863  0.2136  0.5722
  135OSM   C12F14704   4.600   5.647   7.867  0.4968  0.2259  0.0013
  135OSM   H12F14705   4.641   5.675   7.768 -0.3905  1.7473  0.0423
  135OSM   H12G14706   4.684   5.652   7.939  0.0120  2.1693  0.4926
  135OSM   C13F14707   4.505   5.762   7.905 -0.0981 -0.0348 -0.0714
  135OSM   H13F14708   4.440   5.757   7.995 -0.2735 -0.7492 -0.2353
  135OSM   H13G14709   4.442   5.789   7.816 -0.8992  1.7041  0.9606
  135OSM   C14F14710   4.585   5.888   7.923 -1.0670  0.6590 -0.5517
  135OSM   H14F14711   4.632   5.924   7.830 -0.6520  2.3465  0.2781
  135OSM   H14G14712   4.671   5.881   7.994 -1.8994 -1.1281  0.3527
  135OSM   C15F14713   4.513   6.013   7.972  0.7840  0.5321 -0.1831
  135OSM   H15F14714   4.411   6.021   7.928 -0.1066 -2.6681  1.0100
  135OSM   H15G14715   4.568   6.109   7.958  0.5903  0.6652 -0.0210
  135OSM   C16F14716   4.477   6.004   8.129 -0.4515 -0.1716  0.4604
  135OSM   H16F14717   4.497   5.900   8.160 -1.4680 -0.9797 -1.3737
  135OSM   H16G14718   4.366   6.017   8.130 -0.5332 -0.8870  1.6807
  135OSM   C17F14719   4.555   6.110   8.214  0.5099  0.6105 -0.0568
  135OSM   H17F14720   4.521   6.209   8.176 -1.6908  0.1363  0.5198
  135OSM   H17G14721   4.665   6.102   8.203  0.3252 -2.1222 -0.4576
  135OSM   C18F14722   4.513   6.097   8.367  0.0155  0.2899 -0.1941
  135OSM   H18F14723   4.564   6.005   8.400  0.6697 -0.0738 -2.0677
  135OSM   H18G14724   4.402   6.097   8.372  0.0336  1.2659  0.5679
  135OSM   H18H14725   4.555   6.191   8.408 -2.5275  2.3704 -1.9699
  136OSM      N14726   4.106   6.560   6.112  0.0581  0.2770 -0.9516
  136OSM    C1514727   4.099   6.702   6.076  0.7602 -0.2796  0.0600
  136OSM   H15A14728   4.170   6.762   6.130 -1.5784  1.8172  0.9990
  136OSM   H15B14729   4.003   6.744   6.102  1.1324  1.0867 -0.6902
  136OSM   H15C14730   4.106   6.714   5.969 -1.2658  0.6174 -0.0219
  136OSM    C1414731   4.007   6.479   6.045  0.7075  0.9078 -0.8694
  136OSM   H14A14732   4.005   6.499   5.938 -0.3049  1.1159 -0.8265
  136OSM   H14B14733   3.912   6.489   6.096  0.1050  1.2513 -2.0228
  136OSM   H14C14734   4.036   6.376   6.059 -1.0616  0.7158  2.0403
  136OSM    C1314735   4.248   6.520   6.087  0.2329  0.1285  0.6722
  136OSM   H13A14736   4.270   6.417   6.110 -0.9835 -0.3681 -0.3381
  136OSM   H13B14737   4.321   6.588   6.130 -1.4070  2.7283 -0.4450
  136OSM   H13C14738   4.261   6.528   5.980 -1.6446  0.7308  0.4542
  136OSM    C1214739   4.081   6.544   6.264 -0.4785  0.1217 -0.5353
  136OSM   H12A14740   4.146   6.613   6.317 -2.4040 -0.5278  2.9807
  136OSM   H12B14741   4.120   6.447   6.292  0.3430  0.3340 -0.8889
  136OSM    C1114742   3.943   6.587   6.319 -0.8580 -0.6471  0.5059
  136OSM   H11A14743   3.933   6.695   6.296 -0.6633 -0.6700  0.3050
  136OSM   H11B14744   3.949   6.593   6.429 -1.0603  0.8117  0.4545
  136OSM      P14745   3.820   6.359   6.303 -0.0133  0.2915  0.2182
  136OSM    O1314746   3.718   6.300   6.217 -0.5581  0.2352 -0.0921
  136OSM    O1414747   3.944   6.289   6.317  0.0779 -0.3609  0.5880
  136OSM    O1114748   3.755   6.381   6.447 -0.6154  0.5624  0.5011
  136OSM    O1214749   3.835   6.510   6.259 -0.6355  0.9056  0.3840
  136OSM    C1S14750   3.655   6.481   6.479  0.0262 -0.5787 -0.2761
  136OSM    H1S14751   3.562   6.466   6.420  1.1515 -0.4557 -2.1286
  136OSM    H1T14752   3.687   6.584   6.457  1.9212 -0.8723  0.8856
  136OSM     NF14753   3.507   6.531   6.672 -0.1057 -0.1598  0.5032
  136OSM    HNF14754   3.524   6.606   6.736 -0.4156  0.5210 -0.1896
  136OSM    C2S14755   3.630   6.473   6.631 -0.4787  0.2510 -0.5500
  136OSM    H2S14756   3.626   6.368   6.668 -0.2535  1.4631  3.3793
  136OSM    C3S14757   3.758   6.531   6.698  0.1010 -0.6746  0.3874
  136OSM    H3S14758   3.765   6.625   6.639  0.2793 -1.9450 -1.7227
  136OSM     O314759   3.880   6.464   6.668  0.0535 -0.3594  0.9548
  136OSM    HO314760   3.861   6.408   6.593 -0.1083  1.2716 -0.2840
  136OSM    C4S14761   3.739   6.542   6.840 -1.0827 -0.0338 -0.1294
  136OSM    H4S14762   3.732   6.641   6.885  0.3123 -0.3005  0.7558
  136OSM    C5S14763   3.754   6.443   6.934  0.0254 -0.0255 -0.0707
  136OSM    H5S14764   3.777   6.339   6.907 -1.4270 -0.2377 -0.5675
  136OSM    C6S14765   3.737   6.462   7.087  0.6451 -0.8903  0.0352
  136OSM    H6S14766   3.666   6.384   7.120 -1.2292  0.2973 -1.0172
  136OSM    H6T14767   3.708   6.564   7.118  2.8979 -0.1798 -0.0082
  136OSM    C7S14768   3.878   6.448   7.144 -0.4635  0.1181 -0.1464
  136OSM    H7S14769   3.957   6.503   7.089 -0.9428  0.8601 -0.1234
  136OSM    H7T14770   3.910   6.342   7.148 -1.2867 -0.1426 -0.1932
  136OSM    C8S14771   3.869   6.496   7.288  0.6210  0.0875  0.0545
  136OSM    H8S14772   3.795   6.440   7.349  1.0659  0.7007  1.1759
  136OSM    H8T14773   3.834   6.601   7.282 -0.5638 -0.1043  2.4913
  136OSM    C9S14774   3.998   6.497   7.369  0.0123  0.4198  0.1066
  136OSM    H9S14775   4.059   6.568   7.310 -1.5113  1.8523  0.1572
  136OSM    H9T14776   4.039   6.394   7.371 -1.9889 -0.4729 -1.4266
  136OSM   C10S14777   4.000   6.559   7.506 -0.8490 -0.0525  0.2440
  136OSM   H10S14778   3.922   6.510   7.568 -1.3961 -1.1338 -1.2229
  136OSM   H10T14779   3.969   6.664   7.486 -1.2387 -0.4475 -1.4605
  136OSM   C11S14780   4.139   6.555   7.557 -0.1469  0.0780  0.1360
  136OSM   H11S14781   4.200   6.628   7.501 -1.2983  1.7300  0.9643
  136OSM   H11T14782   4.189   6.456   7.553 -0.9121 -0.3240  0.2786
  136OSM   C12S14783   4.140   6.602   7.707  0.7202  0.0439  1.5355
  136OSM   H12S14784   4.081   6.522   7.756 -0.5603 -0.2949 -0.4201
  136OSM   H12T14785   4.100   6.705   7.707 -0.0532 -0.2025 -0.5746
  136OSM   C13S14786   4.277   6.608   7.772  0.4580 -0.1658  0.1347
  136OSM   H13S14787   4.339   6.698   7.751 -0.3356  0.9922  2.3910
  136OSM   H13T14788   4.331   6.517   7.737  1.2137  0.6299 -0.8324
  136OSM   C14S14789   4.255   6.594   7.922  0.6987  0.5860 -1.0722
  136OSM   H14S14790   4.193   6.502   7.932 -1.4364  2.0341 -0.4271
  136OSM   H14T14791   4.184   6.672   7.955 -0.2187 -0.1392 -1.2762
  136OSM   C15S14792   4.379   6.592   8.008  0.0763  0.1198  0.3401
  136OSM   H15S14793   4.437   6.686   8.000  0.1135 -0.0544 -2.4530
  136OSM   H15T14794   4.448   6.517   7.964 -0.6242  0.7398 -2.0087
  136OSM   C16S14795   4.353   6.576   8.161 -0.1805  0.5414 -0.4618
  136OSM   H16S14796   4.323   6.678   8.194  0.7446  0.1041  1.9231
  136OSM   H16T14797   4.454   6.570   8.206  0.1759  3.5140 -0.6305
  136OSM   C17S14798   4.257   6.470   8.209  0.3033  0.7961 -0.6156
  136OSM   H17S14799   4.289   6.370   8.173  1.1001 -1.2228  4.7834
  136OSM   H17T14800   4.151   6.487   8.182 -0.4443 -0.3099  1.4329
  136OSM   C18S14801   4.259   6.457   8.365  0.5703  0.2632 -0.1141
  136OSM   H18S14802   4.234   6.554   8.412 -0.3334 -0.4487  0.9169
  136OSM   H18T14803   4.354   6.432   8.417  1.3320  2.1211 -0.5390
  136OSM   H18U14804   4.183   6.378   8.385 -0.5424  1.1153 -0.8598
  136OSM    C1F14805   3.388   6.468   6.637 -0.6556  0.0288 -0.4914
  136OSM     OF14806   3.393   6.346   6.614 -0.3530 -0.4101 -0.1321
  136OSM    C2F14807   3.263   6.543   6.648  0.7418 -0.6281 -0.9256
  136OSM    H2F14808   3.183   6.473   6.615 -1.6357  1.9619 -1.0327
  136OSM    H2G14809   3.259   6.626   6.574 -1.6872  0.2025  0.0288
  136OSM    C3F14810   3.225   6.600   6.793 -0.3585 -1.1187  0.7180
  136OSM    H3F14811   3.137   6.666   6.780  2.0385  2.0458 -0.6450
  136OSM    H3G14812   3.310   6.661   6.829 -0.7893 -1.5901  2.6483
  136OSM    C4F14813   3.216   6.493   6.901  0.3345 -0.5601 -0.6148
  136OSM    H4F14814   3.312   6.436   6.906  0.8234  0.2753 -0.2413
  136OSM    H4G14815   3.127   6.441   6.861 -1.7238  2.7461 -0.6748
  136OSM    C5F14816   3.191   6.556   7.043 -0.2877  0.3018 -0.1289
  136OSM    H5F14817   3.147   6.477   7.107  0.4937 -1.4437 -1.6671
  136OSM    H5G14818   3.122   6.642   7.035  1.5504  1.7524 -1.3702
  136OSM    C6F14819   3.314   6.605   7.124 -0.1149  0.2444  0.4920
  136OSM    H6F14820   3.334   6.707   7.086 -2.7640  0.5556 -0.2275
  136OSM    H6G14821   3.399   6.536   7.103 -0.0953  0.7263 -1.1496
  136OSM    C7F14822   3.290   6.600   7.274 -0.4870 -0.7831 -0.1616
  136OSM    H7F14823   3.245   6.502   7.299 -0.3841 -0.4371  1.5241
  136OSM    H7G14824   3.222   6.678   7.313 -1.8287 -0.5514 -2.7883
  136OSM    C8F14825   3.424   6.614   7.357 -0.2550 -0.4236 -0.2238
  136OSM    H8F14826   3.510   6.556   7.316  0.5576  1.4371 -1.2803
  136OSM    H8G14827   3.394   6.571   7.455 -2.1268 -1.7099 -1.2954
  136OSM    C9F14828   3.463   6.756   7.390 -0.1975  0.1274 -0.5889
  136OSM    H9F14829   3.410   6.838   7.340  0.2071 -0.1402 -1.4944
  136OSM   C10F14830   3.562   6.786   7.476  0.7390 -0.0348  0.4951
  136OSM   H10F14831   3.592   6.892   7.471 -0.6696  0.3311 -1.2793
  136OSM   C11F14832   3.656   6.701   7.569 -0.0162 -0.3907  0.7039
  136OSM   H11F14833   3.760   6.729   7.543 -0.4770 -0.2070 -1.1294
  136OSM   H11G14834   3.632   6.594   7.549  0.4392 -0.3357 -0.1763
  136OSM   C12F14835   3.646   6.719   7.720 -0.2930  0.2626  0.1848
  136OSM   H12F14836   3.550   6.680   7.760 -0.4269 -0.8748 -1.1587
  136OSM   H12G14837   3.648   6.829   7.733  0.9339  0.2672  0.0805
  136OSM   C13F14838   3.757   6.655   7.799 -0.6941 -0.6187 -0.1408
  136OSM   H13F14839   3.845   6.691   7.742 -0.1918  0.8918  1.4939
  136OSM   H13G14840   3.750   6.544   7.800  0.5486 -0.7203  1.0183
  136OSM   C14F14841   3.777   6.705   7.941  0.6584  0.5736  0.4820
  136OSM   H14F14842   3.677   6.694   7.987 -0.9887  0.0543 -2.8788
  136OSM   H14G14843   3.790   6.815   7.939 -0.9376  0.7731  0.4253
  136OSM   C15F14844   3.876   6.629   8.029 -0.0926 -0.0052 -0.3743
  136OSM   H15F14845   3.981   6.661   8.012 -0.5443  2.0317  0.3939
  136OSM   H15G14846   3.882   6.521   8.001 -0.5704 -0.3691  0.8482
  136OSM   C16F14847   3.844   6.631   8.184  0.7670  0.9898  0.1661
  136OSM   H16F14848   3.914   6.551   8.217 -1.6925 -0.7813  1.3850
  136OSM   H16G14849   3.740   6.604   8.210  0.6971  2.7947  2.0085
  136OSM   C17F14850   3.866   6.759   8.257  0.3309 -0.0602  0.9727
  136OSM   H17F14851   3.841   6.743   8.364  3.3915 -1.6890  1.5567
  136OSM   H17G14852   3.811   6.842   8.207  0.1758 -0.5117  0.3766
  136OSM   C18F14853   4.012   6.793   8.258 -0.2147 -0.1622  0.3513
  136OSM   H18F14854   4.022   6.897   8.295  2.2272  0.0100 -0.6201
  136OSM   H18G14855   4.060   6.785   8.158 -0.8615  0.1209  0.0107
  136OSM   H18H14856   4.074   6.736   8.330  0.9514  0.1642 -0.3641
  137OSM      N14857   5.721   4.063   6.407  0.4644  0.8111 -0.0326
  137OSM    C1514858   5.741   3.919   6.420 -0.2078  0.5322  0.4562
  137OSM   H15A14859   5.646   3.877   6.449 -0.8461  2.2277  0.9637
  137OSM   H15B14860   5.819   3.887   6.488  1.5464  1.3585 -1.0927
  137OSM   H15C14861   5.771   3.871   6.328 -0.0256 -0.5588  1.0636
  137OSM    C1414862   5.628   4.087   6.300 -0.0556 -0.4843  0.1518
  137OSM   H14A14863   5.535   4.036   6.320 -1.1906  1.3809 -0.1362
  137OSM   H14B14864   5.666   4.066   6.201  0.7339  0.4476  0.2334
  137OSM   H14C14865   5.607   4.193   6.293 -0.4770 -0.2948  3.1458
  137OSM    C1314866   5.661   4.106   6.536  1.0095 -0.1599 -0.6727
  137OSM   H13A14867   5.588   4.033   6.568  1.2568 -0.4246 -0.7010
  137OSM   H13B14868   5.629   4.209   6.535  0.6539 -0.2066  1.2907
  137OSM   H13C14869   5.736   4.097   6.614 -0.3936 -1.9289  0.5662
  137OSM    C1214870   5.849   4.128   6.375  0.1600 -0.2583 -0.3521
  137OSM   H12A14871   5.836   4.233   6.352  1.0684  0.1118  0.7740
  137OSM   H12B14872   5.885   4.081   6.285 -2.5303  0.4059 -1.9019
  137OSM    C1114873   5.951   4.114   6.488 -0.2388  0.6734  0.5767
  137OSM   H11A14874   5.912   4.136   6.589  2.0650 -0.3781  1.7725
  137OSM   H11B14875   6.030   4.189   6.465  0.4605 -0.5928 -1.3978
  137OSM      P14876   6.158   3.954   6.518 -0.4680  0.2976  0.2748
  137OSM    O1314877   6.188   3.809   6.504  0.1063 -0.9144  0.5747
  137OSM    O1414878   6.238   4.046   6.437 -0.3470  0.1949  0.3271
  137OSM    O1114879   6.174   3.997   6.668 -0.4589  0.7452 -0.0588
  137OSM    O1214880   6.008   3.986   6.482 -0.3885  0.2722  0.5100
  137OSM    C1S14881   6.149   3.912   6.773 -0.7729  0.3314 -0.1824
  137OSM    H1S14882   6.210   3.820   6.759 -0.6754  0.4452 -0.5158
  137OSM    H1T14883   6.046   3.871   6.782 -0.7884  0.6538  1.3493
  137OSM     NF14884   6.210   3.880   7.005 -0.4547  0.3159  0.0151
  137OSM    HNF14885   6.142   3.820   7.047  1.1126 -1.0777  0.6425
  137OSM    C2S14886   6.171   3.984   6.913  0.6802  0.4337 -0.8299
  137OSM    H2S14887   6.262   4.048   6.904  0.9555  0.3396  0.9919
  137OSM    C3S14888   6.049   4.064   6.952  0.9131  0.0910  0.3907
  137OSM    H3S14889   5.965   3.995   6.975 -1.1963  3.0685  2.4471
  137OSM     O314890   5.999   4.147   6.850 -0.3780  0.3119 -0.2480
  137OSM    HO314891   6.024   4.108   6.766  0.7937  2.7852 -1.1387
  137OSM    C4S14892   6.070   4.137   7.083 -0.8519  0.3895 -0.1434
  137OSM    H4S14893   6.056   4.077   7.174 -2.0355 -1.4794 -1.4834
  137OSM    C5S14894   6.124   4.258   7.094  0.6240 -0.8047 -0.3270
  137OSM    H5S14895   6.165   4.311   7.007  1.5604 -1.9537 -0.6127
  137OSM    C6S14896   6.146   4.329   7.224 -0.4942 -0.5531 -1.1492
  137OSM    H6S14897   6.095   4.427   7.214 -1.4974 -0.9185  0.0950
  137OSM    H6T14898   6.253   4.353   7.240 -0.8700  0.0573  0.6782
  137OSM    C7S14899   6.100   4.260   7.348 -0.3885  0.1696 -0.1940
  137OSM    H7S14900   6.145   4.159   7.345  0.7659  0.6869 -2.1114
  137OSM    H7T14901   5.990   4.259   7.360 -0.2078  0.7919  1.9498
  137OSM    C8S14902   6.140   4.331   7.479 -0.1979 -0.5136 -0.0721
  137OSM    H8S14903   6.097   4.434   7.482 -1.2422 -0.9552  0.4689
  137OSM    H8T14904   6.251   4.339   7.485 -0.3668  1.7212  1.6792
  137OSM    C9S14905   6.082   4.263   7.604  0.3477  0.3662 -0.1695
  137OSM    H9S14906   6.127   4.162   7.616 -2.0110 -1.1517 -2.9244
  137OSM    H9T14907   5.972   4.259   7.598  0.4040  0.7802 -2.6254
  137OSM   C10S14908   6.110   4.338   7.737  0.2839 -0.0852  0.4372
  137OSM   H10S14909   6.075   4.443   7.724  0.3542  0.2377  2.4858
  137OSM   H10T14910   6.219   4.350   7.755  0.4522 -1.2063  0.2508
  137OSM   C11S14911   6.034   4.283   7.861 -0.7492  0.0563  0.6355
  137OSM   H11S14912   5.936   4.237   7.834  0.6468 -3.5007  1.1723
  137OSM   H11T14913   6.025   4.372   7.928 -1.5919  0.6811 -0.2765
  137OSM   C12S14914   6.131   4.184   7.930 -0.1657 -0.5431  0.5413
  137OSM   H12S14915   6.236   4.217   7.916  0.3798 -2.8143 -1.4241
  137OSM   H12T14916   6.135   4.089   7.872 -0.1800 -0.0952 -0.2071
  137OSM   C13S14917   6.107   4.146   8.071 -0.0259 -0.0046 -0.0922
  137OSM   H13S14918   6.188   4.082   8.110 -0.2123 -1.7026 -2.3148
  137OSM   H13T14919   6.012   4.088   8.070  0.0417 -0.1775 -2.3489
  137OSM   C14S14920   6.099   4.269   8.164 -0.0403  0.5052  0.2185
  137OSM   H14S14921   5.995   4.307   8.159  0.2862  1.3831 -0.0298
  137OSM   H14T14922   6.177   4.338   8.125 -0.0711 -0.4547 -1.6490
  137OSM   C15S14923   6.137   4.249   8.316  1.1896 -0.6547 -0.2451
  137OSM   H15S14924   6.226   4.182   8.315  1.3349 -0.4999  1.0090
  137OSM   H15T14925   6.063   4.191   8.376  0.3134  0.3499 -0.3201
  137OSM   C16S14926   6.169   4.384   8.391 -0.5842 -0.1956  0.2444
  137OSM   H16S14927   6.250   4.433   8.332  0.9018 -0.4557  2.0010
  137OSM   H16T14928   6.190   4.379   8.500 -0.0007 -0.0084  0.1449
  137OSM   C17S14929   6.050   4.489   8.380 -0.2127  0.2554 -0.5635
  137OSM   H17S14930   6.017   4.512   8.276  2.7629  0.6934 -1.5007
  137OSM   H17T14931   6.096   4.583   8.418  0.9541 -1.4734  2.7328
  137OSM   C18S14932   5.930   4.469   8.472  0.2950 -0.6415  0.0233
  137OSM   H18S14933   5.915   4.362   8.499 -0.0111 -0.1125  2.0675
  137OSM   H18T14934   5.844   4.517   8.421  0.2591 -1.2777 -0.5306
  137OSM   H18U14935   5.948   4.520   8.568 -0.1532 -1.0853  0.3478
  137OSM    C1F14936   6.327   3.817   6.992  0.2775 -0.2580 -0.1302
  137OSM     OF14937   6.428   3.866   6.939  0.4635 -0.5963 -0.5088
  137OSM    C2F14938   6.342   3.677   7.049 -0.1218  0.2767 -0.0492
  137OSM    H2F14939   6.282   3.611   6.983 -0.0645 -0.5883  0.7583
  137OSM    H2G14940   6.293   3.675   7.149 -0.2033  0.0232 -0.0954
  137OSM    C3F14941   6.491   3.618   7.045 -0.2971 -0.1225 -0.3177
  137OSM    H3F14942   6.541   3.636   6.948  1.1051 -0.9628  0.2293
  137OSM    H3G14943   6.476   3.510   7.067 -0.8230  0.0678  0.3102
  137OSM    C4F14944   6.562   3.685   7.159 -0.0324  0.7372 -0.5781
  137OSM    H4F14945   6.501   3.688   7.252  0.4463 -2.3864 -0.0563
  137OSM    H4G14946   6.588   3.792   7.139  1.2638  0.4620 -0.4250
  137OSM    C5F14947   6.702   3.615   7.178  0.0543  0.7258  0.1565
  137OSM    H5F14948   6.764   3.665   7.256 -0.1452  0.2870  0.5990
  137OSM    H5G14949   6.750   3.605   7.077  1.2751 -1.7002  0.8797
  137OSM    C6F14950   6.706   3.468   7.210  0.8732 -0.2495 -0.2588
  137OSM    H6F14951   6.808   3.440   7.243  1.2981  0.1913 -1.1711
  137OSM    H6G14952   6.678   3.403   7.125 -0.8786  2.3804 -1.8427
  137OSM    C7F14953   6.616   3.428   7.331  0.2234  0.8612 -0.0184
  137OSM    H7F14954   6.514   3.445   7.292  0.1355 -1.9178 -1.2530
  137OSM    H7G14955   6.637   3.499   7.414  0.6248  0.6847  0.0361
  137OSM    C8F14956   6.647   3.285   7.381 -0.3967  0.5311  0.3135
  137OSM    H8F14957   6.747   3.284   7.429  1.0900  1.5631 -2.5637
  137OSM    H8G14958   6.655   3.203   7.307 -0.7165 -0.9255  1.8221
  137OSM    C9F14959   6.540   3.253   7.484  0.0447 -0.9258 -0.7714
  137OSM    H9F14960   6.451   3.316   7.477  1.2390  0.9853  0.3721
  137OSM   C10F14961   6.558   3.165   7.584  0.3150 -1.0461  0.3838
  137OSM   H10F14962   6.480   3.152   7.661 -0.0746 -0.8310  0.0251
  137OSM   C11F14963   6.685   3.086   7.610  0.2633  0.1636  0.4360
  137OSM   H11F14964   6.764   3.164   7.603 -1.3680  1.8250 -0.4262
  137OSM   H11G14965   6.697   3.001   7.539  0.1933 -1.9364  2.8172
  137OSM   C12F14966   6.700   3.037   7.752  0.6407 -0.2849  0.0380
  137OSM   H12F14967   6.664   3.117   7.820  1.5676  2.2075 -2.2220
  137OSM   H12G14968   6.810   3.029   7.758  0.5516 -1.3463  0.6398
  137OSM   C13F14969   6.628   2.903   7.772  0.1372 -0.4947  0.8289
  137OSM   H13F14970   6.691   2.831   7.715  0.2121  0.7245 -0.6956
  137OSM   H13G14971   6.529   2.908   7.723 -0.3482 -1.2725  1.7039
  137OSM   C14F14972   6.622   2.874   7.920 -0.1505 -0.6482 -0.0471
  137OSM   H14F14973   6.716   2.891   7.976 -0.5898  0.4767  0.3919
  137OSM   H14G14974   6.602   2.765   7.927 -0.9319 -0.4403  1.2370
  137OSM   C15F14975   6.513   2.949   7.995  0.9178  0.1184 -0.2767
  137OSM   H15F14976   6.414   2.932   7.947  0.9498 -0.9881  0.0170
  137OSM   H15G14977   6.529   3.058   8.007  2.6851 -0.0322 -1.0213
  137OSM   C16F14978   6.505   2.879   8.137 -0.5862  0.2334 -0.7105
  137OSM   H16F14979   6.602   2.891   8.188  0.1432  0.3660 -2.0876
  137OSM   H16G14980   6.472   2.775   8.120 -2.9273  0.7908  0.0152
  137OSM   C17F14981   6.400   2.934   8.230  0.4560 -0.3430 -1.1960
  137OSM   H17F14982   6.385   2.858   8.309  0.3528  1.0251  0.1653
  137OSM   H17G14983   6.298   2.948   8.190  0.4063  2.1550 -0.4261
  137OSM   C18F14984   6.442   3.073   8.281  0.4580  0.2321 -0.4644
  137OSM   H18F14985   6.435   3.155   8.207 -1.1272  0.3301 -0.2353
  137OSM   H18G14986   6.545   3.082   8.322  0.3785  2.0783 -0.5736
  137OSM   H18H14987   6.375   3.092   8.367  0.8052 -1.3434  0.1818
  138OSM      N14988   0.040   0.284   6.001 -0.6610  0.1832 -0.1163
  138OSM    C1514989  -0.067   0.372   5.960  0.1585 -1.1059  0.5334
  138OSM   H15A14990  -0.163   0.329   5.980 -0.0464 -0.9101 -0.0001
  138OSM   H15B14991  -0.071   0.398   5.855  1.1125  1.9678  1.1403
  138OSM   H15C14992  -0.055   0.463   6.018  2.4734  0.1926 -1.7585
  138OSM    C1414993   0.021   0.235   6.144 -0.1528  0.4364  0.0562
  138OSM   H14A14994  -0.006   0.311   6.217 -1.1089 -1.3953  1.7395
  138OSM   H14B14995   0.109   0.187   6.184 -0.8843 -0.4942  0.6134
  138OSM   H14C14996  -0.057   0.160   6.148  0.1336  0.1423  0.1832
  138OSM    C1314997   0.037   0.161   5.916 -0.4403  0.2078 -0.0471
  138OSM   H13A14998   0.113   0.100   5.962 -1.8109  0.2345  2.3594
  138OSM   H13B14999   0.049   0.171   5.809 -3.7283 -0.0033 -0.5375
  138OSM   H13C15000  -0.055   0.107   5.926 -0.3127 -0.4192 -1.9014
  138OSM    C1215001   0.175   0.351   5.994  0.4157 -0.0050  0.5153
  138OSM   H12A15002   0.188   0.394   5.896 -0.0248 -3.6046 -1.2831
  138OSM   H12B15003   0.248   0.272   5.988 -0.2583 -0.5568 -3.7047
  138OSM    C1115004   0.215   0.452   6.103 -0.1042 -0.3700  0.1807
  138OSM   H11A15005   0.317   0.485   6.074 -0.5361  2.1253  1.2512
  138OSM   H11B15006   0.231   0.400   6.200  1.1773 -0.4192 -0.0395
  138OSM      P15007   0.047   0.608   6.242  0.5147 -0.3009 -0.2554
  138OSM    O1315008   0.095   0.715   6.330 -0.0356  0.5213  0.3611
  138OSM    O1415009  -0.082   0.640   6.177 -0.0095  0.0497 -0.4375
  138OSM    O1115010   0.018   0.474   6.323 -0.5037 -0.2228 -0.1617
  138OSM    O1215011   0.142   0.574   6.122  0.0001  0.3875  0.8308
  138OSM    C1S15012   0.093   0.414   6.425 -0.2864  0.3574 -0.2274
  138OSM    H1S15013   0.185   0.473   6.447  2.0223 -1.7771 -3.2587
  138OSM    H1T15014   0.116   0.308   6.399 -1.1948  0.0607  0.1267
  138OSM     NF15015   0.065   0.335   6.666 -0.3202 -0.0957 -0.1422
  138OSM    HNF15016   0.032   0.246   6.697 -0.0202 -1.1122 -2.5038
  138OSM    C2S15017  -0.003   0.401   6.554  0.0485 -0.4984  0.0758
  138OSM    H2S15018  -0.018   0.507   6.582  0.0422 -0.1307 -1.2456
  138OSM    C3S15019  -0.135   0.334   6.515  0.0449  0.0084  0.0243
  138OSM    H3S15020  -0.103   0.238   6.469  0.9496  1.8810 -3.6311
  138OSM     O315021  -0.211   0.399   6.411 -0.3539  0.7177 -0.3817
  138OSM    HO315022  -0.142   0.459   6.382 -0.4074  0.6905 -0.5706
  138OSM    C4S15023  -0.227   0.322   6.637  0.4342  0.5274 -0.6849
  138OSM    H4S15024  -0.232   0.419   6.689  0.3354  1.3286 -2.1332
  138OSM    C5S15025  -0.274   0.215   6.698  0.9081 -0.0948 -0.2699
  138OSM    H5S15026  -0.267   0.117   6.648 -0.0441 -2.2188  3.3680
  138OSM    C6S15027  -0.357   0.216   6.828 -1.0494 -0.0040  0.8248
  138OSM    H6S15028  -0.312   0.133   6.885 -0.6951 -0.2691  0.1793
  138OSM    H6T15029  -0.463   0.189   6.813 -1.3745 -0.7754  3.9350
  138OSM    C7S15030  -0.360   0.336   6.923 -0.7255  0.0303  0.3028
  138OSM    H7S15031  -0.389   0.435   6.881  0.2321  0.7418  1.2824
  138OSM    H7T15032  -0.255   0.353   6.952 -1.3227  2.7257  1.1862
  138OSM    C8S15033  -0.439   0.315   7.053 -1.0555 -0.5548  0.0333
  138OSM    H8S15034  -0.549   0.305   7.038 -0.9091  0.2781 -1.8621
  138OSM    H8T15035  -0.424   0.410   7.110  0.2518  0.2092 -1.5130
  138OSM    C9S15036  -0.397   0.197   7.142 -0.6404 -0.4770  0.9637
  138OSM    H9S15037  -0.287   0.196   7.155 -0.5989  0.6771  0.7444
  138OSM    H9T15038  -0.433   0.100   7.100 -0.9177 -0.5958  1.4702
  138OSM   C10S15039  -0.469   0.203   7.275  1.0567  0.7061  0.5113
  138OSM   H10S15040  -0.465   0.100   7.317 -0.9168  0.9347  1.3655
  138OSM   H10T15041  -0.578   0.223   7.283  1.2129  0.9859  2.6803
  138OSM   C11S15042  -0.395   0.301   7.364 -0.1780 -0.5102 -0.1805
  138OSM   H11S15043  -0.402   0.403   7.320 -3.1669 -1.0014 -1.0969
  138OSM   H11T15044  -0.291   0.270   7.387 -1.4413 -2.2553  4.3202
  138OSM   C12S15045  -0.461   0.309   7.506  0.3897  0.5657  0.7063
  138OSM   H12S15046  -0.414   0.229   7.567  0.5838  1.7802  2.2122
  138OSM   H12T15047  -0.568   0.282   7.496  1.2945 -3.1508 -0.7542
  138OSM   C13S15048  -0.423   0.447   7.570 -0.5010  0.2448  1.0638
  138OSM   H13S15049  -0.470   0.523   7.504 -3.7675 -2.2731  0.2249
  138OSM   H13T15050  -0.313   0.456   7.570 -0.2655 -1.3575 -1.8380
  138OSM   C14S15051  -0.493   0.465   7.707 -0.3011  0.4046 -0.3966
  138OSM   H14S15052  -0.603   0.451   7.708 -0.0391 -2.1980 -1.0737
  138OSM   H14T15053  -0.464   0.566   7.745 -0.8823  0.4846 -0.1467
  138OSM   C15S15054  -0.437   0.362   7.806  0.1158  0.6229  0.1375
  138OSM   H15S15055  -0.330   0.334   7.801  0.0575 -0.0108  1.8446
  138OSM   H15T15056  -0.474   0.260   7.781 -0.4019  0.2138  2.3772
  138OSM   C16S15057  -0.479   0.400   7.951  0.1177  0.4564 -0.1538
  138OSM   H16S15058  -0.590   0.394   7.956  0.2047 -2.5576 -0.3365
  138OSM   H16T15059  -0.453   0.505   7.976  1.8954 -0.2563  1.1630
  138OSM   C17S15060  -0.406   0.310   8.054  0.5383  0.5143 -1.3355
  138OSM   H17S15061  -0.438   0.331   8.158  0.9644  0.2131 -1.1398
  138OSM   H17T15062  -0.299   0.341   8.047  0.7613 -0.3987 -2.2772
  138OSM   C18S15063  -0.424   0.159   8.035 -0.9885  0.1660  0.8913
  138OSM   H18S15064  -0.533   0.140   8.028 -0.9985  0.7119 -0.6984
  138OSM   H18T15065  -0.378   0.100   8.118  0.7441  0.5397  0.2581
  138OSM   H18U15066  -0.381   0.132   7.936 -0.7423 -0.4907  1.1711
  138OSM    C1F15067   0.178   0.387   6.722  0.0076 -0.6485 -0.3495
  138OSM     OF15068   0.223   0.494   6.685 -0.1178 -0.5824  0.5624
  138OSM    C2F15069   0.252   0.306   6.824 -0.5268  0.6747  0.2895
  138OSM    H2F15070   0.363   0.301   6.818 -0.3868 -1.1214  2.7946
  138OSM    H2G15071   0.224   0.199   6.810 -0.9721  0.6105  1.5096
  138OSM    C3F15072   0.219   0.336   6.972  0.3944  0.1040 -1.1690
  138OSM    H3F15073   0.113   0.306   6.985  0.4875  0.1432 -0.2757
  138OSM    H3G15074   0.242   0.442   6.996 -1.1416  0.5867 -1.7069
  138OSM    C4F15075   0.292   0.246   7.076  0.9182 -0.9109 -0.1372
  138OSM    H4F15076   0.402   0.253   7.065  0.7524  3.0107 -0.5529
  138OSM    H4G15077   0.263   0.140   7.058  1.4047 -0.9447 -0.7514
  138OSM    C5F15078   0.271   0.296   7.222  0.3374 -0.3429 -0.2083
  138OSM    H5F15079   0.164   0.296   7.252  1.1850 -0.3811  3.2150
  138OSM    H5G15080   0.305   0.401   7.231  1.2575 -0.7350  1.1772
  138OSM    C6F15081   0.336   0.207   7.324  0.2512  0.9742 -0.1948
  138OSM    H6F15082   0.435   0.192   7.276 -0.0375 -0.2202 -0.4531
  138OSM    H6G15083   0.295   0.103   7.324  0.4481  0.8953 -0.0957
  138OSM    C7F15084   0.342   0.268   7.460 -0.1375  0.3750  0.1775
  138OSM    H7F15085   0.246   0.300   7.505 -0.3162  0.9808 -0.6310
  138OSM    H7G15086   0.402   0.359   7.439  0.4148 -0.5169 -2.4390
  138OSM    C8F15087   0.433   0.187   7.558  0.0137 -0.9153 -0.0264
  138OSM    H8F15088   0.528   0.151   7.513  0.1449 -2.0038  1.0468
  138OSM    H8G15089   0.371   0.098   7.585 -0.0714 -0.5883  0.9028
  138OSM    C9F15090   0.460   0.275   7.676 -0.0315  0.1144 -1.2654
  138OSM    H9F15091   0.525   0.362   7.656  2.0768 -0.7995  1.0301
  138OSM   C10F15092   0.424   0.257   7.809 -0.0873  0.0089 -0.4272
  138OSM   H10F15093   0.461   0.333   7.880 -0.4992  1.4617 -1.7113
  138OSM   C11F15094   0.343   0.138   7.867 -0.0296  0.0224  0.2148
  138OSM   H11F15095   0.265   0.120   7.790  0.4750  2.5469 -0.9932
  138OSM   H11G15096   0.294   0.166   7.963  3.3696 -0.0458  2.1190
  138OSM   C12F15097   0.407  -0.006   7.889 -0.0452 -0.4397 -0.1848
  138OSM   H12F15098   0.448  -0.052   7.797  3.1605 -1.2576  1.4971
  138OSM   H12G15099   0.327  -0.073   7.930 -0.7181  0.1253 -0.5502
  138OSM   C13F15100   0.525  -0.010   7.993 -0.4582  0.2253 -0.0791
  138OSM   H13F15101   0.604   0.041   7.934  3.4124 -2.6232  2.2619
  138OSM   H13G15102   0.558  -0.110   8.029 -0.8497  0.3363  0.6032
  138OSM   C14F15103   0.493   0.067   8.126  0.0768 -0.1953  0.6887
  138OSM   H14F15104   0.396   0.039   8.170 -0.9412  1.3949 -0.4201
  138OSM   H14G15105   0.498   0.177   8.112 -1.5241  0.0400  1.7371
  138OSM   C15F15106   0.611   0.049   8.223  0.0676  0.2473  0.4544
  138OSM   H15F15107   0.701   0.084   8.169 -0.4156  1.7527  0.5730
  138OSM   H15G15108   0.615  -0.057   8.255 -4.2451 -0.4646 -0.7228
  138OSM   C16F15109   0.601   0.138   8.350 -0.1741  0.3699  0.3275
  138OSM   H16F15110   0.619   0.245   8.325 -2.2363  0.3011 -1.7053
  138OSM   H16G15111   0.683   0.093   8.411 -0.1481 -2.0898 -1.3926
  138OSM   C17F15112   0.469   0.133   8.425 -0.3835  0.2840 -0.5046
  138OSM   H17F15113   0.445   0.027   8.450 -0.9537  0.4322 -0.3966
  138OSM   H17G15114   0.384   0.171   8.364 -0.7390 -0.2336 -0.3387
  138OSM   C18F15115   0.473   0.221   8.555 -0.5370  0.5051  0.7878
  138OSM   H18F15116   0.575   0.211   8.598  0.8348  0.0682 -2.2879
  138OSM   H18G15117   0.388   0.196   8.622  0.4347 -2.1725  1.1271
  138OSM   H18H15118   0.456   0.329   8.531 -0.7776  0.3271  0.1348
  139OSM      N15119   4.866   0.081   5.990  0.4641  0.1415  0.3979
  139OSM    C1515120   4.821   0.197   5.915 -0.5421  0.0888 -0.2779
  139OSM   H15A15121   4.728   0.175   5.865 -1.3085 -0.3346  1.2678
  139OSM   H15B15122   4.895   0.223   5.841  0.4170 -0.4424  0.4682
  139OSM   H15C15123   4.806   0.278   5.985  0.4481 -0.3572  0.4908
  139OSM    C1415124   4.746  -0.002   6.004 -0.0645 -0.1089 -0.1148
  139OSM   H14A15125   4.760  -0.104   6.037  1.5523  0.2162  0.2620
  139OSM   H14B15126   4.703  -0.006   5.905 -0.1310 -0.7099 -0.0641
  139OSM   H14C15127   4.676   0.049   6.069  2.3496  1.5487  1.3537
  139OSM    C1315128   4.955   0.009   5.897 -0.0887  0.0941  0.4186
  139OSM   H13A15129   5.045   0.068   5.885  0.6161 -0.8260  1.0204
  139OSM   H13B15130   4.909  -0.002   5.800  0.3730  0.9840  0.0769
  139OSM   H13C15131   4.985  -0.087   5.936 -1.4208 -1.4903 -2.1752
  139OSM    C1215132   4.930   0.124   6.118  0.0107  0.3416  0.4332
  139OSM   H12A15133   4.963   0.034   6.167 -0.5567 -0.2421 -0.2454
  139OSM   H12B15134   4.851   0.161   6.182  0.7245  0.6880  1.1261
  139OSM    C1115135   5.055   0.214   6.117 -0.8553  0.2651 -0.0470
  139OSM   H11A15136   5.133   0.174   6.050 -1.0871 -1.8500  0.8872
  139OSM   H11B15137   5.105   0.218   6.216 -0.3637 -2.3336 -0.1368
  139OSM      P15138   4.969   0.460   6.180  0.2749  0.2576  0.2078
  139OSM    O1315139   5.070   0.571   6.186  0.0511 -0.4521  0.3023
  139OSM    O1415140   4.834   0.500   6.132  0.2323  0.1887  0.4203
  139OSM    O1115141   4.953   0.385   6.322  0.2664 -0.0307  0.0322
  139OSM    O1215142   5.024   0.352   6.077  0.5404  0.4829 -0.0348
  139OSM    C1S15143   5.042   0.437   6.425 -0.2668  0.3169 -0.3899
  139OSM    H1S15144   5.046   0.548   6.421  0.8093  0.3409  0.7184
  139OSM    H1T15145   5.140   0.393   6.397 -0.4934  1.0624 -2.5188
  139OSM     NF15146   5.066   0.455   6.675  0.5620 -0.4578 -0.1870
  139OSM    HNF15147   5.146   0.422   6.725 -1.3823 -1.3624  2.5352
  139OSM    C2S15148   5.002   0.385   6.563 -0.3465  0.4429 -0.0256
  139OSM    H2S15149   4.891   0.389   6.567 -0.4426 -1.2192 -0.3251
  139OSM    C3S15150   5.039   0.235   6.569  0.2180 -0.1975 -0.7628
  139OSM    H3S15151   5.149   0.221   6.561  0.1446 -1.2300 -0.1828
  139OSM     O315152   4.993   0.155   6.459  0.2140  0.2860  0.4110
  139OSM    HO315153   4.962   0.219   6.395 -2.5276 -1.7933 -0.5316
  139OSM    C4S15154   4.991   0.167   6.685  0.3375 -0.4880 -0.3814
  139OSM    H4S15155   4.882   0.150   6.684  0.3826 -0.9383  0.7367
  139OSM    C5S15156   5.067   0.131   6.790 -0.0835  0.2364  0.2198
  139OSM    H5S15157   5.175   0.151   6.780 -0.3695  0.7242 -3.6387
  139OSM    C6S15158   5.034   0.051   6.916 -0.3520 -0.8723 -0.1442
  139OSM    H6S15159   5.054   0.124   6.997  1.9327 -1.2724 -0.2836
  139OSM    H6T15160   5.110  -0.030   6.923  2.1416  1.2638 -1.2369
  139OSM    C7S15161   4.892  -0.008   6.928 -0.3882 -0.2360 -0.7470
  139OSM    H7S15162   4.851  -0.059   6.838  0.5215 -2.3841 -0.0144
  139OSM    H7T15163   4.825   0.080   6.925 -0.2476 -0.1556 -2.9321
  139OSM    C8S15164   4.865  -0.092   7.051 -0.4318  0.6582  0.1833
  139OSM    H8S15165   4.940  -0.173   7.037  1.4602  2.5793 -1.6084
  139OSM    H8T15166   4.767  -0.144   7.044  0.1539 -0.3832 -0.5258
  139OSM    C9S15167   4.880  -0.011   7.180 -0.6018 -0.5216  0.1906
  139OSM    H9S15168   4.808   0.073   7.177  0.2135  0.2728  1.6002
  139OSM    H9T15169   4.986   0.019   7.179 -0.8171  0.3399  1.1191
  139OSM   C10S15170   4.856  -0.107   7.296 -0.2732  0.1865 -0.1464
  139OSM   H10S15171   4.931  -0.188   7.296  4.4208  4.0407  1.1553
  139OSM   H10T15172   4.758  -0.158   7.290 -0.4277  0.0646  2.4205
  139OSM   C11S15173   4.872  -0.036   7.431  0.3155  0.0189  0.1698
  139OSM   H11S15174   4.809   0.056   7.427 -1.2165 -1.0492 -2.4129
  139OSM   H11T15175   4.977   0.001   7.442  0.1858  0.5556 -0.3569
  139OSM   C12S15176   4.832  -0.122   7.550  0.3870 -0.1291  0.3766
  139OSM   H12S15177   4.869  -0.226   7.555 -1.5248 -0.7960  3.0768
  139OSM   H12T15178   4.722  -0.135   7.541  0.5375 -0.9648 -0.2761
  139OSM   C13S15179   4.859  -0.054   7.681  0.5494 -0.1038 -0.7789
  139OSM   H13S15180   4.801   0.040   7.689 -0.5159 -0.6678 -1.6463
  139OSM   H13T15181   4.964  -0.020   7.696  0.4913 -0.2585  0.0479
  139OSM   C14S15182   4.812  -0.152   7.789  0.2153 -0.3176  0.3883
  139OSM   H14S15183   4.860  -0.251   7.778  1.3280  0.0299  1.7457
  139OSM   H14T15184   4.705  -0.179   7.774  0.1152  0.2286  0.0693
  139OSM   C15S15185   4.840  -0.092   7.930 -0.7292  0.9042  0.4886
  139OSM   H15S15186   4.791   0.007   7.933 -0.5835  0.9599  1.2937
  139OSM   H15T15187   4.948  -0.067   7.940 -0.2594 -1.0264  0.6091
  139OSM   C16S15188   4.784  -0.181   8.035  0.5556  0.1811 -0.5996
  139OSM   H16S15189   4.841  -0.276   8.043  1.5893  0.8317  0.1144
  139OSM   H16T15190   4.681  -0.200   7.999 -0.0885  2.1047  0.0618
  139OSM   C17S15191   4.790  -0.118   8.172  0.0275  0.4639  0.0666
  139OSM   H17S15192   4.729  -0.026   8.164  0.9827  1.2059  0.8938
  139OSM   H17T15193   4.893  -0.080   8.187  0.5569  0.2594 -2.6256
  139OSM   C18S15194   4.736  -0.202   8.291 -0.4437  0.6731  0.0045
  139OSM   H18S15195   4.635  -0.244   8.267 -0.2171  0.2249 -0.1787
  139OSM   H18T15196   4.728  -0.140   8.382  0.1367  0.8678 -0.0735
  139OSM   H18U15197   4.801  -0.289   8.313  0.4937  1.8968  2.4340
  139OSM    C1F15198   5.005   0.564   6.721  0.5623 -0.5056  0.3201
  139OSM     OF15199   4.914   0.622   6.659 -0.0038 -0.4975  0.3039
  139OSM    C2F15200   5.049   0.617   6.851  0.6220  0.3118  0.2101
  139OSM    H2F15201   5.086   0.721   6.838  0.1142  0.3280 -1.3431
  139OSM    H2G15202   5.124   0.550   6.897  0.3999  0.2600  0.5004
  139OSM    C3F15203   4.929   0.613   6.961  0.0705  0.4550  0.5540
  139OSM    H3F15204   4.839   0.658   6.914 -0.0224 -1.1104 -0.8591
  139OSM    H3G15205   4.949   0.676   7.050  0.6280 -0.0992  0.8318
  139OSM    C4F15206   4.901   0.472   7.001  0.1953 -0.6925  0.4033
  139OSM    H4F15207   4.940   0.405   6.921  1.3838  1.0757 -0.5491
  139OSM    H4G15208   4.791   0.456   7.008 -0.5644  3.2247 -0.4837
  139OSM    C5F15209   4.965   0.423   7.136 -0.5745 -0.1102  0.7236
  139OSM    H5F15210   5.072   0.421   7.109 -0.6426  0.1725  0.4226
  139OSM    H5G15211   4.927   0.319   7.143 -2.5087  0.6049  1.4488
  139OSM    C6F15212   4.929   0.479   7.275  0.4118  0.2601  0.5124
  139OSM    H6F15213   4.926   0.590   7.274  0.5979  0.2800 -0.8211
  139OSM    H6G15214   5.003   0.443   7.350 -1.6392 -1.2678  1.8780
  139OSM    C7F15215   4.789   0.437   7.319  0.1422 -0.9111  0.6012
  139OSM    H7F15216   4.796   0.326   7.328  2.0724 -0.8550  0.3026
  139OSM    H7G15217   4.723   0.468   7.235  0.3123  2.1940  1.4775
  139OSM    C8F15218   4.739   0.518   7.447  1.2516  0.5582  0.2921
  139OSM    H8F15219   4.631   0.525   7.471  0.9968  1.0059 -0.9409
  139OSM    H8G15220   4.761   0.626   7.435 -0.3812  0.6963 -2.0516
  139OSM    C9F15221   4.828   0.465   7.563 -0.3786  0.3231 -0.4089
  139OSM    H9F15222   4.895   0.380   7.543  0.6052  1.2334 -1.1444
  139OSM   C10F15223   4.827   0.521   7.685 -0.1865 -0.0680 -0.0568
  139OSM   H10F15224   4.897   0.471   7.753  0.3340  0.0050 -0.5383
  139OSM   C11F15225   4.744   0.637   7.738 -0.7596  0.2470 -0.4546
  139OSM   H11F15226   4.653   0.645   7.675 -1.7799 -3.3213  0.3633
  139OSM   H11G15227   4.822   0.717   7.733 -0.0475 -0.2699  1.5047
  139OSM   C12F15228   4.685   0.640   7.878  0.1301 -0.2885 -0.6851
  139OSM   H12F15229   4.625   0.549   7.898 -1.3515  0.5820 -0.9321
  139OSM   H12G15230   4.611   0.723   7.887  3.4440  2.7478  1.3605
  139OSM   C13F15231   4.789   0.653   7.994  0.5225 -0.4915 -0.1705
  139OSM   H13F15232   4.859   0.738   7.979 -0.5027  0.4400  0.1891
  139OSM   H13G15233   4.853   0.562   7.987  1.5402  0.1073  1.0233
  139OSM   C14F15234   4.741   0.663   8.142 -0.1068  0.0831  0.7054
  139OSM   H14F15235   4.675   0.577   8.169 -2.4244  1.8634  0.9712
  139OSM   H14G15236   4.683   0.757   8.149 -0.6824 -0.1697 -0.4268
  139OSM   C15F15237   4.851   0.665   8.247  0.1658  0.2430 -0.3609
  139OSM   H15F15238   4.911   0.758   8.236 -0.4838  0.7760  0.5347
  139OSM   H15G15239   4.918   0.576   8.242  3.1507  2.2359  1.0679
  139OSM   C16F15240   4.784   0.672   8.388 -0.1057  0.1625 -0.0154
  139OSM   H16F15241   4.849   0.622   8.462  1.7351 -1.2706 -2.4709
  139OSM   H16G15242   4.690   0.613   8.398  0.4349 -1.0466 -1.7638
  139OSM   C17F15243   4.747   0.820   8.431 -1.1435 -0.0616  0.0499
  139OSM   H17F15244   4.679   0.811   8.519 -2.1333 -0.5445 -0.7449
  139OSM   H17G15245   4.679   0.853   8.349  1.0344 -2.2431 -2.8509
  139OSM   C18F15246   4.863   0.917   8.463  0.1550  0.1927 -0.4040
  139OSM   H18F15247   4.818   1.015   8.488  0.5545 -0.5048  3.7367
  139OSM   H18G15248   4.935   0.932   8.379  0.5170  0.6210 -0.0266
  139OSM   H18H15249   4.916   0.875   8.551 -0.0098 -1.9277 -1.2589
  140OSM      N15250   4.915   1.461   6.082  0.3253 -0.3111 -1.4537
  140OSM    C1515251   4.827   1.341   6.057 -0.0739 -0.5353 -0.1989
  140OSM   H15A15252   4.881   1.248   6.061 -0.0786 -0.7093 -2.8016
  140OSM   H15B15253   4.791   1.333   5.956 -0.3110  0.2133 -0.1846
  140OSM   H15C15254   4.739   1.339   6.120 -0.7272  1.8295 -0.9307
  140OSM    C1415255   5.032   1.457   5.994 -0.7558  0.1655  0.2736
  140OSM   H14A15256   5.112   1.522   6.028 -0.1377 -0.1993 -0.4546
  140OSM   H14B15257   5.006   1.505   5.901 -3.5120  0.8718  1.3092
  140OSM   H14C15258   5.067   1.355   5.993 -0.8425 -0.0859  4.5022
  140OSM    C1315259   4.838   1.584   6.040 -0.5034  0.2983  0.4542
  140OSM   H13A15260   4.802   1.581   5.939 -0.2422  1.3437  0.3142
  140OSM   H13B15261   4.901   1.669   6.063  0.1459 -0.0510 -0.0163
  140OSM   H13C15262   4.749   1.609   6.096 -0.9826 -1.3983  0.5033
  140OSM    C1215263   4.949   1.472   6.233 -0.4649  0.2196  0.8008
  140OSM   H12A15264   5.020   1.392   6.248 -0.9406 -0.8502 -2.0300
  140OSM   H12B15265   4.859   1.449   6.288 -0.2808 -0.1285  0.9579
  140OSM    C1115266   5.027   1.600   6.275 -0.0923 -0.0793 -0.0389
  140OSM   H11A15267   5.016   1.607   6.385  1.3643 -0.1221  0.1355
  140OSM   H11B15268   4.975   1.690   6.236 -3.9054 -1.4401  1.4463
  140OSM      P15269   5.271   1.694   6.249 -0.0403 -0.1625 -0.0755
  140OSM    O1315270   5.400   1.639   6.208 -0.2198  0.2604 -0.1419
  140OSM    O1415271   5.227   1.815   6.183 -0.3863 -0.1666  0.4522
  140OSM    O1115272   5.263   1.703   6.405  0.0222  0.0758 -0.0258
  140OSM    O1215273   5.161   1.593   6.230 -1.1079 -0.8565  0.4608
  140OSM    C1S15274   5.304   1.596   6.500  0.6710  0.1788  0.4707
  140OSM    H1S15275   5.380   1.527   6.455  0.3171 -0.6032  1.0529
  140OSM    H1T15276   5.211   1.540   6.520  0.2772 -0.0312 -1.7284
  140OSM     NF15277   5.418   1.544   6.719 -0.0561  0.0820 -0.0327
  140OSM    HNF15278   5.371   1.502   6.796  0.2099  3.0010  1.8839
  140OSM    C2S15279   5.356   1.650   6.639 -0.1829 -0.2811  0.1538
  140OSM    H2S15280   5.437   1.724   6.619  1.1063 -1.6073  0.2578
  140OSM    C3S15281   5.241   1.709   6.721 -0.4105 -0.2763  0.2795
  140OSM    H3S15282   5.178   1.621   6.745  2.4729 -3.1349 -1.7586
  140OSM     O315283   5.155   1.798   6.648 -0.0164 -0.1073  0.2944
  140OSM    HO315284   5.178   1.787   6.556  0.2981  0.0192  0.3564
  140OSM    C4S15285   5.293   1.768   6.846  0.6680  0.4364  0.2116
  140OSM    H4S15286   5.310   1.686   6.917 -2.3572  0.2272  0.8229
  140OSM    C5S15287   5.317   1.895   6.872 -0.0064  0.0609 -0.3354
  140OSM    H5S15288   5.296   1.965   6.790  0.5619  0.0809 -0.4711
  140OSM    C6S15289   5.382   1.943   6.994 -0.3768 -0.2800  0.2070
  140OSM    H6S15290   5.352   2.049   7.010  2.6805  0.7539 -0.3329
  140OSM    H6T15291   5.492   1.932   7.001 -0.3390  0.3996  0.8115
  140OSM    C7S15292   5.341   1.867   7.118 -0.7067 -0.6687 -0.0281
  140OSM    H7S15293   5.372   1.760   7.123  0.0721 -0.4064  1.1519
  140OSM    H7T15294   5.230   1.875   7.119 -0.8153 -1.6500  2.3529
  140OSM    C8S15295   5.395   1.913   7.259 -0.1084 -1.0761  0.6768
  140OSM    H8S15296   5.340   2.008   7.280  2.7297  0.8472  0.0357
  140OSM    H8T15297   5.504   1.932   7.264 -0.4615  1.5590  0.0882
  140OSM    C9S15298   5.367   1.807   7.370 -0.5064 -0.1216  0.1490
  140OSM    H9S15299   5.408   1.712   7.328 -0.1322 -0.2981  0.8969
  140OSM    H9T15300   5.261   1.781   7.389 -0.7509  0.8915  0.2311
  140OSM   C10S15301   5.418   1.856   7.505 -0.0566 -0.3200 -0.3745
  140OSM   H10S15302   5.374   1.953   7.537 -0.7595 -0.6703 -0.2546
  140OSM   H10T15303   5.528   1.871   7.509 -0.1888  0.4714  1.0080
  140OSM   C11S15304   5.412   1.760   7.631  0.6048 -0.1058  0.2250
  140OSM   H11S15305   5.504   1.696   7.634  0.8070  0.2016  0.7976
  140OSM   H11T15306   5.315   1.707   7.637 -0.5078  1.6981 -1.0396
  140OSM   C12S15307   5.423   1.833   7.761 -0.9270  0.5682 -0.2705
  140OSM   H12S15308   5.324   1.870   7.795 -1.3636  1.3254 -2.1846
  140OSM   H12T15309   5.488   1.923   7.749  2.6471 -1.4401  2.1401
  140OSM   C13S15310   5.486   1.739   7.865 -0.0971 -0.0491  0.2582
  140OSM   H13S15311   5.593   1.721   7.842  0.3064  1.9574  0.3688
  140OSM   H13T15312   5.424   1.647   7.859 -1.0321  0.5799  0.0818
  140OSM   C14S15313   5.479   1.816   7.994 -0.2190 -0.1643 -0.5959
  140OSM   H14S15314   5.378   1.862   8.004  0.5252  1.0258  2.7249
  140OSM   H14T15315   5.548   1.902   8.004  1.1770 -1.3560  0.5417
  140OSM   C15S15316   5.518   1.731   8.118  0.3082 -0.7307  0.6144
  140OSM   H15S15317   5.611   1.682   8.082 -1.0272 -2.7567 -0.2329
  140OSM   H15T15318   5.436   1.656   8.120 -0.1969 -0.2205  3.3364
  140OSM   C16S15319   5.527   1.815   8.251 -0.5348  0.2310  0.9265
  140OSM   H16S15320   5.430   1.861   8.280 -0.4151  0.0304  1.6616
  140OSM   H16T15321   5.598   1.900   8.255 -0.8321  0.6333 -1.2435
  140OSM   C17S15322   5.573   1.723   8.369 -0.6160 -0.0290  0.3845
  140OSM   H17S15323   5.683   1.710   8.361 -0.4055  1.0570  1.2355
  140OSM   H17T15324   5.523   1.624   8.371  0.7044 -0.7417  2.7808
  140OSM   C18S15325   5.532   1.791   8.505 -0.2630 -0.3418 -0.3728
  140OSM   H18S15326   5.614   1.853   8.547  0.2512 -1.8882  0.9964
  140OSM   H18T15327   5.505   1.719   8.586  3.5859 -0.5729  0.9010
  140OSM   H18U15328   5.442   1.855   8.499  1.1440  1.6465 -1.2554
  140OSM    C1F15329   5.536   1.501   6.693 -0.1265 -1.1492  0.8354
  140OSM     OF15330   5.591   1.519   6.579  0.4542 -0.4536  0.4194
  140OSM    C2F15331   5.601   1.434   6.807  0.2946 -0.1478  0.1631
  140OSM    H2F15332   5.570   1.327   6.808  1.6805 -0.5734 -0.1089
  140OSM    H2G15333   5.571   1.489   6.899 -0.8736  0.5428 -0.5978
  140OSM    C3F15334   5.753   1.439   6.799 -0.1283  0.1844 -0.5004
  140OSM    H3F15335   5.781   1.546   6.788  0.4005  0.1922  0.7814
  140OSM    H3G15336   5.787   1.390   6.705  1.2558 -1.1895  0.6647
  140OSM    C4F15337   5.823   1.366   6.913 -0.2252  0.1576  0.5681
  140OSM    H4F15338   5.790   1.407   7.011  0.6487 -0.4261  1.1180
  140OSM    H4G15339   5.933   1.375   6.906 -0.0463 -1.9638  0.0452
  140OSM    C5F15340   5.782   1.217   6.912 -0.5557  0.3299  0.6288
  140OSM    H5F15341   5.786   1.161   6.816 -4.3172  0.0884  0.4334
  140OSM    H5G15342   5.681   1.206   6.957 -0.9304  3.1888  0.6811
  140OSM    C6F15343   5.881   1.139   6.996  0.0737  0.1773  0.1072
  140OSM    H6F15344   5.978   1.159   6.946  0.4551 -2.6712 -0.4620
  140OSM    H6G15345   5.849   1.034   6.985  0.8073 -0.0989  0.5459
  140OSM    C7F15346   5.884   1.186   7.149 -0.0897  0.4435  0.2884
  140OSM    H7F15347   5.922   1.290   7.140  0.0354  0.3358 -0.4876
  140OSM    H7G15348   5.966   1.133   7.200  0.3257 -1.0823 -1.8271
  140OSM    C8F15349   5.744   1.176   7.222 -0.0588 -0.7198  0.1101
  140OSM    H8F15350   5.660   1.224   7.167 -0.8033 -1.4684  0.5596
  140OSM    H8G15351   5.756   1.226   7.321 -0.4716 -1.2245  0.4212
  140OSM    C9F15352   5.705   1.034   7.254  0.1571  0.5387  0.5354
  140OSM    H9F15353   5.637   0.996   7.176  1.3415  0.9338 -0.7379
  140OSM   C10F15354   5.755   0.957   7.360 -0.5382  0.2274  0.2617
  140OSM   H10F15355   5.720   0.854   7.375 -1.5669  0.8323  2.5001
  140OSM   C11F15356   5.867   1.002   7.458  0.0056 -0.3752  0.3237
  140OSM   H11F15357   5.920   1.096   7.431  0.0449 -0.0973  1.3557
  140OSM   H11G15358   5.946   0.925   7.468  1.5812  1.1857  0.4493
  140OSM   C12F15359   5.795   1.029   7.593 -0.3559 -0.2117  0.2436
  140OSM   H12F15360   5.739   1.125   7.583 -2.6120 -1.3224  1.4575
  140OSM   H12G15361   5.878   1.039   7.667  0.7034  0.0490 -0.9385
  140OSM   C13F15362   5.711   0.905   7.640  0.1562  0.1717 -0.7217
  140OSM   H13F15363   5.776   0.816   7.659  1.9089  0.5878 -4.1320
  140OSM   H13G15364   5.637   0.867   7.567  1.1722 -2.1695 -0.6308
  140OSM   C14F15365   5.642   0.927   7.775  0.5822 -1.2205 -0.1735
  140OSM   H14F15366   5.541   0.881   7.768 -0.3097  0.8710 -3.3851
  140OSM   H14G15367   5.612   1.034   7.786 -1.0739 -1.5996 -0.6112
  140OSM   C15F15368   5.713   0.885   7.901 -0.8068 -0.6131  0.4365
  140OSM   H15F15369   5.807   0.945   7.903 -0.1428 -1.6343  0.8345
  140OSM   H15G15370   5.737   0.777   7.898 -1.0835 -0.6603 -0.1140
  140OSM   C16F15371   5.640   0.912   8.025  0.9076 -0.0314 -0.6045
  140OSM   H16F15372   5.542   0.861   8.019  0.9805 -0.1483 -0.8265
  140OSM   H16G15373   5.615   1.019   8.009 -1.0573 -0.3081  0.3501
  140OSM   C17F15374   5.731   0.886   8.146 -0.3229 -0.6932 -0.8118
  140OSM   H17F15375   5.706   0.960   8.225  2.7968  0.0595 -0.3988
  140OSM   H17G15376   5.834   0.919   8.119  0.2733 -0.4268  1.5498
  140OSM   C18F15377   5.717   0.746   8.205 -0.1723  0.4002 -0.5621
  140OSM   H18F15378   5.610   0.720   8.220  0.6074 -2.2901  0.9798
  140OSM   H18G15379   5.763   0.742   8.306 -1.1793  1.4820 -0.0430
  140OSM   H18H15380   5.768   0.677   8.134 -0.8861 -2.5811  1.6337
  141OSM      N15381   6.357   4.374   6.240  0.3770  0.8212 -0.5335
  141OSM    C1515382   6.371   4.511   6.298  0.3059  0.7099  0.8957
  141OSM   H15A15383   6.462   4.557   6.261 -0.1662 -0.0395 -1.3582
  141OSM   H15B15384   6.345   4.532   6.401  2.1548  2.9130  1.0036
  141OSM   H15C15385   6.299   4.575   6.248  0.7627  0.8935  0.4654
  141OSM    C1415386   6.373   4.377   6.090 -0.4266 -0.2752  0.1450
  141OSM   H14A15387   6.301   4.436   6.035 -3.6079 -1.8907  2.2616
  141OSM   H14B15388   6.365   4.279   6.046 -1.1000  0.4610 -1.4416
  141OSM   H14C15389   6.472   4.415   6.069 -0.9335  0.8185 -0.3446
  141OSM    C1315390   6.453   4.280   6.300 -0.5405  0.6171  0.1214
  141OSM   H13A15391   6.553   4.311   6.272 -1.0173  0.1088 -2.4017
  141OSM   H13B15392   6.434   4.181   6.261 -2.4273  1.8339 -2.3465
  141OSM   H13C15393   6.448   4.271   6.407 -1.1979 -0.5377  0.0035
  141OSM    C1215394   6.210   4.323   6.279 -0.0573 -0.3170 -0.8108
  141OSM   H12A15395   6.204   4.325   6.386  1.5002 -2.5925 -0.6186
  141OSM   H12B15396   6.197   4.220   6.249  0.6333 -0.6025 -0.1622
  141OSM    C1115397   6.089   4.411   6.223  0.5082 -0.1203 -0.1952
  141OSM   H11A15398   6.000   4.357   6.261  0.5900 -0.1527 -0.0486
  141OSM   H11B15399   6.086   4.401   6.113 -0.2298  0.6820 -0.2568
  141OSM      P15400   5.981   4.650   6.201 -0.2744  0.3960 -0.2824
  141OSM    O1315401   6.055   4.768   6.162  0.4405 -0.2091  0.2113
  141OSM    O1415402   5.899   4.586   6.098 -0.0322  0.7332 -0.0627
  141OSM    O1115403   5.888   4.683   6.316 -0.2020 -0.4294 -0.5627
  141OSM    O1215404   6.088   4.542   6.272  0.2639 -0.0443 -0.6622
  141OSM    C1S15405   5.946   4.699   6.449 -0.4257  0.7638 -0.3658
  141OSM    H1S15406   5.970   4.805   6.473 -1.8796  1.4209 -1.6348
  141OSM    H1T15407   6.041   4.645   6.468  0.1858  0.6675 -3.3048
  141OSM     NF15408   5.924   4.671   6.697 -0.3093  0.0752 -0.4213
  141OSM    HNF15409   5.955   4.586   6.739 -0.0361 -0.1288 -1.0240
  141OSM    C2S15410   5.857   4.651   6.567  0.6310 -0.4846  0.4397
  141OSM    H2S15411   5.760   4.705   6.562  1.2650  0.9444  2.2665
  141OSM    C3S15412   5.816   4.506   6.539  0.5840 -0.0226  0.0177
  141OSM    H3S15413   5.903   4.440   6.559  0.6210  0.0559  0.1138
  141OSM     O315414   5.779   4.468   6.403  0.2106 -0.0850 -0.1106
  141OSM    HO315415   5.817   4.542   6.356 -0.7067  1.2190  1.1011
  141OSM    C4S15416   5.700   4.452   6.624  0.0230 -0.9740  0.2648
  141OSM    H4S15417   5.600   4.485   6.592 -0.4100  1.8684  3.8551
  141OSM    C5S15418   5.720   4.370   6.723  0.1892  0.1354 -0.5387
  141OSM    H5S15419   5.819   4.328   6.748 -0.2492  0.1309  1.3290
  141OSM    C6S15420   5.597   4.322   6.795  0.0679  0.2708 -0.1442
  141OSM    H6S15421   5.581   4.213   6.780  1.7830 -0.3026  1.6766
  141OSM    H6T15422   5.502   4.366   6.758 -2.1667 -0.8076  3.7230
  141OSM    C7S15423   5.628   4.372   6.942 -0.3118  0.3339  0.7557
  141OSM    H7S15424   5.720   4.326   6.984 -1.0227 -1.0519  0.8658
  141OSM    H7T15425   5.552   4.337   7.016  0.2154 -1.8188  0.3573
  141OSM    C8S15426   5.625   4.522   6.950 -0.2265  0.1146  0.7032
  141OSM    H8S15427   5.545   4.563   6.884  0.2740 -2.0559 -1.4024
  141OSM    H8T15428   5.723   4.565   6.917  0.1821 -0.0697  1.6520
  141OSM    C9S15429   5.596   4.571   7.097 -0.3146 -0.1099 -0.0333
  141OSM    H9S15430   5.489   4.561   7.122  0.1065 -1.9950  1.2356
  141OSM    H9T15431   5.637   4.674   7.097 -1.5111  0.4074  1.8200
  141OSM   C10S15432   5.688   4.502   7.205 -0.0959 -0.0185 -0.2925
  141OSM   H10S15433   5.796   4.513   7.180  0.3270 -0.6360  1.1451
  141OSM   H10T15434   5.664   4.394   7.204 -1.2204  0.1770  1.3931
  141OSM   C11S15435   5.663   4.559   7.344  0.1520  0.6525  0.5900
  141OSM   H11S15436   5.555   4.563   7.368  0.4741  0.0423  2.3118
  141OSM   H11T15437   5.714   4.657   7.355 -0.0923  0.6100  2.5189
  141OSM   C12S15438   5.723   4.472   7.460 -0.0996 -0.3513 -0.9334
  141OSM   H12S15439   5.831   4.448   7.455  0.2020 -0.3424  2.7569
  141OSM   H12T15440   5.669   4.375   7.467  0.0039 -0.2986  1.5457
  141OSM   C13S15441   5.701   4.541   7.600 -0.0256  0.8397 -0.3396
  141OSM   H13S15442   5.733   4.646   7.590 -1.7772  1.1996 -3.2613
  141OSM   H13T15443   5.778   4.499   7.667 -1.8225  1.0320  1.9869
  141OSM   C14S15444   5.563   4.538   7.662 -0.3272 -0.6394 -0.5477
  141OSM   H14S15445   5.529   4.432   7.660  0.3775 -0.8929  0.5082
  141OSM   H14T15446   5.491   4.586   7.592  0.2892 -1.2055 -1.5818
  141OSM   C15S15447   5.546   4.579   7.805  0.0828  0.3947 -0.2802
  141OSM   H15S15448   5.437   4.572   7.825  0.4471 -0.0837  1.7501
  141OSM   H15T15449   5.574   4.686   7.812  1.5680 -0.0233  0.8578
  141OSM   C16S15450   5.626   4.489   7.903 -0.4427 -0.9765  0.0005
  141OSM   H16S15451   5.735   4.508   7.897 -0.9271  3.2501  1.2580
  141OSM   H16T15452   5.606   4.384   7.873  0.4897 -0.4729 -2.6622
  141OSM   C17S15453   5.579   4.511   8.048 -0.2211  0.9045 -0.5718
  141OSM   H17S15454   5.468   4.500   8.049 -0.0654 -1.0304  0.3562
  141OSM   H17T15455   5.610   4.616   8.066 -1.9427  1.4355 -0.4956
  141OSM   C18S15456   5.648   4.430   8.153  0.2803 -0.1176 -0.8030
  141OSM   H18S15457   5.617   4.324   8.155 -0.7591  0.1449  2.2465
  141OSM   H18T15458   5.623   4.472   8.253 -2.4249 -1.4957 -0.8088
  141OSM   H18U15459   5.757   4.435   8.133  0.4828 -0.1089  0.2691
  141OSM    C1F15460   5.923   4.793   6.745 -0.6510 -0.2931 -0.3778
  141OSM     OF15461   5.843   4.875   6.699 -0.0062  0.0647  0.4524
  141OSM    C2F15462   6.019   4.837   6.851  0.1755 -0.4959  0.0313
  141OSM    H2F15463   6.004   4.944   6.876 -2.4382 -1.0361  1.1123
  141OSM    H2G15464   6.122   4.835   6.810 -0.0678 -0.9480 -0.5740
  141OSM    C3F15465   5.999   4.753   6.983  0.1119  1.4346 -0.3212
  141OSM    H3F15466   6.055   4.657   6.977 -1.1701  0.6806 -0.8777
  141OSM    H3G15467   5.894   4.724   7.009  0.5553 -1.1266 -1.0545
  141OSM    C4F15468   6.062   4.823   7.105 -0.6567  0.0656 -0.6379
  141OSM    H4F15469   6.016   4.924   7.099  0.5876  0.6710 -0.2230
  141OSM    H4G15470   6.172   4.834   7.094 -0.4684 -0.9274  0.0849
  141OSM    C5F15471   6.027   4.749   7.233  0.5889  0.1628 -0.3503
  141OSM    H5F15472   6.076   4.650   7.223  1.7437  0.8574 -2.0785
  141OSM    H5G15473   5.917   4.742   7.246  0.2491  4.0635  0.1000
  141OSM    C6F15474   6.079   4.820   7.354  0.1125  1.1022 -0.2750
  141OSM    H6F15475   6.023   4.914   7.374  1.5815  1.6776  1.3695
  141OSM    H6G15476   6.186   4.842   7.337  0.2980  0.5166  0.1059
  141OSM    C7F15477   6.060   4.742   7.492  0.7247 -0.3152 -0.0775
  141OSM    H7F15478   6.117   4.646   7.492  0.2810 -0.5801  0.8245
  141OSM    H7G15479   5.952   4.723   7.507  1.1453 -1.7817  1.3371
  141OSM    C8F15480   6.107   4.831   7.614  0.1204 -0.2950  0.2023
  141OSM    H8F15481   6.061   4.930   7.596 -0.5199 -0.7686 -0.8819
  141OSM    H8G15482   6.217   4.845   7.608 -0.0399  0.5389 -1.0365
  141OSM    C9F15483   6.046   4.781   7.739  0.3797  0.6772 -1.0863
  141OSM    H9F15484   5.940   4.759   7.718  0.2359 -0.1349  0.3641
  141OSM   C10F15485   6.097   4.784   7.869  0.5084  0.1574  0.5326
  141OSM   H10F15486   6.041   4.736   7.951 -0.9749  1.3839  0.2844
  141OSM   C11F15487   6.233   4.841   7.901 -0.9356 -0.6273  0.4121
  141OSM   H11F15488   6.228   4.949   7.875  1.1896 -0.5722  0.0167
  141OSM   H11G15489   6.305   4.792   7.832 -1.3935  0.2465 -0.7173
  141OSM   C12F15490   6.261   4.831   8.055 -0.2896 -0.5959 -0.0196
  141OSM   H12F15491   6.367   4.847   8.085  1.0640 -2.1162 -3.3505
  141OSM   H12G15492   6.230   4.729   8.085  0.0854 -0.9685 -0.8504
  141OSM   C13F15493   6.180   4.930   8.134  0.4811  0.8011  0.6947
  141OSM   H13F15494   6.092   4.882   8.181  1.3439  0.3209  1.8682
  141OSM   H13G15495   6.137   5.013   8.074 -1.6505  1.1370  2.5509
  141OSM   C14F15496   6.240   4.989   8.262 -0.3326 -0.9775 -0.3528
  141OSM   H14F15497   6.160   5.047   8.314  1.4439 -0.6228  2.1775
  141OSM   H14G15498   6.314   5.062   8.223 -0.6822 -1.1266 -1.3211
  141OSM   C15F15499   6.307   4.893   8.365  0.5295 -0.0198 -0.1989
  141OSM   H15F15500   6.394   4.846   8.314  0.9085  1.1759 -0.6816
  141OSM   H15G15501   6.235   4.812   8.391  2.0904 -2.4092 -2.7270
  141OSM   C16F15502   6.362   4.967   8.491  0.0976 -0.7134 -1.0663
  141OSM   H16F15503   6.416   5.060   8.464  1.2715 -0.6611  1.2615
  141OSM   H16G15504   6.425   4.905   8.557  0.4553  0.0378 -0.6935
  141OSM   C17F15505   6.254   5.016   8.580 -0.2373  0.4714  0.2883
  141OSM   H17F15506   6.199   4.922   8.606  0.8036 -0.2039  0.1092
  141OSM   H17G15507   6.178   5.079   8.530  0.2015  1.0456  0.3455
  141OSM   C18F15508   6.303   5.087   8.705  0.3849  0.5180  0.4677
  141OSM   H18F15509   6.345   5.017   8.780 -0.5405  1.3681  1.8162
  141OSM   H18G15510   6.217   5.134   8.758  0.6356  0.2828  1.0920
  141OSM   H18H15511   6.380   5.159   8.670  0.5900 -1.4421 -3.7539
  142OSM      N15512   6.027   5.250   6.250  0.1831 -0.1423 -0.2822
  142OSM    C1515513   6.111   5.180   6.153 -0.1577  0.4832  0.1382
  142OSM   H15A15514   6.121   5.224   6.055 -0.4869 -1.4733 -0.8318
  142OSM   H15B15515   6.067   5.084   6.129 -0.4566  0.6278  0.0984
  142OSM   H15C15516   6.205   5.163   6.204  0.3500 -1.4960 -1.3225
  142OSM    C1415517   5.913   5.319   6.182  0.3771 -0.2441 -0.2263
  142OSM   H14A15518   5.946   5.396   6.113  1.6458  0.1361  0.7552
  142OSM   H14B15519   5.855   5.370   6.257 -0.1436  0.2532 -0.9553
  142OSM   H14C15520   5.855   5.247   6.125 -1.2091  1.0228 -0.2889
  142OSM    C1315521   5.965   5.142   6.336  0.6484 -0.1977 -0.1682
  142OSM   H13A15522   6.048   5.098   6.391  0.9845  0.6166 -0.0066
  142OSM   H13B15523   5.923   5.062   6.277  0.3634 -0.7503  0.7565
  142OSM   H13C15524   5.900   5.189   6.408  2.9694 -1.4812  3.0203
  142OSM    C1215525   6.113   5.348   6.323 -0.2754 -0.1308  0.1398
  142OSM   H12A15526   6.133   5.429   6.255 -1.8197  0.4461  0.3182
  142OSM   H12B15527   6.196   5.295   6.367 -0.0774  0.3877  0.3877
  142OSM    C1115528   6.060   5.431   6.449  0.4871  0.2396 -0.0294
  142OSM   H11A15529   6.147   5.467   6.508 -0.3899 -0.3328  1.6993
  142OSM   H11B15530   6.003   5.361   6.513 -0.0808 -0.1191 -0.9098
  142OSM      P15531   5.847   5.588   6.453  0.2358 -0.1808 -0.2021
  142OSM    O1315532   5.833   5.736   6.441  0.2008 -0.4180 -0.3175
  142OSM    O1415533   5.743   5.503   6.387 -0.6867 -0.6037  0.0824
  142OSM    O1115534   5.844   5.566   6.608  0.2991  0.3194 -0.2248
  142OSM    O1215535   5.984   5.537   6.398  0.6890  0.3372  0.2554
  142OSM    C1S15536   5.947   5.608   6.690  0.3432  0.2475  0.0775
  142OSM    H1S15537   5.935   5.716   6.710  0.5497  0.9063 -2.8036
  142OSM    H1T15538   6.044   5.611   6.634 -0.0300  0.1877 -0.5889
  142OSM     NF15539   6.031   5.614   6.907 -0.0053 -0.4521 -1.0159
  142OSM    HNF15540   6.116   5.563   6.918 -0.4671 -0.8305  1.2943
  142OSM    C2S15541   5.944   5.540   6.827  0.9276  0.4226 -0.1398
  142OSM    H2S15542   5.840   5.559   6.862  1.0613  1.5899 -0.3299
  142OSM    C3S15543   5.969   5.386   6.824 -0.1077  0.1258  0.5740
  142OSM    H3S15544   6.077   5.375   6.798 -0.3325 -1.2874  0.1408
  142OSM     O315545   5.894   5.310   6.730  0.6737 -0.3899  0.7286
  142OSM    HO315546   5.840   5.380   6.693  0.2552 -1.4149 -0.6612
  142OSM    C4S15547   5.952   5.320   6.961  0.4178 -0.0932  0.2976
  142OSM    H4S15548   5.855   5.271   6.978  1.5865 -1.4396  4.5533
  142OSM    C5S15549   6.047   5.300   7.056 -0.2410  0.2313  0.3914
  142OSM    H5S15550   6.149   5.336   7.033 -0.1972  0.0082  0.2299
  142OSM    C6S15551   6.031   5.238   7.194  0.4760  0.4032 -0.3504
  142OSM    H6S15552   6.085   5.142   7.187  0.9634  0.5921  0.7278
  142OSM    H6T15553   5.922   5.236   7.216  0.4017 -0.8803 -0.7544
  142OSM    C7S15554   6.105   5.323   7.295 -0.1171 -0.1455 -0.3408
  142OSM    H7S15555   6.058   5.423   7.296 -1.4963 -0.7666 -0.6650
  142OSM    H7T15556   6.209   5.346   7.263  0.0313 -0.0089  0.2286
  142OSM    C8S15557   6.099   5.263   7.435  0.0291  0.4095 -0.2343
  142OSM    H8S15558   6.156   5.167   7.438  1.0721  1.0387  1.1182
  142OSM    H8T15559   5.993   5.240   7.459 -0.0777  0.1028 -0.9683
  142OSM    C9S15560   6.134   5.359   7.550 -0.0684  0.1346  0.3898
  142OSM    H9S15561   6.088   5.460   7.541  0.5433  0.4772  1.0482
  142OSM    H9T15562   6.241   5.385   7.539 -0.1370  0.9201  1.4301
  142OSM   C10S15563   6.123   5.295   7.684 -0.4908  0.6142 -0.8778
  142OSM   H10S15564   6.196   5.213   7.672 -0.6819  0.4397 -0.8640
  142OSM   H10T15565   6.026   5.241   7.690 -0.6246  0.8053 -1.2850
  142OSM   C11S15566   6.147   5.395   7.801  0.1543 -0.0863  0.2715
  142OSM   H11S15567   6.058   5.461   7.809 -0.0134  0.1653 -2.5911
  142OSM   H11T15568   6.239   5.455   7.790  1.2890 -1.5153  1.5295
  142OSM   C12S15569   6.161   5.314   7.927  0.3775 -0.1253  0.0924
  142OSM   H12S15570   6.246   5.242   7.931  0.2512 -0.2840 -0.1147
  142OSM   H12T15571   6.063   5.271   7.955  0.5317 -0.8844 -0.5133
  142OSM   C13S15572   6.205   5.405   8.045 -0.7860 -0.0134 -0.1907
  142OSM   H13S15573   6.117   5.470   8.066 -0.4617  0.1481  0.7228
  142OSM   H13T15574   6.286   5.469   8.005 -3.3271  1.0485 -4.2259
  142OSM   C14S15575   6.243   5.344   8.177  0.4821 -0.4985  0.2709
  142OSM   H14S15576   6.342   5.295   8.164  0.8518  0.4809 -0.7005
  142OSM   H14T15577   6.164   5.277   8.218  0.6178 -0.1285  1.1594
  142OSM   C15S15578   6.265   5.449   8.289  0.1933  0.0642  0.1035
  142OSM   H15S15579   6.162   5.487   8.309 -0.3615 -2.1011  1.7431
  142OSM   H15T15580   6.337   5.523   8.248  0.7635 -0.4366  0.1896
  142OSM   C16S15581   6.326   5.383   8.412  1.4696 -0.1043  0.5908
  142OSM   H16S15582   6.430   5.343   8.408  1.4860 -0.0033 -0.1601
  142OSM   H16T15583   6.263   5.298   8.442 -1.0588  2.4172  3.0830
  142OSM   C17S15584   6.313   5.486   8.529  0.6659 -0.0120 -0.5650
  142OSM   H17S15585   6.219   5.539   8.504  0.4985  0.1167  0.3190
  142OSM   H17T15586   6.389   5.566   8.523 -1.1461  2.3447  3.8125
  142OSM   C18S15587   6.313   5.429   8.675 -0.1683 -0.4804 -0.2649
  142OSM   H18S15588   6.226   5.363   8.695 -1.3838  1.0924 -0.2003
  142OSM   H18T15589   6.301   5.505   8.755  0.2171 -1.9099  1.1976
  142OSM   H18U15590   6.404   5.366   8.688  0.7863 -0.3428 -4.6124
  142OSM    C1F15591   6.006   5.725   6.976 -0.5616  0.8940 -0.7158
  142OSM     OF15592   5.888   5.759   6.992 -0.2301 -0.7885 -0.0736
  142OSM    C2F15593   6.129   5.785   7.033 -0.1991  0.2170 -0.1449
  142OSM    H2F15594   6.188   5.833   6.951 -0.4731 -0.1136 -0.5408
  142OSM    H2G15595   6.201   5.716   7.081  0.9011  0.4241 -1.4264
  142OSM    C3F15596   6.093   5.909   7.124 -0.2718 -0.0352  0.3686
  142OSM    H3F15597   6.032   5.982   7.066  1.0170  0.2808 -0.6170
  142OSM    H3G15598   6.191   5.956   7.145  0.8053 -2.3757  0.9383
  142OSM    C4F15599   6.027   5.876   7.262  0.2832  0.5201 -0.7207
  142OSM    H4F15600   5.930   5.823   7.265  0.4016  0.3371  1.2142
  142OSM    H4G15601   6.019   5.975   7.312  0.1660 -1.0364  2.5987
  142OSM    C5F15602   6.117   5.782   7.347 -0.5815 -0.7402 -0.2106
  142OSM    H5F15603   6.220   5.818   7.331 -1.3567  2.9691  1.8947
  142OSM    H5G15604   6.116   5.672   7.328  0.8928 -0.6796 -0.7209
  142OSM    C6F15605   6.085   5.795   7.501  0.4857  0.8240  0.5028
  142OSM    H6F15606   6.007   5.727   7.541  1.4213 -0.2256  0.5806
  142OSM    H6G15607   6.054   5.901   7.514 -0.5852  0.7509 -1.1171
  142OSM    C7F15608   6.218   5.794   7.582  0.5318  0.7391  0.0753
  142OSM    H7F15609   6.298   5.844   7.523  1.1283  0.0450  0.2847
  142OSM    H7G15610   6.253   5.691   7.603 -0.7071 -0.3117 -2.4983
  142OSM    C8F15611   6.206   5.871   7.718 -0.2696 -0.8255 -0.6526
  142OSM    H8F15612   6.159   5.964   7.678  0.8459 -0.7038 -1.7609
  142OSM    H8G15613   6.308   5.904   7.748 -1.2179  1.8137 -0.0114
  142OSM    C9F15614   6.130   5.806   7.834  0.6528  0.5126 -0.7230
  142OSM    H9F15615   6.027   5.772   7.817 -0.0464  2.3213 -0.3090
  142OSM   C10F15616   6.188   5.768   7.952 -0.7502  0.4993  0.4119
  142OSM   H10F15617   6.117   5.716   8.018 -2.1863  0.4242 -1.1236
  142OSM   C11F15618   6.333   5.800   8.006 -0.7425  0.0835  0.1469
  142OSM   H11F15619   6.372   5.884   7.945  0.3170  0.0508  0.7388
  142OSM   H11G15620   6.413   5.723   7.993  0.8680  1.0183  3.4010
  142OSM   C12F15621   6.340   5.868   8.138 -0.2643  0.5273 -0.8023
  142OSM   H12F15622   6.441   5.915   8.148 -0.0515  0.2846 -1.6823
  142OSM   H12G15623   6.338   5.790   8.217 -1.4333  0.4657 -0.8806
  142OSM   C13F15624   6.230   5.967   8.181 -0.4441 -1.0347 -0.3765
  142OSM   H13F15625   6.127   5.937   8.150  0.0968 -0.6342 -2.7284
  142OSM   H13G15626   6.239   6.054   8.113 -0.3045  0.6268  1.6791
  142OSM   C14F15627   6.217   5.990   8.332  0.2697 -0.4808  0.0477
  142OSM   H14F15628   6.157   6.082   8.349 -1.5552 -1.5919 -0.0568
  142OSM   H14G15629   6.322   6.021   8.349 -0.0957  1.6560 -1.3521
  142OSM   C15F15630   6.164   5.873   8.424 -0.8515  0.3628 -0.3649
  142OSM   H15F15631   6.226   5.785   8.396  1.5981  0.9803  2.5351
  142OSM   H15G15632   6.059   5.855   8.396 -2.0816  2.1068  2.6293
  142OSM   C16F15633   6.156   5.887   8.577 -0.7819  0.4171  0.6491
  142OSM   H16F15634   6.113   5.797   8.625  2.7240 -0.2916  2.8455
  142OSM   H16G15635   6.092   5.970   8.613 -2.0154 -0.9502  1.7129
  142OSM   C17F15636   6.296   5.902   8.649 -0.4701  0.1125 -0.1694
  142OSM   H17F15637   6.349   5.992   8.611 -0.8752 -0.2289 -1.6136
  142OSM   H17G15638   6.346   5.810   8.613 -1.6387 -1.0929  1.1605
  142OSM   C18F15639   6.297   5.892   8.804 -0.6434 -0.9057 -0.3487
  142OSM   H18F15640   6.262   5.795   8.845 -0.3443 -0.7865  0.1990
  142OSM   H18G15641   6.236   5.972   8.849  0.0058  0.2563 -1.4703
  142OSM   H18H15642   6.399   5.910   8.845 -1.3688  0.7378  0.8129
  143OSM      N15643   1.540   2.053   6.152 -0.6057 -0.5233  0.3687
  143OSM    C1515644   1.619   2.058   6.026  0.1071 -0.1750 -0.1184
  143OSM   H15A15645   1.560   2.026   5.941  1.3457  0.3331 -1.2060
  143OSM   H15B15646   1.702   1.993   6.048 -1.5042 -2.2912 -0.0126
  143OSM   H15C15647   1.665   2.155   6.013  0.0776 -0.4230 -2.5440
  143OSM    C1415648   1.539   1.911   6.199 -0.5695 -0.3141  0.2701
  143OSM   H14A15649   1.489   1.901   6.294 -1.1624  0.7468  0.0857
  143OSM   H14B15650   1.638   1.868   6.198  1.0580  3.0535  1.0228
  143OSM   H14C15651   1.488   1.843   6.132  1.1268 -2.1220  0.7217
  143OSM    C1315652   1.610   2.130   6.253  0.3764 -0.2303 -0.1621
  143OSM   H13A15653   1.594   2.236   6.234  1.1800 -0.3440 -1.6261
  143OSM   H13B15654   1.715   2.105   6.264  0.3074 -1.3254 -1.7445
  143OSM   H13C15655   1.554   2.106   6.342  1.3439 -2.1153 -0.0020
  143OSM    C1215656   1.391   2.105   6.120  0.0210 -0.0516 -1.0799
  143OSM   H12A15657   1.345   2.035   6.052 -1.9314 -1.0571  1.1537
  143OSM   H12B15658   1.404   2.206   6.084  1.6406  0.6725  1.2861
  143OSM    C1115659   1.304   2.115   6.247  0.0128 -0.4523 -0.0933
  143OSM   H11A15660   1.217   2.179   6.223  0.0509  1.0459  3.2377
  143OSM   H11B15661   1.366   2.172   6.320  0.9356 -0.8070 -0.5867
  143OSM      P15662   1.169   1.902   6.236  0.1789  0.5293 -0.1909
  143OSM    O1315663   1.055   1.984   6.194  0.3098  0.6898  0.0185
  143OSM    O1415664   1.241   1.819   6.137 -0.5116 -0.4235  0.0075
  143OSM    O1115665   1.118   1.806   6.346  0.4431 -0.6017  0.4988
  143OSM    O1215666   1.265   1.995   6.313  0.3685 -0.4364 -0.0241
  143OSM    C1S15667   1.097   1.850   6.479 -1.0404 -0.7927 -0.2206
  143OSM    H1S15668   1.038   1.945   6.474  0.8876  0.4109 -1.5061
  143OSM    H1T15669   1.191   1.878   6.531 -1.8692 -0.5977  1.2250
  143OSM     NF15670   1.015   1.809   6.713 -0.4664  0.4904  0.4261
  143OSM    HNF15671   1.060   1.761   6.788 -1.0919  0.6931  0.9470
  143OSM    C2S15672   1.020   1.755   6.572  0.3154 -0.3835 -0.7987
  143OSM    H2S15673   0.913   1.744   6.544  0.1290 -0.4297 -0.0803
  143OSM    C3S15674   1.085   1.608   6.559  0.3035  0.0394 -0.3885
  143OSM    H3S15675   1.190   1.621   6.592  0.7743 -0.3596 -1.6888
  143OSM     O315676   1.071   1.560   6.425 -0.2031  0.6725  0.1045
  143OSM    HO315677   1.038   1.638   6.379 -0.7709 -0.3103 -1.2271
  143OSM    C4S15678   1.015   1.517   6.656  0.7661  0.2413 -0.1898
  143OSM    H4S15679   1.072   1.497   6.749  0.3033 -0.0114  0.0447
  143OSM    C5S15680   0.896   1.452   6.640 -0.0133  0.4057 -0.0118
  143OSM    H5S15681   0.843   1.463   6.544  1.5348 -1.2212 -1.1087
  143OSM    C6S15682   0.832   1.359   6.735  0.4691  0.3499  0.5608
  143OSM    H6S15683   0.800   1.268   6.679 -2.3337  2.4061 -1.4571
  143OSM    H6T15684   0.735   1.397   6.774 -0.6686 -3.1263  1.4716
  143OSM    C7S15685   0.926   1.305   6.844 -0.0011 -0.5029 -0.6615
  143OSM    H7S15686   0.954   1.397   6.899 -1.5474 -0.3105 -0.1501
  143OSM    H7T15687   1.011   1.244   6.806  0.6566 -1.0797  1.5455
  143OSM    C8S15688   0.849   1.219   6.947  0.1415 -0.0378  0.1464
  143OSM    H8S15689   0.780   1.160   6.883  0.1088  0.8756 -0.6886
  143OSM    H8T15690   0.782   1.282   7.009 -1.3316 -0.3413 -1.0804
  143OSM    C9S15691   0.932   1.123   7.028 -0.4183 -0.2247 -0.2238
  143OSM    H9S15692   1.002   1.186   7.087 -1.0999  1.3509 -1.0164
  143OSM    H9T15693   0.990   1.058   6.959 -0.3018  0.7439 -1.0680
  143OSM   C10S15694   0.841   1.036   7.121 -0.5211 -0.2047 -0.0421
  143OSM   H10S15695   0.782   0.964   7.061 -2.5597 -1.2797  3.0382
  143OSM   H10T15696   0.753   1.095   7.153 -0.4807  0.4998 -1.1612
  143OSM   C11S15697   0.921   0.953   7.221 -0.5080  0.4165  0.1068
  143OSM   H11S15698   0.972   1.025   7.288  1.1712 -0.7531  0.1295
  143OSM   H11T15699   1.005   0.914   7.160  1.3501  2.9174  0.8923
  143OSM   C12S15700   0.827   0.856   7.275 -0.6673 -0.2243 -0.4934
  143OSM   H12S15701   0.795   0.786   7.195  1.2608 -0.7470 -0.8501
  143OSM   H12T15702   0.737   0.912   7.309 -2.9523 -3.4877 -0.6923
  143OSM   C13S15703   0.870   0.775   7.401 -0.3599 -0.3105 -0.3442
  143OSM   H13S15704   0.951   0.703   7.376 -1.9352 -1.9569 -0.9462
  143OSM   H13T15705   0.785   0.713   7.437  1.1277 -1.5480  1.1920
  143OSM   C14S15706   0.911   0.878   7.510 -0.0761  0.6120 -0.0680
  143OSM   H14S15707   0.821   0.935   7.541  1.3882  3.2091 -0.2967
  143OSM   H14T15708   0.986   0.951   7.471  1.2048 -0.0161  1.1380
  143OSM   C15S15709   0.966   0.817   7.642  0.0617  0.1763  0.4927
  143OSM   H15S15710   1.016   0.896   7.701 -0.8582  1.1741 -0.0415
  143OSM   H15T15711   1.051   0.751   7.613  2.3838  2.6041  1.5032
  143OSM   C16S15712   0.867   0.745   7.731  0.1625 -0.3489  0.7183
  143OSM   H16S15713   0.832   0.668   7.658  3.1902  0.2078 -1.5528
  143OSM   H16T15714   0.778   0.805   7.757 -0.4349 -1.2175  0.7360
  143OSM   C17S15715   0.937   0.660   7.842  0.1126 -0.3081 -0.1843
  143OSM   H17S15716   1.004   0.733   7.893 -0.7697  0.9377 -0.7655
  143OSM   H17T15717   1.011   0.586   7.805 -0.7414 -1.1963 -0.1514
  143OSM   C18S15718   0.836   0.593   7.937  0.1272  0.3178 -0.7960
  143OSM   H18S15719   0.773   0.681   7.963  0.1836  0.7631 -2.1028
  143OSM   H18T15720   0.892   0.551   8.024  1.7379  3.7095  0.0045
  143OSM   H18U15721   0.779   0.521   7.876 -0.1870 -0.2137  0.0962
  143OSM    C1F15722   0.957   1.925   6.739 -0.4287 -1.1016  0.0085
  143OSM     OF15723   0.876   1.976   6.663 -0.2036 -0.3462  0.3112
  143OSM    C2F15724   0.991   1.988   6.872  0.5620 -0.2087  0.2528
  143OSM    H2F15725   1.054   2.078   6.857 -0.2640  0.3879  0.2604
  143OSM    H2G15726   1.064   1.917   6.915  1.8612  0.4821 -0.7630
  143OSM    C3F15727   0.873   2.026   6.968  0.4179  0.7273  0.3235
  143OSM    H3F15728   0.846   1.928   7.013 -0.4529  0.6948 -0.2437
  143OSM    H3G15729   0.785   2.058   6.908 -0.4846  0.0947  1.2808
  143OSM    C4F15730   0.913   2.127   7.073  1.1640 -0.4316 -0.4683
  143OSM    H4F15731   0.938   2.221   7.021 -1.5450 -0.2842 -1.7097
  143OSM    H4G15732   1.010   2.104   7.122  1.2851  0.0445 -0.4787
  143OSM    C5F15733   0.805   2.156   7.176  0.0312  0.0158  0.7362
  143OSM    H5F15734   0.712   2.202   7.135 -1.4003 -1.6496  1.9725
  143OSM    H5G15735   0.846   2.231   7.247  0.7057  0.7968 -0.4419
  143OSM    C6F15736   0.754   2.028   7.257  0.2212 -0.2874  0.1523
  143OSM    H6F15737   0.696   1.960   7.190  1.5017 -0.8298 -0.4375
  143OSM    H6G15738   0.696   2.070   7.342  0.9452 -2.9928  2.1289
  143OSM    C7F15739   0.868   1.959   7.339  0.2353  0.0280  0.2140
  143OSM    H7F15740   0.941   2.023   7.394 -2.9166  2.1365  2.3225
  143OSM    H7G15741   0.930   1.916   7.258  0.3689  1.5164 -0.5144
  143OSM    C8F15742   0.813   1.858   7.441  0.3063  0.0193 -0.1997
  143OSM    H8F15743   0.895   1.789   7.471 -0.4535 -0.8028  0.0586
  143OSM    H8G15744   0.740   1.796   7.384  0.0455 -0.5342  0.7139
  143OSM    C9F15745   0.744   1.923   7.557 -0.1813  0.3566  0.0023
  143OSM    H9F15746   0.658   1.988   7.536  0.4170  1.3326  0.4935
  143OSM   C10F15747   0.773   1.905   7.684  0.5821  0.9840 -0.3943
  143OSM   H10F15748   0.720   1.968   7.756  1.4860  1.9946 -0.5880
  143OSM   C11F15749   0.880   1.816   7.752 -0.2752 -0.2098 -0.3076
  143OSM   H11F15750   0.957   1.882   7.798 -0.7108 -0.4230  0.7721
  143OSM   H11G15751   0.942   1.754   7.685 -1.0974 -2.2521  0.7311
  143OSM   C12F15752   0.819   1.724   7.853 -0.7181  0.5716 -0.2536
  143OSM   H12F15753   0.748   1.652   7.808  0.8124 -1.5398  0.5635
  143OSM   H12G15754   0.765   1.773   7.938  0.7302  0.1228  0.9758
  143OSM   C13F15755   0.930   1.628   7.907 -0.5067 -1.0113  0.7808
  143OSM   H13F15756   1.016   1.691   7.939 -0.1564 -1.5718  0.9616
  143OSM   H13G15757   0.967   1.562   7.826  1.4629 -0.2824  1.0146
  143OSM   C14F15758   0.880   1.524   8.014 -0.3786  0.2540  0.1172
  143OSM   H14F15759   0.832   1.436   7.966 -3.2313  1.2910  0.8854
  143OSM   H14G15760   0.798   1.568   8.074 -1.5624 -1.9822  0.2048
  143OSM   C15F15761   0.987   1.471   8.111  0.2329 -0.4170 -0.5666
  143OSM   H15F15762   1.078   1.434   8.061 -0.3177 -1.3859 -0.8689
  143OSM   H15G15763   0.955   1.385   8.174  0.0695  0.2944  0.3360
  143OSM   C16F15764   1.031   1.574   8.215 -0.1487 -0.1628 -0.4903
  143OSM   H16F15765   0.945   1.617   8.270 -0.4787  0.2261 -1.2897
  143OSM   H16G15766   1.080   1.662   8.167  0.2615 -0.0559  0.1150
  143OSM   C17F15767   1.118   1.526   8.325  0.3345 -0.1179 -0.8530
  143OSM   H17F15768   1.160   1.608   8.387 -0.1419 -0.1932 -0.4177
  143OSM   H17G15769   1.207   1.479   8.279  0.9217  0.7693 -0.6525
  143OSM   C18F15770   1.055   1.434   8.437 -0.7538 -0.1667 -0.2090
  143OSM   H18F15771   0.994   1.352   8.395  0.3484 -1.5258  0.7687
  143OSM   H18G15772   0.983   1.492   8.498 -0.1711  1.9863 -1.4414
  143OSM   H18H15773   1.134   1.392   8.502 -1.3652 -1.6850 -0.4241
  144OSM      N15774   5.968   0.097   6.085  0.2155  0.2692  0.4341
  144OSM    C1515775   6.033   0.168   5.974  0.9127  1.2096  0.3997
  144OSM   H15A15776   5.983   0.261   5.953 -1.2746 -0.1144 -0.5608
  144OSM   H15B15777   6.021   0.108   5.885 -0.9484  0.3464  1.1780
  144OSM   H15C15778   6.137   0.188   5.997  0.6967  0.2009  2.5483
  144OSM    C1415779   5.819   0.091   6.061  0.6214  0.1082 -0.6132
  144OSM   H14A15780   5.790   0.042   5.969  1.3488 -0.4924 -0.5381
  144OSM   H14B15781   5.769   0.186   6.050 -1.2075 -0.8323 -0.8395
  144OSM   H14C15782   5.766   0.034   6.135  0.5386 -0.0254 -0.7751
  144OSM    C1315783   6.017  -0.049   6.102 -0.2855 -0.6059 -0.3821
  144OSM   H13A15784   6.002  -0.109   6.013  0.3429 -0.2366 -0.7407
  144OSM   H13B15785   5.966  -0.104   6.179 -2.4139  0.3187 -1.0362
  144OSM   H13C15786   6.121  -0.057   6.127 -0.8066 -2.1880  1.5409
  144OSM    C1215787   5.997   0.169   6.216  0.0347  0.2698 -0.5010
  144OSM   H12A15788   6.102   0.154   6.235  0.0585 -0.2223 -0.9766
  144OSM   H12B15789   5.947   0.104   6.286  0.6929 -1.2793 -1.4295
  144OSM    C1115790   5.965   0.321   6.231 -0.4755 -0.0611 -0.7027
  144OSM   H11A15791   6.019   0.372   6.148  0.9860 -0.0359  0.2230
  144OSM   H11B15792   6.011   0.359   6.325  1.2379  2.3088 -2.3791
  144OSM      P15793   5.740   0.311   6.341 -0.2678 -0.1604  0.2153
  144OSM    O1315794   5.619   0.394   6.329 -0.1403  0.3447  0.6046
  144OSM    O1415795   5.729   0.161   6.347 -0.6061 -0.1662 -0.2957
  144OSM    O1115796   5.830   0.350   6.469 -0.1931  0.1759 -0.2107
  144OSM    O1215797   5.828   0.350   6.221  0.0693 -0.4816  0.0037
  144OSM    C1S15798   5.837   0.479   6.536 -0.0225  0.1353  0.4356
  144OSM    H1S15799   5.764   0.545   6.485  0.7513 -0.1549 -1.1309
  144OSM    H1T15800   5.933   0.528   6.507 -0.7080  0.7009 -0.9614
  144OSM     NF15801   5.815   0.622   6.742  0.0967 -0.0708  0.1212
  144OSM    HNF15802   5.886   0.650   6.806 -1.6374  1.5804  1.4242
  144OSM    C2S15803   5.818   0.480   6.691 -0.3415 -0.5451 -0.5713
  144OSM    H2S15804   5.719   0.434   6.711 -0.1604 -1.3137 -1.3836
  144OSM    C3S15805   5.931   0.401   6.751 -0.4175 -0.6653  0.0879
  144OSM    H3S15806   6.029   0.453   6.739 -0.9056  0.0408 -0.9301
  144OSM     O315807   5.945   0.270   6.705  0.6703 -0.1304 -0.0013
  144OSM    HO315808   5.925   0.272   6.611 -1.8461 -0.3267  0.4778
  144OSM    C4S15809   5.891   0.390   6.895  0.0717 -0.3687  0.1502
  144OSM    H4S15810   5.805   0.322   6.908  0.1831 -0.3483  1.0536
  144OSM    C5S15811   5.964   0.442   6.994  0.7036  0.5068  0.0248
  144OSM    H5S15812   6.049   0.510   6.976  1.4697  0.4115  2.7355
  144OSM    C6S15813   5.912   0.433   7.135  0.2110  0.2481 -0.0071
  144OSM    H6S15814   6.001   0.433   7.202  0.0182 -0.2157  0.2535
  144OSM    H6T15815   5.847   0.345   7.155 -1.8124  1.3742 -1.3474
  144OSM    C7S15816   5.822   0.547   7.177 -0.0521 -0.6116  0.3938
  144OSM    H7S15817   5.737   0.560   7.107 -0.6386  0.0683  1.2059
  144OSM    H7T15818   5.881   0.640   7.186 -0.9353  0.1220 -1.1416
  144OSM    C8S15819   5.749   0.519   7.312  0.4083 -0.4237 -0.7415
  144OSM    H8S15820   5.704   0.418   7.305 -1.4258  0.3975 -1.6330
  144OSM    H8T15821   5.663   0.590   7.310  1.1063  0.4766  0.5301
  144OSM    C9S15822   5.835   0.536   7.433  0.3242  0.1780  0.8557
  144OSM    H9S15823   5.860   0.645   7.428 -1.9265  0.7047 -0.0542
  144OSM    H9T15824   5.926   0.473   7.428  0.4666  0.4702 -0.5126
  144OSM   C10S15825   5.763   0.491   7.557  0.8641  0.1756 -0.2163
  144OSM   H10S15826   5.739   0.383   7.554 -0.4457  0.4267  0.5388
  144OSM   H10T15827   5.664   0.540   7.571  0.4685 -0.3236 -1.1927
  144OSM   C11S15828   5.850   0.523   7.678  0.0202 -0.2171  0.2406
  144OSM   H11S15829   5.869   0.629   7.705  2.9458 -0.5313 -0.3146
  144OSM   H11T15830   5.950   0.476   7.667 -0.5942 -1.1438 -1.9926
  144OSM   C12S15831   5.786   0.458   7.801  0.1207 -0.2618 -0.3907
  144OSM   H12S15832   5.746   0.359   7.771 -0.6310  0.4357 -1.7697
  144OSM   H12T15833   5.701   0.525   7.824  1.3719  1.0346  0.6957
  144OSM   C13S15834   5.878   0.468   7.917  0.1523  0.1533 -0.4685
  144OSM   H13S15835   5.905   0.573   7.941  2.0718 -0.1941 -0.9428
  144OSM   H13T15836   5.971   0.415   7.886  0.0285  1.7846 -4.0078
  144OSM   C14S15837   5.809   0.406   8.042 -0.9050  0.0103  0.4440
  144OSM   H14S15838   5.755   0.313   8.012 -2.1744  1.3465 -1.7165
  144OSM   H14T15839   5.736   0.478   8.085 -0.9138 -0.3215  0.9950
  144OSM   C15S15840   5.897   0.359   8.161 -0.7790  0.0094 -0.3898
  144OSM   H15S15841   5.966   0.277   8.132 -0.1871  0.6985 -0.9594
  144OSM   H15T15842   5.836   0.316   8.244  1.1375 -1.0310  0.5594
  144OSM   C16S15843   5.971   0.474   8.229 -0.0144 -0.0862  0.2902
  144OSM   H16S15844   5.914   0.569   8.228 -1.1512 -0.7578 -0.0045
  144OSM   H16T15845   6.059   0.497   8.166 -0.5547  1.4942  0.0799
  144OSM   C17S15846   6.004   0.444   8.371  0.1459 -0.2120 -0.1417
  144OSM   H17S15847   5.911   0.445   8.431  1.3153 -2.7248  1.9020
  144OSM   H17T15848   6.068   0.528   8.407 -1.4088  0.0612  2.1968
  144OSM   C18S15849   6.083   0.319   8.407 -0.2841 -0.1132  0.1438
  144OSM   H18S15850   6.035   0.232   8.356  0.3656 -1.4454  1.7447
  144OSM   H18T15851   6.067   0.297   8.514 -1.6688  1.8973  0.4005
  144OSM   H18U15852   6.189   0.324   8.374 -0.2674  3.5669  0.3347
  144OSM    C1F15853   5.703   0.701   6.722  0.9610 -0.4809  0.2055
  144OSM     OF15854   5.613   0.663   6.646 -0.2850 -0.1435 -0.4018
  144OSM    C2F15855   5.702   0.834   6.799  0.1961  0.6053  0.5070
  144OSM    H2F15856   5.730   0.917   6.731 -0.6756  0.2143 -0.3457
  144OSM    H2G15857   5.792   0.830   6.865  1.0692 -1.5170 -0.7223
  144OSM    C3F15858   5.561   0.872   6.868 -0.0926  0.1332  1.2488
  144OSM    H3F15859   5.491   0.889   6.783 -1.2117 -1.8512  1.7193
  144OSM    H3G15860   5.573   0.971   6.918  0.8953 -0.6809  2.6963
  144OSM    C4F15861   5.511   0.775   6.973 -0.5846  0.0824  0.0763
  144OSM    H4F15862   5.593   0.736   7.038 -0.9689  0.9579  1.1226
  144OSM    H4G15863   5.460   0.694   6.916 -1.1180  2.3637 -2.8977
  144OSM    C5F15864   5.410   0.833   7.073 -0.0759 -0.3736 -0.7245
  144OSM    H5F15865   5.315   0.865   7.026 -0.9672  0.5012  1.5335
  144OSM    H5G15866   5.453   0.928   7.111  1.1194 -0.6425 -1.3311
  144OSM    C6F15867   5.394   0.737   7.189  0.6404 -0.2149 -0.7920
  144OSM    H6F15868   5.473   0.659   7.192 -1.7080 -2.7271  1.9723
  144OSM    H6G15869   5.303   0.674   7.180 -0.3198  0.3464  3.1864
  144OSM    C7F15870   5.403   0.810   7.323  1.0603 -0.2263 -0.3199
  144OSM    H7F15871   5.489   0.880   7.325  1.1406 -0.3243 -0.3603
  144OSM    H7G15872   5.425   0.736   7.402  3.6322  2.2823  1.5039
  144OSM    C8F15873   5.274   0.889   7.351  1.2922 -0.3952 -0.2891
  144OSM    H8F15874   5.244   0.963   7.274 -1.3727  0.7938  1.7385
  144OSM    H8G15875   5.298   0.959   7.433 -0.4781 -0.8032  0.6247
  144OSM    C9F15876   5.159   0.799   7.381  0.1340  0.3699  0.3093
  144OSM    H9F15877   5.145   0.725   7.301  1.7895 -1.7934  1.9075
  144OSM   C10F15878   5.086   0.795   7.500 -1.5376  0.2013 -0.5087
  144OSM   H10F15879   4.997   0.731   7.506 -1.8079  0.3597 -2.2412
  144OSM   C11F15880   5.102   0.884   7.622 -0.7108 -0.3591 -0.1147
  144OSM   H11F15881   5.006   0.937   7.642  0.2067  0.3664  2.7164
  144OSM   H11G15882   5.169   0.971   7.602 -0.1283 -1.0496 -1.2940
  144OSM   C12F15883   5.141   0.818   7.745  0.1091 -0.1620 -1.3628
  144OSM   H12F15884   5.246   0.784   7.732 -0.4431 -2.9224  0.5111
  144OSM   H12G15885   5.070   0.734   7.762 -0.2731  0.0984 -1.6617
  144OSM   C13F15886   5.137   0.916   7.857 -0.3421 -0.5204  0.0868
  144OSM   H13F15887   5.049   0.982   7.846 -0.3790 -0.8003 -1.5414
  144OSM   H13G15888   5.225   0.982   7.841 -0.9173  0.2569  0.0637
  144OSM   C14F15889   5.150   0.850   7.997 -0.4031 -0.0684  1.1651
  144OSM   H14F15890   5.239   0.784   8.007  0.5355  0.3502 -2.8684
  144OSM   H14G15891   5.058   0.793   8.022  1.0046 -2.1555  1.8352
  144OSM   C15F15892   5.163   0.956   8.107 -0.2492 -0.4404 -1.0564
  144OSM   H15F15893   5.082   1.030   8.120  0.3265 -0.1965  1.7255
  144OSM   H15G15894   5.240   1.036   8.103 -1.1385  0.5690  0.7763
  144OSM   C16F15895   5.201   0.878   8.241 -0.0758 -0.0063  0.3295
  144OSM   H16F15896   5.290   0.813   8.237  0.7297  1.1319 -1.3828
  144OSM   H16G15897   5.122   0.806   8.271  1.3986 -2.1790 -0.7978
  144OSM   C17F15898   5.236   0.977   8.359  1.0044  0.4708  0.0503
  144OSM   H17F15899   5.149   1.045   8.370 -0.6194 -1.3102 -1.1911
  144OSM   H17G15900   5.327   1.034   8.332  0.2242  1.4917 -0.5053
  144OSM   C18F15901   5.257   0.904   8.497  0.2058  0.4216  0.0135
  144OSM   H18F15902   5.248   0.981   8.577  0.1980  1.1456 -0.6750
  144OSM   H18G15903   5.355   0.854   8.488 -0.5254 -1.1759  0.5866
  144OSM   H18H15904   5.177   0.829   8.513  1.7439 -1.0595  1.1572
  145SAPE     N15905   4.232   1.722  10.782  0.7059  0.4021 -0.4928
  145SAPE   HN115906   4.307   1.702  10.850  0.4826  2.4895  0.4596
  145SAPE   HN215907   4.182   1.812  10.800 -0.8733 -0.3962 -0.7583
  145SAPE   HN315908   4.164   1.647  10.803  0.3920 -0.7579 -4.8435
  145SAPE   C1215909   4.254   1.705  10.637  0.5808 -0.1056 -0.1321
  145SAPE  H12A15910   4.154   1.696  10.591  0.3130  2.9747 -0.3905
  145SAPE  H12B15911   4.320   1.616  10.637  0.8564  0.0666 -1.5852
  145SAPE   C1115912   4.333   1.813  10.567 -0.6977 -0.0624  0.4023
  145SAPE  H11A15913   4.258   1.889  10.538  1.9519  2.9588  0.8721
  145SAPE  H11B15914   4.374   1.771  10.473 -1.0628 -0.9929  0.6403
  145SAPE     P15915   4.470   2.008  10.662  0.3431 -0.1904  0.2359
  145SAPE   O1315916   4.361   2.073  10.738 -0.3813  0.2869  0.2570
  145SAPE   O1415917   4.606   2.030  10.709 -0.1463 -0.6729 -0.0541
  145SAPE   O1215918   4.445   1.855  10.650 -0.4371  0.2776 -0.6298
  145SAPE   O1115919   4.459   2.055  10.516  0.3447  0.0553 -0.6455
  145SAPE    C115920   4.543   2.028  10.405 -0.0714 -0.2899  0.6031
  145SAPE    HA15921   4.595   1.931  10.417  1.6399  0.1734 -2.2173
  145SAPE    HB15922   4.490   2.005  10.310 -0.2796 -2.2613  1.1633
  145SAPE    C215923   4.654   2.133  10.379 -0.1503  0.7978 -0.2878
  145SAPE    HS15924   4.687   2.171  10.478  0.0187 -0.2373  0.0720
  145SAPE   O2115925   4.596   2.249  10.314 -0.2397 -0.3266  0.4434
  145SAPE   C2115926   4.684   2.354  10.291 -0.0029  0.5202 -0.0490
  145SAPE   O2215927   4.797   2.352  10.335  0.3723 -0.6095 -0.0561
  145SAPE   C2215928   4.624   2.460  10.206 -0.2438 -0.3622  0.3088
  145SAPE   H2R15929   4.516   2.475  10.226 -0.0902 -1.0316  1.7291
  145SAPE   H2S15930   4.686   2.546  10.240  0.8257 -0.7219 -0.6428
  145SAPE    C315931   4.766   2.058  10.304 -0.1139  0.1471  1.1747
  145SAPE    HX15932   4.806   1.984  10.377 -1.6906 -1.7558  0.1838
  145SAPE    HY15933   4.855   2.121  10.284  2.4743 -2.4034  3.6483
  145SAPE   O3115934   4.712   1.980  10.193 -0.1009  0.8075  0.1827
  145SAPE   C3115935   4.730   2.039  10.080  0.6971 -0.0314  0.1650
  145SAPE   O3215936   4.785   2.148  10.056 -0.4913 -0.2193  0.1979
  145SAPE   C3215937   4.680   1.958   9.961  0.2031  0.8487 -0.7551
  145SAPE   H2X15938   4.571   1.978   9.961  0.1059  0.3541 -1.2524
  145SAPE   H2Y15939   4.699   1.850   9.980  0.1106  0.4850 -2.5909
  145SAPE   C2315940   4.651   2.445  10.055 -0.2710 -0.4532 -0.3444
  145SAPE   H3R15941   4.588   2.359  10.024 -0.1460 -0.7939  0.3298
  145SAPE   H3S15942   4.756   2.409  10.045 -0.3694 -0.7519 -0.2899
  145SAPE   C2415943   4.633   2.587   9.994 -0.3720  0.3472  0.4368
  145SAPE   H4R15944   4.705   2.658  10.041  1.3888 -1.0692 -0.0004
  145SAPE   H4S15945   4.533   2.630  10.013 -0.6092  0.4608 -0.9678
  145SAPE   C2515946   4.660   2.591   9.847 -0.3035  0.9007  0.2369
  145SAPE   H5R15947   4.763   2.589   9.806 -1.1329  2.4400 -2.1427
  145SAPE   C2615948   4.568   2.556   9.753  0.7651 -0.0458  0.1302
  145SAPE   H6R15949   4.592   2.539   9.647 -0.4899 -1.9656  0.1030
  145SAPE   C2715950   4.419   2.525   9.779 -0.4155 -0.0835  0.6372
  145SAPE   H7R15951   4.356   2.581   9.707 -0.3950 -1.2759 -0.3514
  145SAPE   H7S15952   4.385   2.560   9.879 -0.5760 -0.1426  0.6041
  145SAPE   C2815953   4.372   2.381   9.766 -0.6464 -0.0865  0.2105
  145SAPE   H8R15954   4.367   2.328   9.863  0.2966  0.3429  0.5061
  145SAPE   C2915955   4.365   2.313   9.652  0.0285 -0.1793 -0.0190
  145SAPE   H9R15956   4.329   2.211   9.669 -0.2750 -0.2359 -0.9676
  145SAPE  C21015957   4.382   2.364   9.506 -0.7960 -0.5483  0.9165
  145SAPE  H10R15958   4.437   2.288   9.446 -1.2903 -0.6803  0.6244
  145SAPE  H10S15959   4.443   2.456   9.493  0.3880 -1.1323  2.0560
  145SAPE  C21115960   4.247   2.403   9.439 -0.2805  0.2143  0.3476
  145SAPE  H11R15961   4.187   2.478   9.493  0.9138  0.3474  1.5499
  145SAPE  C21215962   4.206   2.353   9.322 -0.6782 -0.0473  0.3031
  145SAPE  H12R15963   4.112   2.395   9.284  1.0681  0.3449 -4.1432
  145SAPE  C21315964   4.278   2.257   9.233  0.1492  0.3026 -0.0800
  145SAPE  H13R15965   4.270   2.155   9.275  2.2178  1.2487  2.9136
  145SAPE  H13S15966   4.387   2.262   9.250  0.2381 -2.2338  0.4717
  145SAPE  C21415967   4.246   2.241   9.085  0.0757 -0.5341 -0.1241
  145SAPE  H14R15968   4.325   2.293   9.030  0.5141  0.3613  1.2888
  145SAPE  C21515969   4.156   2.156   9.029  0.1610 -0.4126  0.5207
  145SAPE  H15R15970   4.165   2.159   8.919  3.3584  1.1680  0.7188
  145SAPE  C21615971   4.053   2.062   9.079  0.0441 -0.7010  0.2611
  145SAPE  H16R15972   3.956   2.089   9.033  0.4089  0.0674 -0.0758
  145SAPE  H16S15973   4.037   2.049   9.189 -2.1725 -1.7944 -0.1425
  145SAPE  C21715974   4.066   1.918   9.016 -0.0942  0.7505 -0.1481
  145SAPE  H17R15975   3.991   1.849   9.058 -0.7377  0.0729 -2.3196
  145SAPE  H17S15976   4.166   1.882   9.050  0.8089 -1.6389 -4.5743
  145SAPE  C21815977   4.052   1.908   8.867  0.0714  0.1772  0.4913
  145SAPE  H18R15978   4.113   1.991   8.824  1.7044 -0.0973  2.1344
  145SAPE  H18S15979   3.946   1.921   8.838 -0.0001 -0.8935  0.2296
  145SAPE  C21915980   4.081   1.765   8.806 -0.7673 -0.8300 -0.6098
  145SAPE  H19R15981   4.036   1.757   8.705  2.1210  0.1117 -2.0805
  145SAPE  H19S15982   4.032   1.689   8.871 -1.3708 -0.1696 -0.2845
  145SAPE  C22015983   4.232   1.737   8.787 -1.0308 -0.4867 -0.4467
  145SAPE  H20R15984   4.251   1.666   8.704  2.0116  0.6219 -0.8223
  145SAPE  H20S15985   4.288   1.727   8.883  0.4566  0.7780 -1.1415
  145SAPE  H20T15986   4.278   1.830   8.747 -0.6221 -1.5174 -2.5258
  145SAPE   C3315987   4.730   2.000   9.817 -0.0601  0.2476 -0.4882
  145SAPE   H3X15988   4.693   1.921   9.749 -3.9938 -0.7886  2.4795
  145SAPE   H3Y15989   4.840   1.997   9.807  0.0717  0.2159  0.8238
  145SAPE   C3415990   4.672   2.132   9.773 -0.0284 -0.1841 -0.4495
  145SAPE   H4X15991   4.731   2.207   9.829  1.5315 -2.2838  0.9113
  145SAPE   H4Y15992   4.570   2.164   9.805  1.1992  3.4898  0.2388
  145SAPE   C3515993   4.697   2.166   9.625  0.3121  0.1008  0.2006
  145SAPE   H5X15994   4.803   2.160   9.594  0.2794  1.7151 -0.3268
  145SAPE   H5Y15995   4.657   2.270   9.618 -2.4392 -0.8116  1.1091
  145SAPE   C3615996   4.616   2.073   9.528 -0.3059 -0.8697  0.2960
  145SAPE   H6X15997   4.510   2.093   9.554  0.2344  1.6450  0.8513
  145SAPE   H6Y15998   4.639   1.966   9.547 -0.0257 -0.9467 -0.4409
  145SAPE   C3715999   4.650   2.112   9.383 -0.0982 -0.2819 -0.2507
  145SAPE   H7X16000   4.759   2.093   9.385  0.4748  2.4212  2.5904
  145SAPE   H7Y16001   4.619   2.218   9.373  0.5957  0.0434  0.8646
  145SAPE   C3816002   4.581   2.011   9.290  0.1886 -0.1419  0.3533
  145SAPE   H8X16003   4.471   2.030   9.287  0.4118  1.5126  1.1254
  145SAPE   H8Y16004   4.597   1.904   9.315  0.0886  0.2021  2.0513
  145SAPE   C3916005   4.637   2.016   9.144  0.3625  0.0976  0.6781
  145SAPE   H9X16006   4.739   1.975   9.157  1.1217  0.8560 -2.1193
  145SAPE   H9Y16007   4.643   2.125   9.124 -2.6421  0.3319  0.5315
  145SAPE  C31016008   4.552   1.944   9.036 -0.3106  0.7164 -0.6933
  145SAPE  H10X16009   4.451   1.991   9.025 -1.5983 -2.0941 -2.0672
  145SAPE  H10Y16010   4.538   1.836   9.060  0.7383  0.5201 -0.9231
  145SAPE  C31116011   4.595   1.952   8.885  0.6508  0.0793 -0.3817
  145SAPE  H11X16012   4.578   2.053   8.842 -1.4849 -0.8949 -2.0126
  145SAPE  H11Y16013   4.523   1.883   8.837  0.0639 -0.1431  0.7935
  145SAPE  C31216014   4.744   1.899   8.859 -0.2546 -0.1290 -0.5575
  145SAPE  H12X16015   4.756   1.830   8.773  0.6056 -0.4313 -0.2043
  145SAPE  H12Y16016   4.769   1.835   8.946  0.1766  0.2621 -0.3889
  145SAPE  C31316017   4.836   2.015   8.866  0.6073 -0.0741  0.5400
  145SAPE  H13X16018   4.824   2.075   8.959  0.0306  0.6448  0.0013
  145SAPE  H13Y16019   4.815   2.072   8.773  0.0951  1.2372  1.4303
  145SAPE  C31416020   4.985   1.988   8.878 -0.3408  0.2465  0.0727
  145SAPE  H14X16021   4.997   1.938   8.976  0.0179  0.0139 -0.0842
  145SAPE  H14Y16022   5.035   2.087   8.870  2.0791 -0.7813  1.1666
  145SAPE  C31516023   5.034   1.899   8.763 -0.5538 -0.3243 -0.1002
  145SAPE  H15X16024   4.976   1.805   8.749  0.2776 -1.0564  1.2538
  145SAPE  H15Y16025   5.129   1.864   8.806 -0.4933  1.8721  1.7507
  145SAPE  C31616026   5.064   1.979   8.630 -0.1020 -0.0419 -0.4127
  145SAPE  H16X16027   5.142   2.057   8.645  1.2815 -1.4103 -0.3004
  145SAPE  H16Y16028   4.971   2.036   8.610 -1.8215 -1.9166  1.7151
  145SAPE  C31716029   5.108   1.889   8.517  0.2603 -1.1121 -0.1030
  145SAPE  H17X16030   5.036   1.805   8.501  0.1365 -1.2063  0.9064
  145SAPE  H17Y16031   5.202   1.838   8.547  0.4227  0.0577  1.4488
  145SAPE  C31816032   5.137   1.968   8.391  0.0696  0.7358 -0.1876
  145SAPE  H18X16033   5.044   2.023   8.366 -0.1061  0.4684 -0.1259
  145SAPE  H18Y16034   5.163   1.910   8.300 -0.7571 -0.3742  0.2634
  145SAPE  H18Z16035   5.204   2.050   8.427  1.0536 -0.7911  1.6675
  146SAPE     N16036   4.395   2.970  10.868 -0.0084 -0.5978  0.3237
  146SAPE   HN116037   4.334   2.886  10.860 -1.9394  0.5816  1.5304
  146SAPE   HN216038   4.416   3.005  10.773  2.6792 -0.7064  0.8238
  146SAPE   HN316039   4.492   2.959  10.903  0.4081  0.4158 -0.4691
  146SAPE   C1216040   4.300   3.059  10.952  0.7765  0.1073  0.2255
  146SAPE  H12A16041   4.353   3.154  10.972 -0.7225  1.1964 -0.7861
  146SAPE  H12B16042   4.281   3.012  11.052 -1.8020 -3.1030 -1.5698
  146SAPE   C1116043   4.162   3.079  10.880 -0.2492 -0.1301 -0.2100
  146SAPE  H11A16044   4.188   3.139  10.790  1.7839  0.7369  0.8869
  146SAPE  H11B16045   4.093   3.140  10.942 -2.6698 -2.4494 -0.4367
  146SAPE     P16046   3.963   2.917  10.827 -0.1478 -0.1947 -0.0764
  146SAPE   O1316047   3.952   2.773  10.802 -0.3356 -0.3438 -0.1740
  146SAPE   O1416048   3.872   2.972  10.923 -0.0068 -0.3657 -0.1301
  146SAPE   O1216049   4.108   2.950  10.855  0.0597  0.1215  0.0352
  146SAPE   O1116050   3.940   2.982  10.683 -0.0343 -0.2217  0.0481
  146SAPE    C116051   3.878   3.107  10.664 -0.2128 -0.0268 -0.5265
  146SAPE    HA16052   3.920   3.180  10.736  0.2758  0.0811 -0.9159
  146SAPE    HB16053   3.897   3.156  10.567 -0.9184 -0.6667 -0.9965
  146SAPE    C216054   3.727   3.083  10.655 -0.2075 -1.2308 -0.2958
  146SAPE    HS16055   3.695   3.018  10.739 -1.1332  1.2967  1.4539
  146SAPE   O2116056   3.690   3.021  10.531 -0.2598  0.4840  0.4423
  146SAPE   C2116057   3.575   2.959  10.538  0.0997 -0.3280  0.3053
  146SAPE   O2216058   3.488   2.967  10.620  0.5777 -0.4415 -0.2301
  146SAPE   C2216059   3.543   2.887  10.408 -0.3172  0.6425 -0.0767
  146SAPE   H2R16060   3.567   2.952  10.321 -2.2944  0.4569 -0.8053
  146SAPE   H2S16061   3.608   2.798  10.394 -2.2091 -0.8549  0.2374
  146SAPE    C316062   3.653   3.222  10.667 -0.1958 -0.7457 -0.0418
  146SAPE    HX16063   3.688   3.259  10.766  2.8099  1.2550 -1.6887
  146SAPE    HY16064   3.543   3.211  10.676 -0.1878  0.5552  2.8279
  146SAPE   O3116065   3.694   3.309  10.558  0.6847 -0.2058 -0.0378
  146SAPE   C3116066   3.770   3.409  10.594 -1.2067 -0.3561  0.6702
  146SAPE   O3216067   3.820   3.437  10.702  0.8989  0.3525  0.2266
  146SAPE   C3216068   3.796   3.506  10.474  0.0251  0.4584  0.1982
  146SAPE   H2X16069   3.884   3.565  10.508 -0.2269  0.5186  0.7634
  146SAPE   H2Y16070   3.707   3.571  10.465 -1.2300 -1.4303 -2.1170
  146SAPE   C2316071   3.396   2.852  10.401  0.1332 -0.1270  0.1224
  146SAPE   H3R16072   3.336   2.944  10.420  0.3499 -0.4823  3.0246
  146SAPE   H3S16073   3.368   2.775  10.476  0.2554  0.4182  0.7423
  146SAPE   C2416074   3.347   2.790  10.263 -0.0010 -0.7059 -1.0193
  146SAPE   H4R16075   3.390   2.850  10.179  0.2577  0.1601 -0.2759
  146SAPE   H4S16076   3.236   2.792  10.264 -0.0176  0.5550  1.3092
  146SAPE   C2516077   3.400   2.651  10.244  0.8166 -0.5923 -0.5715
  146SAPE   H5R16078   3.390   2.576  10.324 -2.0212 -2.2083 -2.2828
  146SAPE   C2616079   3.439   2.596  10.134  0.2359 -0.2373  0.7246
  146SAPE   H6R16080   3.475   2.492  10.136 -1.8812 -1.0484 -0.3311
  146SAPE   C2716081   3.452   2.663   9.994 -0.3868  0.0531  0.1924
  146SAPE   H7R16082   3.557   2.648   9.960 -0.9351 -0.0803 -1.5764
  146SAPE   H7S16083   3.440   2.773  10.007  0.7679  0.0778  1.2477
  146SAPE   C2816084   3.352   2.606   9.893  0.1840  0.5063 -0.6075
  146SAPE   H8R16085   3.293   2.522   9.933  1.3094 -0.5832 -1.1522
  146SAPE   C2916086   3.345   2.651   9.768 -0.1907 -0.3890 -0.8054
  146SAPE   H9R16087   3.270   2.607   9.700 -2.1486  1.1890  0.2232
  146SAPE  C21016088   3.434   2.752   9.694  0.6864 -0.3598  0.0362
  146SAPE  H10R16089   3.533   2.706   9.672  0.9203  0.0601  0.1879
  146SAPE  H10S16090   3.457   2.847   9.747  1.3797 -1.3069  1.5081
  146SAPE  C21116091   3.364   2.803   9.571 -0.0827 -0.1720  0.4655
  146SAPE  H11R16092   3.271   2.861   9.580  0.4106  0.6310  0.4371
  146SAPE  C21216093   3.406   2.800   9.441  0.2802  0.1390  0.4927
  146SAPE  H12R16094   3.345   2.851   9.366 -0.2910 -0.3185  0.6302
  146SAPE  C21316095   3.541   2.752   9.393  0.1415  0.0135  0.4040
  146SAPE  H13R16096   3.590   2.715   9.486 -2.5294 -1.4308  1.3466
  146SAPE  H13S16097   3.592   2.845   9.360 -0.6374 -0.5776 -2.7951
  146SAPE  C21416098   3.544   2.651   9.278  0.1971  0.1543  0.1492
  146SAPE  H14R16099   3.531   2.548   9.315  1.3275  0.6443  2.0304
  146SAPE  C21516100   3.537   2.673   9.146  0.9181  0.1508 -0.2385
  146SAPE  H15R16101   3.532   2.583   9.084 -0.5217 -2.0146  2.7713
  146SAPE  C21616102   3.536   2.809   9.083  0.1076 -0.6454  0.2394
  146SAPE  H16R16103   3.638   2.818   9.038  0.4387 -2.0374  0.6831
  146SAPE  H16S16104   3.523   2.895   9.152 -2.6594  1.0249 -2.1612
  146SAPE  C21716105   3.420   2.830   8.985 -0.5262 -0.3325  0.1063
  146SAPE  H17R16106   3.325   2.822   9.041  0.9592 -0.2693  2.7631
  146SAPE  H17S16107   3.416   2.761   8.898 -0.0796  0.1460 -0.3039
  146SAPE  C21816108   3.431   2.956   8.899  0.2910 -0.2443 -0.5709
  146SAPE  H18R16109   3.521   2.934   8.837 -0.8913 -2.1456 -1.7187
  146SAPE  H18S16110   3.441   3.049   8.960 -0.2671  0.1174 -1.0186
  146SAPE  C21916111   3.305   2.990   8.813  0.4665  0.3142 -0.4865
  146SAPE  H19R16112   3.208   2.980   8.865 -0.6583 -0.9936 -2.6470
  146SAPE  H19S16113   3.297   2.903   8.743  1.0458  0.2970 -0.5358
  146SAPE  C22016114   3.305   3.132   8.759 -0.8195  0.1751  0.4379
  146SAPE  H20R16115   3.226   3.148   8.682  0.8327  1.2401 -1.0841
  146SAPE  H20S16116   3.396   3.150   8.698 -1.2410  2.5850  0.4051
  146SAPE  H20T16117   3.302   3.212   8.836  0.4441  1.5801 -0.9079
  146SAPE   C3316118   3.820   3.441  10.338 -0.5445 -0.3006  0.2483
  146SAPE   H3X16119   3.730   3.379  10.316 -0.2911 -0.8586  0.7687
  146SAPE   H3Y16120   3.904   3.369  10.340 -0.2454  0.0428  0.1864
  146SAPE   C3416121   3.831   3.547  10.234 -0.2701 -0.7481  0.4044
  146SAPE   H4X16122   3.931   3.594  10.226 -0.4066 -0.3942  0.7328
  146SAPE   H4Y16123   3.765   3.634  10.254 -1.5768 -1.5975 -0.0489
  146SAPE   C3516124   3.805   3.491  10.092 -0.1374  0.1774 -0.6579
  146SAPE   H5X16125   3.697   3.467  10.083 -0.0361 -1.7393  1.9734
  146SAPE   H5Y16126   3.859   3.396  10.073 -1.8446 -0.4232 -2.9491
  146SAPE   C3616127   3.842   3.592   9.976  0.3079 -0.1593  0.4552
  146SAPE   H6X16128   3.946   3.629   9.982  0.0954  0.4752  0.3857
  146SAPE   H6Y16129   3.777   3.682   9.974 -0.5429 -0.7653 -1.3442
  146SAPE   C3716130   3.837   3.518   9.840  0.4232  0.0947 -0.8524
  146SAPE   H7X16131   3.744   3.457   9.839 -0.5043  1.4075  0.3796
  146SAPE   H7Y16132   3.928   3.455   9.834  1.2217  1.1943 -0.7861
  146SAPE   C3816133   3.831   3.612   9.718  0.0797  0.1683  0.4205
  146SAPE   H8X16134   3.905   3.694   9.729  0.1318  0.3497 -1.0845
  146SAPE   H8Y16135   3.738   3.671   9.727 -0.2072 -0.2306  0.0912
  146SAPE   C3916136   3.840   3.547   9.588 -0.4533 -0.9157 -0.3337
  146SAPE   H9X16137   3.783   3.452   9.592  1.3105 -1.9681  1.9766
  146SAPE   H9Y16138   3.942   3.505   9.584 -0.3520 -1.2490  2.9934
  146SAPE  C31016139   3.815   3.642   9.470 -0.1108 -0.4270 -0.3098
  146SAPE  H10X16140   3.850   3.740   9.509 -2.9689  1.4155 -1.9908
  146SAPE  H10Y16141   3.708   3.635   9.440 -0.4284  1.3777  0.2966
  146SAPE  C31116142   3.896   3.612   9.344 -0.3729  0.0395 -0.5566
  146SAPE  H11X16143   4.003   3.638   9.358 -0.1214 -1.0102 -0.4345
  146SAPE  H11Y16144   3.864   3.674   9.257 -0.8820  2.3228  1.1723
  146SAPE  C31216145   3.882   3.470   9.294 -0.0373  0.0677 -0.4331
  146SAPE  H12X16146   3.774   3.460   9.273 -0.0738  1.3986 -0.9815
  146SAPE  H12Y16147   3.911   3.404   9.378  0.6212  2.0118  0.9515
  146SAPE  C31316148   3.973   3.439   9.180  0.2644 -0.7687  0.0877
  146SAPE  H13X16149   3.951   3.334   9.148 -0.6321 -0.2599 -1.0436
  146SAPE  H13Y16150   4.077   3.459   9.215  0.0563  0.7215 -0.1173
  146SAPE  C31416151   3.952   3.530   9.052  0.7511 -0.0913 -0.5801
  146SAPE  H14X16152   4.027   3.513   8.972  0.3235  1.0375 -1.2323
  146SAPE  H14Y16153   3.969   3.637   9.080 -0.5364 -0.1970  0.7405
  146SAPE  C31516154   3.812   3.506   8.992  0.3379  0.8084  0.3392
  146SAPE  H15X16155   3.736   3.534   9.068  1.4788  0.6622  1.5592
  146SAPE  H15Y16156   3.791   3.399   8.973  1.0118  0.9098 -1.1681
  146SAPE  C31616157   3.783   3.590   8.867 -0.1702  0.0966  0.0424
  146SAPE  H16X16158   3.852   3.578   8.780 -0.8485 -0.4288 -0.4303
  146SAPE  H16Y16159   3.806   3.697   8.884  3.5227 -0.7933  1.7746
  146SAPE  C31716160   3.639   3.578   8.807 -0.1738 -0.5116 -0.3559
  146SAPE  H17X16161   3.643   3.636   8.712  0.5310 -1.0569 -0.6617
  146SAPE  H17Y16162   3.566   3.616   8.882  1.9371  0.4252  1.3048
  146SAPE  C31816163   3.604   3.437   8.787  0.4304 -0.0970 -0.6098
  146SAPE  H18X16164   3.589   3.369   8.874 -2.6267 -2.3096 -2.6476
  146SAPE  H18Y16165   3.678   3.398   8.714  0.4942  0.6539 -0.9478
  146SAPE  H18Z16166   3.503   3.430   8.741 -1.7314 -2.0135  3.8196
  147SAPE     N16167   5.233   0.286  10.775  0.8960  0.3916 -0.3258
  147SAPE   HN116168   5.282   0.378  10.779 -0.8877  1.3650 -0.0354
  147SAPE   HN216169   5.143   0.287  10.723  0.4491 -0.1758  0.3974
  147SAPE   HN316170   5.209   0.245  10.868 -0.8337  1.7812 -0.1088
  147SAPE   C1216171   5.312   0.175  10.703 -0.4183  0.3692 -0.2292
  147SAPE  H12A16172   5.335   0.217  10.603  2.3749  1.2332  0.6878
  147SAPE  H12B16173   5.249   0.085  10.692  0.1700 -0.2027  0.8824
  147SAPE   C1116174   5.443   0.150  10.774  0.8106 -0.2514 -0.8839
  147SAPE  H11A16175   5.500   0.076  10.713 -1.1944 -1.1049 -1.8027
  147SAPE  H11B16176   5.410   0.102  10.869  2.2822 -1.3325 -0.8710
  147SAPE     P16177   5.660   0.287  10.746 -0.1701  0.1160  0.0238
  147SAPE   O1316178   5.677   0.430  10.734  0.4344 -0.0134 -0.3059
  147SAPE   O1416179   5.760   0.207  10.821  0.0259  0.3966 -0.6470
  147SAPE   O1216180   5.516   0.264  10.809  0.3283  0.0080  0.1714
  147SAPE   O1116181   5.650   0.228  10.599  0.9923 -0.0002  0.2858
  147SAPE    C116182   5.768   0.195  10.532 -0.3232 -0.2867  0.5241
  147SAPE    HA16183   5.833   0.285  10.521 -0.7314 -0.0295  0.1756
  147SAPE    HB16184   5.819   0.123  10.599 -0.9642  0.3284  1.6886
  147SAPE    C216185   5.738   0.144  10.390  0.1072  0.0313 -0.7893
  147SAPE    HS16186   5.821   0.092  10.336  0.1790  0.1888 -0.8309
  147SAPE   O2116187   5.693   0.248  10.304 -0.0947 -0.0888 -0.2557
  147SAPE   C2116188   5.792   0.338  10.264 -0.1063 -0.4581 -0.1296
  147SAPE   O2216189   5.911   0.317  10.283 -0.2159  0.6255 -0.2577
  147SAPE   C2216190   5.735   0.458  10.191 -0.4284 -0.6742 -0.5593
  147SAPE   H2R16191   5.695   0.531  10.263 -1.9684 -0.4552 -1.5958
  147SAPE   H2S16192   5.821   0.500  10.133 -0.2358  1.9683  1.4480
  147SAPE    C316193   5.626   0.037  10.390  0.1929 -0.6457 -0.3257
  147SAPE    HX16194   5.537   0.073  10.445  0.2157  1.0443 -1.3286
  147SAPE    HY16195   5.660  -0.053  10.446 -0.7377  0.1838  1.6358
  147SAPE   O3116196   5.594  -0.006  10.256 -0.0805  0.1960  0.4128
  147SAPE   C3116197   5.506   0.054  10.178  0.1999 -0.7257 -0.7385
  147SAPE   O3216198   5.427   0.139  10.220  0.6222 -0.0136 -0.0607
  147SAPE   C3216199   5.538   0.015  10.037 -0.1971 -0.1474  0.3795
  147SAPE   H2X16200   5.495  -0.087  10.033 -0.7480  0.1199 -1.5507
  147SAPE   H2Y16201   5.649   0.014  10.025 -0.3537 -1.7532 -1.2946
  147SAPE   C2316202   5.609   0.431  10.110 -0.1451  0.2659  0.8947
  147SAPE   H3R16203   5.537   0.375  10.174  0.9267 -1.7201  0.4281
  147SAPE   H3S16204   5.630   0.374  10.018 -0.4526  2.3056 -0.5204
  147SAPE   C2416205   5.538   0.561  10.051  0.4687  0.0021 -0.2966
  147SAPE   H4R16206   5.479   0.610  10.130 -1.5413 -1.4165 -0.8402
  147SAPE   H4S16207   5.457   0.524   9.984  1.1341 -3.0885  0.4361
  147SAPE   C2516208   5.627   0.661   9.989  0.4258  0.0240  0.2852
  147SAPE   H5R16209   5.656   0.729  10.071 -4.2595 -0.3906  2.6309
  147SAPE   C2616210   5.681   0.672   9.865 -0.4253  0.0599  0.1390
  147SAPE   H6R16211   5.736   0.764   9.842 -2.4840  1.6661  1.2245
  147SAPE   C2716212   5.652   0.582   9.744 -0.6820  0.9216 -0.8437
  147SAPE   H7R16213   5.683   0.477   9.763 -2.2901  0.9479  2.5677
  147SAPE   H7S16214   5.726   0.612   9.666  2.3988 -0.2572  1.3981
  147SAPE   C2816215   5.512   0.595   9.687  0.3289  0.1499 -0.9203
  147SAPE   H8R16216   5.437   0.633   9.758  1.7578  3.3594 -0.9535
  147SAPE   C2916217   5.473   0.544   9.572  0.2636  0.2826  0.3718
  147SAPE   H9R16218   5.364   0.536   9.557  0.2972  1.4747 -0.6257
  147SAPE  C21016219   5.558   0.486   9.460  0.1561 -0.5498 -0.5229
  147SAPE  H10R16220   5.536   0.379   9.441 -2.9450 -0.6734  2.6955
  147SAPE  H10S16221   5.668   0.482   9.476  0.3775  1.0519 -1.3799
  147SAPE  C21116222   5.546   0.555   9.326 -0.0245 -0.4817 -0.7266
  147SAPE  H11R16223   5.573   0.661   9.337  0.9969 -0.9074  1.1202
  147SAPE  C21216224   5.500   0.512   9.206 -0.2038 -0.7123 -0.6267
  147SAPE  H12R16225   5.509   0.581   9.121 -1.7472 -1.2247 -1.2486
  147SAPE  C21316226   5.442   0.371   9.172 -0.0421 -1.0610 -0.0552
  147SAPE  H13R16227   5.359   0.397   9.104  1.4905  2.6208 -0.7804
  147SAPE  H13S16228   5.396   0.332   9.265 -1.5468  2.5448  0.8810
  147SAPE  C21416229   5.543   0.284   9.105 -0.3044  0.4777 -0.4574
  147SAPE  H14R16230   5.637   0.283   9.161 -0.1011  1.9926 -0.7267
  147SAPE  C21516231   5.528   0.218   8.990 -0.2968  0.6118  0.8993
  147SAPE  H15R16232   5.606   0.146   8.964  0.7022  1.7109  0.7653
  147SAPE  C21616233   5.416   0.209   8.901 -0.1909  0.4358 -0.0278
  147SAPE  H16R16234   5.319   0.205   8.956 -1.3426 -1.5604 -2.0360
  147SAPE  H16S16235   5.427   0.103   8.868  0.1275  0.6102 -0.4928
  147SAPE  C21716236   5.416   0.299   8.773 -0.5162 -0.3916 -0.1291
  147SAPE  H17R16237   5.417   0.400   8.819 -1.3453  0.3293 -1.6161
  147SAPE  H17S16238   5.318   0.276   8.727 -1.1939 -1.4113  1.7473
  147SAPE  C21816239   5.532   0.264   8.676  0.3050  0.1087 -1.0011
  147SAPE  H18R16240   5.525   0.157   8.645 -0.9927 -0.2260  0.3054
  147SAPE  H18S16241   5.629   0.271   8.730 -0.6192 -1.6290  1.0387
  147SAPE  C21916242   5.549   0.363   8.554  0.2336 -0.4194 -0.5899
  147SAPE  H19R16243   5.451   0.344   8.505  0.2569  0.4073 -0.9674
  147SAPE  H19S16244   5.634   0.339   8.487 -0.1391 -0.5044 -1.0406
  147SAPE  C22016245   5.561   0.507   8.600 -0.0745  0.7162  0.0537
  147SAPE  H20R16246   5.470   0.550   8.645  0.3292 -0.2846  1.9291
  147SAPE  H20S16247   5.574   0.582   8.519  0.4872  4.1564  3.0894
  147SAPE  H20T16248   5.639   0.521   8.678 -0.1250  1.1651  0.0220
  147SAPE   C3316249   5.475   0.104   9.935  0.1756  0.0081 -0.2550
  147SAPE   H3X16250   5.530   0.200   9.941 -1.0638  0.6462  2.1114
  147SAPE   H3Y16251   5.370   0.126   9.965  0.6842 -0.0265  1.6415
  147SAPE   C3416252   5.497   0.055   9.799 -0.2368  0.7988  1.6865
  147SAPE   H4X16253   5.420  -0.022   9.777 -0.0165  1.2938 -1.2308
  147SAPE   H4Y16254   5.599   0.014   9.787 -1.2543 -1.4192 -0.0563
  147SAPE   C3516255   5.479   0.163   9.696 -0.5806 -0.3677  0.6231
  147SAPE   H5X16256   5.555   0.241   9.719 -0.3289 -0.5105  0.2771
  147SAPE   H5Y16257   5.376   0.198   9.716 -0.7475 -1.4237  1.7884
  147SAPE   C3616258   5.492   0.110   9.548 -0.9902  0.2428 -0.3943
  147SAPE   H6X16259   5.462   0.203   9.496 -0.7681  0.4834 -0.0957
  147SAPE   H6Y16260   5.420   0.034   9.511 -1.7455  0.4342  0.6332
  147SAPE   C3716261   5.636   0.066   9.523  0.2505  0.1916 -0.8264
  147SAPE   H7X16262   5.643  -0.040   9.553 -0.5841  0.7589  1.5878
  147SAPE   H7Y16263   5.705   0.136   9.575 -0.3933  0.5603 -0.4557
  147SAPE   C3816264   5.678   0.066   9.372 -1.2036  0.9036 -0.1337
  147SAPE   H8X16265   5.663   0.173   9.349 -0.2792  0.9907 -0.3674
  147SAPE   H8Y16266   5.589   0.010   9.334 -0.8557 -0.1268  0.5026
  147SAPE   C3916267   5.813   0.014   9.343 -0.0493 -0.1898  0.0757
  147SAPE   H9X16268   5.816  -0.094   9.369  1.1039 -0.5260 -1.3208
  147SAPE   H9Y16269   5.895   0.070   9.395 -0.8174  0.7748  0.2898
  147SAPE  C31016270   5.836   0.022   9.194 -0.5032  0.6832 -0.4576
  147SAPE  H10X16271   5.812   0.123   9.154  0.6792  1.0215 -0.3482
  147SAPE  H10Y16272   5.779  -0.059   9.143 -1.8652 -0.8239  3.1391
  147SAPE  C31116273   5.982  -0.000   9.161  0.0753  0.3633  0.7708
  147SAPE  H11X16274   6.018  -0.101   9.192 -0.2538 -0.2340 -0.7288
  147SAPE  H11Y16275   6.046   0.070   9.218  1.3975  1.0007 -1.3862
  147SAPE  C31216276   6.020   0.027   9.014 -0.2120 -0.4125  1.0696
  147SAPE  H12X16277   6.005   0.135   8.994  1.3261 -0.4770 -0.6512
  147SAPE  H12Y16278   5.954  -0.036   8.949 -0.8071  0.1940  1.0728
  147SAPE  C31316279   6.168   0.007   8.988 -0.2544  0.4383  0.1860
  147SAPE  H13X16280   6.220  -0.021   9.083 -1.1181 -0.5170  0.3960
  147SAPE  H13Y16281   6.210   0.099   8.943 -0.1278  0.3349  0.0915
  147SAPE  C31416282   6.188  -0.120   8.898  0.1255  0.6943  0.1814
  147SAPE  H14X16283   6.179  -0.087   8.792  0.4800  3.4075  0.9106
  147SAPE  H14Y16284   6.115  -0.197   8.931  3.5380 -1.5610  3.1177
  147SAPE  C31516285   6.329  -0.182   8.903  0.2565  0.3647 -0.5845
  147SAPE  H15X16286   6.364  -0.220   9.001  0.2657  1.9331  0.0556
  147SAPE  H15Y16287   6.404  -0.103   8.881 -0.6791  1.8339  1.2495
  147SAPE  C31616288   6.353  -0.293   8.795  0.4644  0.3604  0.4277
  147SAPE  H16X16289   6.304  -0.259   8.701 -0.2319  0.5564  0.8546
  147SAPE  H16Y16290   6.304  -0.388   8.823  1.6304 -0.9441 -1.7077
  147SAPE  C31716291   6.503  -0.335   8.769 -0.2791  0.2586  0.3429
  147SAPE  H17X16292   6.556  -0.265   8.700  0.7098 -1.1062 -0.3214
  147SAPE  H17Y16293   6.493  -0.431   8.714  1.7079 -0.1245  0.5844
  147SAPE  C31816294   6.586  -0.367   8.896  0.2592  0.5735 -0.1112
  147SAPE  H18X16295   6.533  -0.448   8.950 -0.5986  0.6774 -0.7753
  147SAPE  H18Y16296   6.599  -0.276   8.959  0.1396  0.3533  0.2318
  147SAPE  H18Z16297   6.688  -0.400   8.867  0.1315  1.3405 -1.5255
  148SAPE     N16298   6.362   1.810  10.622  0.6618 -0.2951  0.8616
  148SAPE   HN116299   6.269   1.765  10.607  0.7855 -0.0426 -0.7343
  148SAPE   HN216300   6.411   1.772  10.706  0.8092  0.7889  1.2793
  148SAPE   HN316301   6.351   1.912  10.636  2.7715  0.1890 -0.6641
  148SAPE   C1216302   6.447   1.771  10.500 -0.0531 -0.1395 -0.8700
  148SAPE  H12A16303   6.541   1.828  10.518 -0.2050 -0.3114  0.6551
  148SAPE  H12B16304   6.402   1.818  10.411  0.4284  0.3619 -0.8566
  148SAPE   C1116305   6.457   1.620  10.478  1.2880 -0.7724  0.4084
  148SAPE  H11A16306   6.510   1.589  10.386  1.4770  0.9898 -0.1174
  148SAPE  H11B16307   6.353   1.582  10.472  1.8800 -2.4779  0.4334
  148SAPE     P16308   6.661   1.540  10.626  0.3189 -0.4840 -0.2643
  148SAPE   O1316309   6.707   1.665  10.693  0.0270  0.3564  0.2673
  148SAPE   O1416310   6.669   1.416  10.700  0.2994  0.2915 -0.1321
  148SAPE   O1216311   6.508   1.559  10.589  0.0999 -0.0599 -0.1634
  148SAPE   O1116312   6.736   1.536  10.491 -0.4693  0.0961 -0.3068
  148SAPE    C116313   6.775   1.416  10.426  0.1478  1.0419 -0.0667
  148SAPE    HA16314   6.730   1.324  10.470  0.9278  0.2883 -0.8042
  148SAPE    HB16315   6.750   1.412  10.318 -1.1236 -0.7271  0.2430
  148SAPE    C216316   6.931   1.395  10.436 -0.4069 -0.1450 -0.7669
  148SAPE    HS16317   6.958   1.364  10.539 -0.5084  0.1062 -0.6642
  148SAPE   O2116318   7.000   1.514  10.398  0.0042 -0.3468 -0.2562
  148SAPE   C2116319   7.125   1.528  10.423 -0.1912  0.5762  0.4717
  148SAPE   O2216320   7.187   1.442  10.480 -0.9629 -0.5787 -0.3610
  148SAPE   C2216321   7.188   1.644  10.359  0.0552 -0.1723  0.2182
  148SAPE   H2R16322   7.114   1.719  10.325 -0.5565 -1.5202 -1.5498
  148SAPE   H2S16323   7.250   1.691  10.438 -0.6313  3.2124 -1.0937
  148SAPE    C316324   6.988   1.279  10.345  0.0276 -1.7843  0.0807
  148SAPE    HX16325   6.936   1.184  10.370  0.3725 -1.8530  0.5359
  148SAPE    HY16326   7.094   1.263  10.372  0.0403  0.7674  1.8706
  148SAPE   O3116327   6.967   1.294  10.198  0.0972 -0.7637 -0.1426
  148SAPE   C3116328   7.065   1.291  10.120  0.3281 -0.1146 -0.2799
  148SAPE   O3216329   7.182   1.292  10.146  0.1435  0.1478 -0.3137
  148SAPE   C3216330   7.006   1.303   9.975 -0.4077  0.8413  0.1154
  148SAPE   H2X16331   6.936   1.389   9.979 -2.0992 -0.5228  2.8800
  148SAPE   H2Y16332   6.960   1.209   9.937  2.1212  0.2327 -1.7346
  148SAPE   C2316333   7.289   1.606  10.245 -0.8735  0.5457  0.0342
  148SAPE   H3R16334   7.233   1.549  10.168  0.4382 -0.4740 -0.2025
  148SAPE   H3S16335   7.370   1.540  10.283  1.8571  3.6155 -0.0604
  148SAPE   C2416336   7.346   1.726  10.157  0.4568 -0.0076 -0.4971
  148SAPE   H4R16337   7.252   1.776  10.125 -0.2601  0.5274  2.2065
  148SAPE   H4S16338   7.409   1.676  10.080  0.7179 -2.8263  1.4063
  148SAPE   C2516339   7.424   1.807  10.262  0.5351 -0.3083 -0.1240
  148SAPE   H5R16340   7.505   1.750  10.308  0.3587  0.5082  1.2475
  148SAPE   C2616341   7.431   1.940  10.268  0.5610 -0.2625 -0.4142
  148SAPE   H6R16342   7.489   1.977  10.354 -1.0164 -1.6692  1.3396
  148SAPE   C2716343   7.349   2.041  10.192 -0.5451 -0.0642  0.1290
  148SAPE   H7R16344   7.294   2.104  10.264  0.1384  0.0745  0.5377
  148SAPE   H7S16345   7.266   2.002  10.129 -0.3360  0.4828 -0.4997
  148SAPE   C2816346   7.439   2.139  10.113 -0.1113 -0.0038  0.6671
  148SAPE   H8R16347   7.479   2.228  10.163 -1.8220  1.9674 -1.2912
  148SAPE   C2916348   7.476   2.124   9.977  0.6537  0.0018 -0.3346
  148SAPE   H9R16349   7.544   2.197   9.930  1.2962 -1.9079 -2.5559
  148SAPE  C21016350   7.434   2.011   9.890  0.6655 -0.2491  0.1951
  148SAPE  H10R16351   7.436   2.044   9.784 -0.9979  0.4966  0.3626
  148SAPE  H10S16352   7.330   1.984   9.920  0.1408  2.9046  1.6869
  148SAPE  C21116353   7.517   1.886   9.908  0.7086 -0.7174  0.2698
  148SAPE  H11R16354   7.576   1.874  10.001  1.9510 -1.6738 -0.6101
  148SAPE  C21216355   7.545   1.797   9.816  0.0328 -0.5607  0.0046
  148SAPE  H12R16356   7.603   1.706   9.838 -0.1556 -1.0397 -1.3465
  148SAPE  C21316357   7.500   1.802   9.675 -0.8542 -0.0891  0.2029
  148SAPE  H13R16358   7.587   1.842   9.617 -1.4651  0.0713 -0.6194
  148SAPE  H13S16359   7.424   1.881   9.659  1.6229  2.1960 -1.2585
  148SAPE  C21416360   7.458   1.667   9.622 -0.4990  0.5068 -0.2732
  148SAPE  H14R16361   7.423   1.585   9.685  0.3520 -0.0499 -0.5057
  148SAPE  C21516362   7.439   1.648   9.487  0.5651 -0.1168  0.4673
  148SAPE  H15R16363   7.405   1.549   9.452 -0.1960  0.2395  0.1799
  148SAPE  C21616364   7.455   1.746   9.372 -0.7438  0.7251 -0.2687
  148SAPE  H16R16365   7.551   1.800   9.386 -0.3442 -0.3847  1.6006
  148SAPE  H16S16366   7.388   1.835   9.383  0.4024  1.5042  0.6490
  148SAPE  C21716367   7.458   1.683   9.227 -0.7881  0.4959 -0.1166
  148SAPE  H17R16368   7.471   1.756   9.144 -0.8896 -1.9932 -2.4728
  148SAPE  H17S16369   7.359   1.634   9.215 -0.0146 -0.9810 -0.6825
  148SAPE  C21816370   7.583   1.595   9.213 -0.2296  0.2694  0.6067
  148SAPE  H18R16371   7.582   1.517   9.293  0.5676 -2.2279 -1.6469
  148SAPE  H18S16372   7.670   1.663   9.225  0.6649 -0.3278 -1.8215
  148SAPE  C21916373   7.600   1.534   9.073  0.5393 -0.8013  0.0393
  148SAPE  H19R16374   7.563   1.611   9.002  2.1776  0.5079  0.5450
  148SAPE  H19S16375   7.536   1.443   9.069  0.6112 -0.8678  0.3348
  148SAPE  C22016376   7.746   1.491   9.052  0.1694  0.0174 -0.0874
  148SAPE  H20R16377   7.821   1.569   9.078  0.9810 -0.2984 -1.4051
  148SAPE  H20S16378   7.750   1.471   8.943 -0.2295  1.7639 -0.4431
  148SAPE  H20T16379   7.772   1.403   9.115  0.7554  2.3015  3.1033
  148SAPE   C3316380   7.123   1.327   9.871  0.3787 -0.5091  0.5807
  148SAPE   H3X16381   7.201   1.248   9.867  0.2896 -0.5734  0.0054
  148SAPE   H3Y16382   7.177   1.423   9.888 -2.2074  0.9658  1.0529
  148SAPE   C3416383   7.069   1.335   9.722  0.4391 -0.6454  0.4328
  148SAPE   H4X16384   6.974   1.392   9.729  1.4732  1.2615 -0.1612
  148SAPE   H4Y16385   7.053   1.229   9.692  1.6557 -1.2887  1.9245
  148SAPE   C3516386   7.161   1.392   9.622 -0.3814  0.4179  0.0761
  148SAPE   H5X16387   7.263   1.349   9.634  0.1776  2.3946  4.1060
  148SAPE   H5Y16388   7.188   1.496   9.648  0.1063  0.0384  1.1215
  148SAPE   C3616389   7.122   1.388   9.471  0.7430  0.4820 -0.7500
  148SAPE   H6X16390   7.141   1.488   9.426  2.1539 -0.6075 -2.7303
  148SAPE   H6Y16391   7.014   1.365   9.470  0.9096 -0.3456 -0.4638
  148SAPE   C3716392   7.195   1.277   9.402 -0.4313 -0.0875 -0.8052
  148SAPE   H7X16393   7.179   1.185   9.461  2.7263  0.1076  0.5625
  148SAPE   H7Y16394   7.305   1.294   9.407 -0.3338 -1.0173  0.5081
  148SAPE   C3816395   7.151   1.263   9.257  0.6943 -0.2334  0.2699
  148SAPE   H8X16396   7.047   1.224   9.258  0.7562 -0.4671  2.5753
  148SAPE   H8Y16397   7.209   1.183   9.206  1.6730  0.9834 -0.6062
  148SAPE   C3916398   7.153   1.386   9.174 -0.4919  0.2159 -0.1102
  148SAPE   H9X16399   7.252   1.435   9.182 -1.3241  1.6532  1.9174
  148SAPE   H9Y16400   7.077   1.449   9.224  0.9567  1.2300  0.8831
  148SAPE  C31016401   7.111   1.368   9.022 -0.5427 -0.3388  0.0947
  148SAPE  H10X16402   7.144   1.457   8.964  1.4446 -1.6651 -0.9277
  148SAPE  H10Y16403   7.001   1.356   9.022 -0.5373 -0.5840 -1.2500
  148SAPE  C31116404   7.174   1.250   8.961  1.0165  0.2615 -0.1348
  148SAPE  H11X16405   7.133   1.158   9.008 -0.5310  1.0377  0.0930
  148SAPE  H11Y16406   7.281   1.257   8.992  0.9569 -1.7915  0.7050
  148SAPE  C31216407   7.136   1.239   8.817 -0.5339 -0.1716  0.7263
  148SAPE  H12X16408   7.138   1.332   8.757  1.6568 -0.4732  0.2502
  148SAPE  H12Y16409   7.032   1.200   8.805  0.2908 -2.5905  0.8911
  148SAPE  C31316410   7.227   1.137   8.744  0.2726  0.5996  0.1039
  148SAPE  H13X16411   7.187   1.037   8.773 -1.4701  0.9569 -0.9333
  148SAPE  H13Y16412   7.332   1.141   8.781 -0.0072 -1.6763  1.3738
  148SAPE  C31416413   7.225   1.137   8.592  0.1537 -0.7874  0.3304
  148SAPE  H14X16414   7.259   1.040   8.550 -0.0355 -0.6767 -0.0824
  148SAPE  H14Y16415   7.286   1.219   8.548  0.6708 -1.1015  0.4555
  148SAPE  C31516416   7.086   1.129   8.529  0.4030 -0.0772 -0.3964
  148SAPE  H15X16417   7.091   1.151   8.420 -0.4651 -1.5936 -0.7602
  148SAPE  H15Y16418   7.024   1.210   8.574  2.4185  1.0151  0.5670
  148SAPE  C31616419   7.024   0.988   8.527  0.2403  0.2855  0.1716
  148SAPE  H16X16420   7.032   0.929   8.622  1.7080 -0.5825 -0.4540
  148SAPE  H16Y16421   7.068   0.922   8.449 -0.2535 -0.2864  0.3683
  148SAPE  C31716422   6.867   0.999   8.503 -0.1774  0.7247  0.1557
  148SAPE  H17X16423   6.847   1.087   8.438  1.1551 -1.2583 -3.2130
  148SAPE  H17Y16424   6.827   1.014   8.606  1.0047 -1.9336  1.0854
  148SAPE  C31816425   6.802   0.877   8.439  0.3205 -1.3144 -0.6088
  148SAPE  H18X16426   6.691   0.874   8.439  0.2293 -0.0157 -2.7864
  148SAPE  H18Y16427   6.839   0.776   8.467 -1.8263 -1.6583  1.2668
  148SAPE  H18Z16428   6.826   0.895   8.332 -0.1611 -0.2890 -0.5564
  149SAPE     N16429   1.388   4.154  11.017  0.4852  0.1073  0.9847
  149SAPE   HN116430   1.304   4.124  10.964  0.7825  1.6800 -0.4544
  149SAPE   HN216431   1.463   4.157  10.945  0.2849  1.0998  0.8041
  149SAPE   HN316432   1.417   4.071  11.074  0.6059 -2.7316 -2.8101
  149SAPE   C1216433   1.382   4.291  11.077  0.2497  0.5005 -0.1817
  149SAPE  H12A16434   1.468   4.293  11.148  1.8721 -3.0171 -1.8239
  149SAPE  H12B16435   1.289   4.309  11.135  0.3240  2.1722 -0.5307
  149SAPE   C1116436   1.384   4.390  10.961  0.3201 -0.3114 -0.3909
  149SAPE  H11A16437   1.290   4.378  10.902 -0.0632 -1.1537  0.3543
  149SAPE  H11B16438   1.466   4.366  10.889  2.2173  1.6941  0.9940
  149SAPE     P16439   1.536   4.602  10.999 -0.3589 -0.3693 -0.1702
  149SAPE   O1316440   1.516   4.744  11.036 -0.5186  0.2868  0.1799
  149SAPE   O1416441   1.647   4.529  11.055 -0.4271  0.4329  0.0705
  149SAPE   O1216442   1.400   4.524  11.002  0.2644 -0.6992 -0.0552
  149SAPE   O1116443   1.563   4.610  10.843 -0.1915  0.2182 -0.0597
  149SAPE    C116444   1.690   4.638  10.787 -0.5384  0.9095  0.3568
  149SAPE    HA16445   1.700   4.733  10.731 -0.2568  0.4854 -0.3293
  149SAPE    HB16446   1.769   4.653  10.864  1.0302  0.4296 -1.0980
  149SAPE    C216447   1.745   4.517  10.698  0.1112  0.4969 -0.5108
  149SAPE    HS16448   1.843   4.538  10.651  0.7210  0.5142  0.7239
  149SAPE   O2116449   1.652   4.478  10.596 -0.1358  0.4439 -0.2849
  149SAPE   C2116450   1.641   4.557  10.497  0.1318  0.5959 -0.1543
  149SAPE   O2216451   1.715   4.652  10.475  1.3311 -0.1662 -0.3895
  149SAPE   C2216452   1.534   4.497  10.406 -0.0797  0.1496  1.1594
  149SAPE   H2R16453   1.555   4.390  10.389 -1.4982 -0.3239  2.1754
  149SAPE   H2S16454   1.440   4.515  10.463 -0.5583  2.4401 -0.2376
  149SAPE    C316455   1.767   4.394  10.789 -0.2656 -0.5604 -0.1858
  149SAPE    HX16456   1.668   4.369  10.833 -0.1677 -0.7860 -0.0950
  149SAPE    HY16457   1.831   4.436  10.870 -1.5844  1.4899 -0.1248
  149SAPE   O3116458   1.820   4.277  10.716  0.2325 -0.3632  0.4753
  149SAPE   C3116459   1.950   4.287  10.683 -0.3522  0.3224  0.0115
  149SAPE   O3216460   2.017   4.387  10.714 -0.0653  0.3237 -0.5131
  149SAPE   C3216461   1.996   4.172  10.593 -0.1806 -0.2164 -0.6296
  149SAPE   H2X16462   1.931   4.082  10.606  0.5328 -0.7657 -0.8073
  149SAPE   H2Y16463   2.101   4.158  10.626  0.5220  5.3112  0.3305
  149SAPE   C2316464   1.515   4.572  10.271  0.4748  0.5921  0.1493
  149SAPE   H3R16465   1.612   4.561  10.219  0.2187  0.4327 -0.3069
  149SAPE   H3S16466   1.512   4.681  10.290  2.2025  0.6447  0.2140
  149SAPE   C2416467   1.396   4.509  10.180 -0.3014 -0.3279  0.0527
  149SAPE   H4R16468   1.313   4.509  10.254 -1.0893  0.0111 -0.8070
  149SAPE   H4S16469   1.426   4.407  10.149  1.6592 -0.1460  1.2040
  149SAPE   C2516470   1.372   4.591  10.051  0.2770  0.4263 -0.5771
  149SAPE   H5R16471   1.328   4.691  10.059 -1.2091 -0.3465  1.7791
  149SAPE   C2616472   1.393   4.549   9.923  0.2183 -0.1434  0.2221
  149SAPE   H6R16473   1.365   4.628   9.852  0.3718 -0.0213  0.2960
  149SAPE   C2716474   1.445   4.412   9.879 -0.4811 -0.1119  0.1685
  149SAPE   H7R16475   1.369   4.378   9.806 -1.3371 -0.6840  1.2872
  149SAPE   H7S16476   1.439   4.340   9.964  1.4634 -1.0346 -0.4245
  149SAPE   C2816477   1.584   4.419   9.819 -0.3824 -0.5293  0.0852
  149SAPE   H8R16478   1.662   4.421   9.897 -0.7391  0.2295  0.4293
  149SAPE   C2916479   1.623   4.430   9.692 -0.0138  0.3518  0.5538
  149SAPE   H9R16480   1.729   4.446   9.668  0.5108 -2.2235  0.9310
  149SAPE  C21016481   1.528   4.443   9.572  0.3983  0.7612 -0.3747
  149SAPE  H10R16482   1.424   4.453   9.608  0.3020  0.7321 -0.6402
  149SAPE  H10S16483   1.540   4.348   9.515  0.5098  0.4295  0.1883
  149SAPE  C21116484   1.575   4.566   9.498  0.1604  0.0382  0.0397
  149SAPE  H11R16485   1.576   4.656   9.561  1.4220 -0.4278  0.6988
  149SAPE  C21216486   1.602   4.573   9.365  0.4624  0.2564  0.2577
  149SAPE  H12R16487   1.627   4.666   9.311  0.4101 -1.8330 -3.8142
  149SAPE  C21316488   1.610   4.454   9.269 -0.2441 -0.5075  0.0846
  149SAPE  H13R16489   1.648   4.359   9.311  2.0356  0.4668  0.3775
  149SAPE  H13S16490   1.689   4.471   9.193 -1.2102 -0.4914 -0.9528
  149SAPE  C21416491   1.482   4.421   9.194 -0.6145 -0.2422 -0.4264
  149SAPE  H14R16492   1.401   4.380   9.257 -1.7635  0.7268 -1.2144
  149SAPE  C21516493   1.454   4.449   9.064  0.4948  0.6490 -0.3046
  149SAPE  H15R16494   1.358   4.420   9.019  0.6503  1.9251 -1.5366
  149SAPE  C21616495   1.544   4.531   8.976  0.2376  0.2790 -0.2862
  149SAPE  H16R16496   1.606   4.463   8.913  1.7319  1.3774 -0.0503
  149SAPE  H16S16497   1.621   4.587   9.033  0.4563  0.7653 -1.0410
  149SAPE  C21716498   1.469   4.628   8.880  0.2489 -0.0058  0.1424
  149SAPE  H17R16499   1.539   4.700   8.833  0.8403  0.6037  1.8847
  149SAPE  H17S16500   1.401   4.683   8.949 -1.1726 -1.7895  0.2486
  149SAPE  C21816501   1.391   4.573   8.766 -0.2519 -0.7025  0.2193
  149SAPE  H18R16502   1.302   4.523   8.809 -0.8591  2.3312  2.8367
  149SAPE  H18S16503   1.450   4.499   8.708  0.2921 -0.6807  0.7305
  149SAPE  C21916504   1.349   4.682   8.669 -0.0037  0.0432 -0.2139
  149SAPE  H19R16505   1.436   4.744   8.638  1.2898 -1.5838  0.0636
  149SAPE  H19S16506   1.293   4.751   8.736  0.9084  1.8794 -1.2709
  149SAPE  C22016507   1.265   4.623   8.554 -0.2306  0.1454 -0.5285
  149SAPE  H20R16508   1.217   4.714   8.513 -1.3941  0.0074  0.4821
  149SAPE  H20S16509   1.184   4.559   8.596  0.9033  0.1160  1.8144
  149SAPE  H20T16510   1.333   4.578   8.479 -2.7380  0.5425 -3.1952
  149SAPE   C3316511   1.997   4.208  10.441  0.8919 -0.2143  0.2652
  149SAPE   H3X16512   2.043   4.128  10.379  0.5051 -0.0185 -0.2838
  149SAPE   H3Y16513   2.067   4.293  10.435  1.9607 -1.1138 -0.3858
  149SAPE   C3416514   1.848   4.228  10.389 -0.6169 -0.2596  0.1197
  149SAPE   H4X16515   1.803   4.308  10.452 -0.3948 -0.9044  1.1120
  149SAPE   H4Y16516   1.790   4.135  10.407 -1.6790  0.3415 -0.0847
  149SAPE   C3516517   1.829   4.268  10.241 -0.1102  0.5952  0.0935
  149SAPE   H5X16518   1.874   4.369  10.228  0.5881  0.5965  2.1712
  149SAPE   H5Y16519   1.720   4.284  10.228  0.0506  1.4126 -0.3394
  149SAPE   C3616520   1.902   4.185  10.133  0.3335 -0.1690  0.3445
  149SAPE   H6X16521   1.867   4.081  10.150  0.9518 -0.6964 -1.4229
  149SAPE   H6Y16522   2.012   4.202  10.134  0.1220  2.0674 -2.6146
  149SAPE   C3716523   1.846   4.219  10.001 -0.1469 -0.3358 -0.0817
  149SAPE   H7X16524   1.853   4.329   9.985  1.5274 -0.0031  2.3780
  149SAPE   H7Y16525   1.737   4.200   9.991 -0.1509 -0.8157  0.8224
  149SAPE   C3816526   1.926   4.147   9.894  0.0671 -0.0051  0.2282
  149SAPE   H8X16527   1.919   4.037   9.911 -0.3250 -0.0799 -0.3859
  149SAPE   H8Y16528   2.034   4.170   9.906 -0.3239  1.6365  0.8064
  149SAPE   C3916529   1.867   4.186   9.758 -0.1086 -0.1729 -0.1451
  149SAPE   H9X16530   1.900   4.288   9.731 -0.5188 -0.0041 -0.0279
  149SAPE   H9Y16531   1.756   4.199   9.759 -0.4051 -1.9140 -2.4135
  149SAPE  C31016532   1.896   4.088   9.644  0.6305  0.0254 -0.0236
  149SAPE  H10X16533   1.841   3.994   9.668  1.4731 -0.7719 -1.1222
  149SAPE  H10Y16534   1.999   4.047   9.655  0.3607 -0.6947 -0.1554
  149SAPE  C31116535   1.861   4.139   9.503  0.1196 -0.3794 -0.2264
  149SAPE  H11X16536   1.925   4.225   9.471  0.1444 -0.4240 -0.2961
  149SAPE  H11Y16537   1.754   4.168   9.501  0.2168  0.0268  0.2681
  149SAPE  C31216538   1.888   4.023   9.407 -0.1182 -0.7230  0.7013
  149SAPE  H12X16539   1.796   3.961   9.408 -0.1294 -0.7764 -0.8000
  149SAPE  H12Y16540   1.980   3.968   9.437  1.2278  0.8919 -0.2493
  149SAPE  C31316541   1.923   4.056   9.260  0.7669 -0.0292  0.0599
  149SAPE  H13X16542   1.958   3.965   9.206 -1.5875 -0.1093 -1.4807
  149SAPE  H13Y16543   2.007   4.128   9.247  0.2122  0.5997 -0.0815
  149SAPE  C31416544   1.809   4.120   9.177  0.1410 -0.4145  0.1454
  149SAPE  H14X16545   1.801   4.225   9.212  0.7935 -0.6002  0.8971
  149SAPE  H14Y16546   1.716   4.061   9.196 -0.0401  0.1541  1.1104
  149SAPE  C31516547   1.854   4.131   9.028  0.8382 -0.1803  0.5884
  149SAPE  H15X16548   1.851   4.028   8.986 -0.2838 -0.5039  1.3975
  149SAPE  H15Y16549   1.954   4.177   9.022  0.4789  0.4793 -0.8055
  149SAPE  C31616550   1.756   4.223   8.951  0.5818 -0.0478 -0.2564
  149SAPE  H16X16551   1.709   4.301   9.014 -1.1654 -1.0673 -0.2202
  149SAPE  H16Y16552   1.669   4.162   8.918  0.4442  0.2296 -0.4117
  149SAPE  C31716553   1.818   4.290   8.827  0.2336  0.1667 -0.0528
  149SAPE  H17X16554   1.740   4.339   8.765 -1.2098 -1.5084  0.3703
  149SAPE  H17Y16555   1.865   4.213   8.761  0.0010 -0.4758  0.5226
  149SAPE  C31816556   1.931   4.392   8.856  0.2658  0.0831 -0.7183
  149SAPE  H18X16557   2.006   4.337   8.918 -1.4342 -1.7084 -0.1455
  149SAPE  H18Y16558   1.890   4.482   8.906 -0.8965  0.0026 -1.5021
  149SAPE  H18Z16559   1.983   4.433   8.767 -0.5787  1.3774 -0.6311
  150SAPE     N16560   2.853   2.441  11.050  0.1246 -0.5041  0.6592
  150SAPE   HN116561   2.812   2.354  11.011  0.4275 -0.8431  1.0869
  150SAPE   HN216562   2.877   2.433  11.151 -0.6326  0.6394  0.9612
  150SAPE   HN316563   2.793   2.525  11.035  2.7790  1.9112  2.4866
  150SAPE   C1216564   2.974   2.473  10.967 -0.2263 -1.2788 -0.7016
  150SAPE  H12A16565   2.973   2.391  10.891 -1.8818 -1.7222 -0.2396
  150SAPE  H12B16566   3.060   2.476  11.037  0.9864 -1.4407 -2.1260
  150SAPE   C1116567   2.961   2.616  10.905  0.1820 -0.1128 -0.0337
  150SAPE  H11A16568   2.862   2.636  10.858  0.0812 -1.2593 -0.3619
  150SAPE  H11B16569   3.035   2.623  10.822  1.2274 -3.2936  0.4828
  150SAPE     P16570   3.107   2.810  11.012 -0.0752 -0.1221 -0.2106
  150SAPE   O1316571   3.139   2.838  11.155  0.1578 -0.2757  0.3055
  150SAPE   O1416572   3.217   2.742  10.939  0.2457 -0.2290  0.3476
  150SAPE   O1216573   2.978   2.713  11.006 -0.8145  0.1155  0.3001
  150SAPE   O1116574   3.069   2.947  10.942 -0.0777 -0.1403  0.2024
  150SAPE    C116575   2.949   3.020  10.945  1.0767 -0.3143 -0.4191
  150SAPE    HA16576   2.891   3.008  11.039 -0.7033  0.6988 -1.3290
  150SAPE    HB16577   2.975   3.128  10.942 -2.1789  0.6881  1.6891
  150SAPE    C216578   2.853   3.001  10.821 -0.1480 -0.4927 -0.3872
  150SAPE    HS16579   2.816   2.898  10.838 -0.7520 -0.4431 -1.3239
  150SAPE   O2116580   2.931   3.027  10.700  0.1454  0.5583 -0.3295
  150SAPE   C2116581   2.925   2.918  10.620  0.4079  0.2340 -0.7140
  150SAPE   O2216582   2.856   2.820  10.642  0.5654  0.4244  0.2757
  150SAPE   C2216583   3.035   2.924  10.513 -0.9670  0.6549  0.1694
  150SAPE   H2R16584   3.105   3.007  10.537  0.9232 -0.9673  0.4681
  150SAPE   H2S16585   3.082   2.824  10.515 -1.6568  0.2938 -1.1035
  150SAPE    C316586   2.735   3.101  10.820  0.3118  0.2712  0.0964
  150SAPE    HX16587   2.791   3.196  10.805  3.9385 -1.8121 -0.7431
  150SAPE    HY16588   2.680   3.112  10.917 -0.7045 -1.4125 -0.2580
  150SAPE   O3116589   2.644   3.087  10.710 -0.3399  0.2783  0.1184
  150SAPE   C3116590   2.559   2.978  10.714  0.5902 -0.2891 -0.2818
  150SAPE   O3216591   2.565   2.891  10.794  0.0937 -0.5319 -0.4876
  150SAPE   C3216592   2.445   2.986  10.615 -0.1041 -0.9696 -0.1407
  150SAPE   H2X16593   2.407   3.090  10.611  2.1304 -0.0427  1.2639
  150SAPE   H2Y16594   2.364   2.918  10.649  0.5579 -2.0220 -0.6102
  150SAPE   C2316595   2.985   2.944  10.372 -1.1337  0.5250  0.0194
  150SAPE   H3R16596   3.073   2.957  10.305 -0.3540  0.1239  0.9514
  150SAPE   H3S16597   2.934   3.042  10.357 -1.0064  0.9429  2.0252
  150SAPE   C2416598   2.903   2.823  10.321 -0.5362 -0.8345  0.4420
  150SAPE   H4R16599   2.856   2.844  10.222 -1.0524 -1.1043  0.6236
  150SAPE   H4S16600   2.812   2.806  10.381  0.2557 -0.3988  1.7935
  150SAPE   C2516601   2.975   2.692  10.306 -0.1465 -0.4181 -0.8862
  150SAPE   H5R16602   3.003   2.644  10.401 -0.2686  0.6368 -0.3013
  150SAPE   C2616603   3.001   2.630  10.190 -0.5290  0.1677  0.0293
  150SAPE   H6R16604   3.070   2.544  10.197  0.9252  1.2222 -0.7190
  150SAPE   C2716605   2.966   2.677  10.054  0.1697 -0.0058 -0.3720
  150SAPE   H7R16606   3.049   2.660   9.982  0.4764  1.7029 -0.4708
  150SAPE   H7S16607   2.955   2.788  10.051 -0.0098  0.0304  1.0338
  150SAPE   C2816608   2.833   2.640  10.003  0.8244 -0.3004  0.0487
  150SAPE   H8R16609   2.753   2.626  10.077  0.4818 -1.6287 -0.5576
  150SAPE   C2916610   2.794   2.616   9.876 -0.4906 -0.1000 -0.1743
  150SAPE   H9R16611   2.690   2.583   9.869 -1.6642  2.6514  2.1995
  150SAPE  C21016612   2.881   2.616   9.757  0.4385  0.1047  0.2754
  150SAPE  H10R16613   2.893   2.510   9.724 -2.1405 -0.2809  0.3778
  150SAPE  H10S16614   2.982   2.658   9.776  0.8049 -0.8002  0.3595
  150SAPE  C21116615   2.821   2.695   9.643 -0.7916  0.7427 -0.0696
  150SAPE  H11R16616   2.716   2.726   9.650 -1.8690 -2.3652 -0.8843
  150SAPE  C21216617   2.870   2.699   9.523 -0.4002  0.0061  0.3216
  150SAPE  H12R16618   2.808   2.745   9.445 -1.8129 -1.6903  0.3666
  150SAPE  C21316619   3.003   2.640   9.475  1.1878 -0.0566 -1.0202
  150SAPE  H13R16620   3.054   2.581   9.555  0.3863  0.6667  0.0507
  150SAPE  H13S16621   3.072   2.726   9.462  0.6529  1.0456  2.3656
  150SAPE  C21416622   2.977   2.559   9.355  0.7742 -0.2404  0.5176
  150SAPE  H14R16623   2.920   2.468   9.380 -3.5710  2.1678  0.3556
  150SAPE  C21516624   2.999   2.585   9.223  0.1660  0.1633 -0.0484
  150SAPE  H15R16625   2.986   2.506   9.148 -0.8846  0.0692  0.2217
  150SAPE  C21616626   3.053   2.714   9.172 -0.0732 -0.1620 -0.1479
  150SAPE  H16R16627   3.163   2.709   9.161 -0.0938  0.2925 -0.6171
  150SAPE  H16S16628   3.032   2.797   9.244 -0.4650 -0.0589 -0.3778
  150SAPE  C21716629   2.977   2.763   9.047  0.4155  0.3905  0.7459
  150SAPE  H17R16630   2.975   2.678   8.975 -1.4813 -0.2173  1.4754
  150SAPE  H17S16631   3.035   2.849   9.006  2.4167 -1.0521  0.3815
  150SAPE  C21816632   2.834   2.821   9.067  0.2353 -0.0366  0.0779
  150SAPE  H18R16633   2.844   2.888   9.155 -0.5683 -0.7179  0.6988
  150SAPE  H18S16634   2.774   2.732   9.094 -1.0574 -0.2320 -3.0497
  150SAPE  C21916635   2.776   2.907   8.951  1.3038 -0.0372 -0.2155
  150SAPE  H19R16636   2.753   2.835   8.869 -1.6102 -0.1253  0.5439
  150SAPE  H19S16637   2.851   2.978   8.911  0.3255  0.6407 -0.9076
  150SAPE  C22016638   2.637   2.978   8.983  0.1666  0.0391  0.2098
  150SAPE  H20R16639   2.563   2.898   9.006  0.0613 -0.1696 -0.8129
  150SAPE  H20S16640   2.600   3.043   8.901  2.2651  1.9741  0.7142
  150SAPE  H20T16641   2.635   3.043   9.073  2.1373  0.5028 -0.0487
  150SAPE   C3316642   2.495   2.933  10.479 -0.3461 -0.6056 -0.1100
  150SAPE   H3X16643   2.402   2.925  10.419  0.7077  1.3553 -2.1299
  150SAPE   H3Y16644   2.547   2.835  10.487 -0.3196 -0.7067 -1.3457
  150SAPE   C3416645   2.581   3.023  10.389  0.4627  0.3798  0.5986
  150SAPE   H4X16646   2.686   3.029  10.424  0.3850 -2.9192  1.7459
  150SAPE   H4Y16647   2.534   3.121  10.366  0.7317  0.1485 -1.1384
  150SAPE   C3516648   2.588   2.952  10.251  0.3684  0.2850  0.4008
  150SAPE   H5X16649   2.487   2.948  10.205  0.6759 -1.8510 -0.2218
  150SAPE   H5Y16650   2.620   2.846  10.250 -0.7129 -0.0607 -1.1655
  150SAPE   C3616651   2.662   3.044  10.135 -0.3234 -0.7296  0.9160
  150SAPE   H6X16652   2.770   3.048  10.160  0.1492 -1.6707 -0.7804
  150SAPE   H6Y16653   2.616   3.145  10.129  0.6601 -0.3644 -1.4171
  150SAPE   C3716654   2.647   2.977  10.000 -0.4533  0.4178  0.7729
  150SAPE   H7X16655   2.545   2.933  10.006  0.2915 -1.2598  2.1227
  150SAPE   H7Y16656   2.729   2.905   9.978 -2.1722 -0.9988 -1.4290
  150SAPE   C3816657   2.651   3.074   9.882 -0.4441 -0.1162  0.3985
  150SAPE   H8X16658   2.757   3.103   9.867 -0.2754  1.0909  3.2999
  150SAPE   H8Y16659   2.605   3.172   9.910  0.3068  0.6736 -1.0551
  150SAPE   C3916660   2.585   3.019   9.750  0.2562  0.2784  0.1656
  150SAPE   H9X16661   2.493   2.961   9.776  0.7953 -0.0583  1.3907
  150SAPE   H9Y16662   2.661   2.948   9.712 -0.0922  0.7782 -1.5484
  150SAPE  C31016663   2.544   3.128   9.649 -0.3542  0.3859  0.0759
  150SAPE  H10X16664   2.638   3.178   9.617  0.6848 -0.9847  0.8512
  150SAPE  H10Y16665   2.493   3.204   9.711  1.4855  0.0728  2.1010
  150SAPE  C31116666   2.451   3.068   9.543  0.6414  0.3102  0.4975
  150SAPE  H11X16667   2.356   3.023   9.580  0.5651  0.0460 -0.0157
  150SAPE  H11Y16668   2.498   2.977   9.500 -1.0774 -1.1980  1.6465
  150SAPE  C31216669   2.425   3.171   9.434  0.2424 -0.1496 -0.2517
  150SAPE  H12X16670   2.519   3.209   9.390 -0.3434 -0.4182 -1.7985
  150SAPE  H12Y16671   2.371   3.255   9.484 -1.7208 -0.5776 -1.5667
  150SAPE  C31316672   2.327   3.115   9.326  0.4267  0.3389  0.5576
  150SAPE  H13X16673   2.236   3.087   9.383  1.1491 -3.9143 -0.0134
  150SAPE  H13Y16674   2.376   3.028   9.277 -0.8205 -0.3064  0.4222
  150SAPE  C31416675   2.298   3.224   9.221 -0.0491 -0.1592 -0.7472
  150SAPE  H14X16676   2.393   3.281   9.218  0.5538 -1.1878 -2.0460
  150SAPE  H14Y16677   2.225   3.296   9.265  1.0367  0.4767  0.0722
  150SAPE  C31516678   2.247   3.173   9.094 -0.2028  0.2646 -0.6511
  150SAPE  H15X16679   2.137   3.165   9.110  0.1191 -1.1190  1.2107
  150SAPE  H15Y16680   2.276   3.071   9.060  1.0367 -0.3939  2.1237
  150SAPE  C31616681   2.267   3.281   8.989  0.4916  0.4072  0.1641
  150SAPE  H16X16682   2.376   3.287   8.971  1.0993  0.0982  3.2999
  150SAPE  H16Y16683   2.243   3.387   9.015  0.4096  0.3865  0.1736
  150SAPE  C31716684   2.189   3.247   8.851  0.0383  0.2046 -0.1944
  150SAPE  H17X16685   2.084   3.252   8.885  0.1808  1.9966  0.0267
  150SAPE  H17Y16686   2.202   3.146   8.805 -2.1379  0.5212 -1.6673
  150SAPE  C31816687   2.205   3.350   8.740 -0.4758  0.7061  0.3507
  150SAPE  H18X16688   2.311   3.363   8.711 -0.2867  0.8464  1.0681
  150SAPE  H18Y16689   2.166   3.448   8.775  0.3442  1.1363  0.0634
  150SAPE  H18Z16690   2.152   3.322   8.647 -3.1571  1.9056  1.3948
  151SAPE     N16691   1.612   1.225  10.540 -0.7718  0.1887 -0.6333
  151SAPE   HN116692   1.607   1.124  10.565 -1.1002  0.1900 -0.6889
  151SAPE   HN216693   1.532   1.241  10.476 -0.1251  2.4645 -0.9503
  151SAPE   HN316694   1.702   1.245  10.493 -0.2104 -1.8401 -0.5286
  151SAPE   C1216695   1.590   1.290  10.671 -0.1697 -0.2839  1.1247
  151SAPE  H12A16696   1.677   1.358  10.676  0.5844 -1.1156 -0.2880
  151SAPE  H12B16697   1.594   1.227  10.762  3.4785 -0.9446  0.6435
  151SAPE   C1116698   1.465   1.380  10.676  0.2158  0.3340  0.5222
  151SAPE  H11A16699   1.471   1.469  10.610 -0.7788  1.3872  1.8091
  151SAPE  H11B16700   1.461   1.426  10.777 -0.5806  1.4949 -0.0122
  151SAPE     P16701   1.259   1.313  10.512 -0.4555  0.3351 -0.0055
  151SAPE   O1316702   1.142   1.224  10.517  0.2125 -0.7326 -0.0864
  151SAPE   O1416703   1.232   1.454  10.471 -0.0494  0.4483  1.3611
  151SAPE   O1216704   1.342   1.307  10.648 -0.5275  0.7437  0.4988
  151SAPE   O1116705   1.365   1.259  10.406  0.2462  0.5452 -0.0158
  151SAPE    C116706   1.336   1.152  10.312  0.2987  0.1584  0.6255
  151SAPE    HA16707   1.235   1.110  10.329 -0.5157  1.3739 -0.8834
  151SAPE    HB16708   1.327   1.185  10.206  3.5750 -0.5127  0.0525
  151SAPE    C216709   1.446   1.041  10.311  0.0271  0.0187  0.1680
  151SAPE    HS16710   1.464   1.003  10.414  0.1714 -2.7406 -0.7858
  151SAPE   O2116711   1.565   1.097  10.243 -0.1668  0.1312 -0.3601
  151SAPE   C2116712   1.681   1.038  10.265 -0.1182 -0.0388  0.1156
  151SAPE   O2216713   1.705   0.960  10.355 -0.3736 -0.3482 -0.2156
  151SAPE   C2216714   1.777   1.089  10.155  0.1185  0.1309  0.2115
  151SAPE   H2R16715   1.718   1.144  10.078  0.7809 -0.0250 -0.4202
  151SAPE   H2S16716   1.843   1.165  10.200  1.2490  0.5247 -1.9483
  151SAPE    C316717   1.405   0.911  10.229  0.2856  0.1966 -0.4615
  151SAPE    HX16718   1.330   0.857  10.291 -0.4425  2.0697  0.3758
  151SAPE    HY16719   1.495   0.846  10.222  0.0636 -0.3512  1.2067
  151SAPE   O3116720   1.340   0.935  10.110  0.1645  0.8708  0.4835
  151SAPE   C3116721   1.397   0.895   9.990 -0.7190 -0.6935  0.8634
  151SAPE   O3216722   1.508   0.851   9.976  0.1175  0.4351 -1.0478
  151SAPE   C3216723   1.301   0.925   9.875  0.4638 -0.0553 -0.5246
  151SAPE   H2X16724   1.327   1.029   9.844  3.2353 -0.6337 -0.4527
  151SAPE   H2Y16725   1.200   0.940   9.918  0.5301 -0.0132 -0.3815
  151SAPE   C2316726   1.842   0.967  10.088 -0.0208  0.5085 -0.4684
  151SAPE   H3R16727   1.785   0.873  10.107 -1.5025  1.8401  2.1559
  151SAPE   H3S16728   1.934   0.947  10.146  0.4389  0.7153 -1.1079
  151SAPE   C2416729   1.877   0.990   9.942  0.3786  0.2264 -0.2077
  151SAPE   H4R16730   1.933   0.901   9.906 -0.8075 -1.2710  1.4555
  151SAPE   H4S16731   1.943   1.079   9.935 -1.0965  1.4228  0.4154
  151SAPE   C2516732   1.762   1.021   9.855 -0.0409 -0.0681  0.0744
  151SAPE   H5R16733   1.686   1.087   9.898  0.6557 -0.5557  2.1453
  151SAPE   C2616734   1.741   0.976   9.729  0.2608 -0.6396 -0.5331
  151SAPE   H6R16735   1.647   1.006   9.679  1.7923  0.5262 -2.8649
  151SAPE   C2716736   1.832   0.881   9.647 -0.3983  0.0814 -0.2596
  151SAPE   H7R16737   1.773   0.816   9.580  0.6403 -0.3792 -0.7459
  151SAPE   H7S16738   1.883   0.809   9.715 -3.7704 -2.0590  0.1868
  151SAPE   C2816739   1.930   0.961   9.566  0.5134 -0.7411  0.2914
  151SAPE   H8R16740   1.992   1.034   9.621  0.5740 -1.2654  0.9318
  151SAPE   C2916741   1.937   0.949   9.430 -0.3460 -0.0378 -0.1827
  151SAPE   H9R16742   2.010   1.005   9.369 -2.6040 -1.8539 -5.0462
  151SAPE  C21016743   1.845   0.860   9.345 -1.1207  0.3684  0.0078
  151SAPE  H10R16744   1.745   0.909   9.345 -1.2846  0.1010 -1.7623
  151SAPE  H10S16745   1.828   0.763   9.397 -1.6338 -0.2729 -1.2966
  151SAPE  C21116746   1.904   0.833   9.203 -0.0692 -0.0862 -0.8605
  151SAPE  H11R16747   2.007   0.861   9.177  0.2604 -1.6019 -1.2907
  151SAPE  C21216748   1.830   0.785   9.102 -0.8616 -0.8130  0.6849
  151SAPE  H12R16749   1.874   0.787   9.002 -0.2835  1.3988  0.9328
  151SAPE  C21316750   1.686   0.748   9.092  0.1091  0.2720 -0.0266
  151SAPE  H13R16751   1.656   0.701   9.188 -2.3772  1.8138  0.0383
  151SAPE  H13S16752   1.665   0.666   9.021  0.2794 -1.3296  1.6894
  151SAPE  C21416753   1.605   0.875   9.081 -0.0001  0.3340  0.6232
  151SAPE  H14R16754   1.563   0.913   9.175 -0.4026 -1.0096  1.0161
  151SAPE  C21516755   1.571   0.949   8.975 -0.4142 -0.1462  0.4729
  151SAPE  H15R16756   1.507   1.036   8.998 -0.2603 -0.7171  3.4286
  151SAPE  C21616757   1.628   0.926   8.835 -0.0971 -0.0883  0.3853
  151SAPE  H16R16758   1.734   0.891   8.833 -0.3887 -1.2714  2.8014
  151SAPE  H16S16759   1.617   1.010   8.762  1.1466  0.0183  0.2947
  151SAPE  C21716760   1.543   0.811   8.769 -0.2785  0.3822 -0.0549
  151SAPE  H17R16761   1.435   0.821   8.793  0.1092  0.2959  1.8577
  151SAPE  H17S16762   1.571   0.720   8.827 -1.6364  0.7484  1.2416
  151SAPE  C21816763   1.581   0.781   8.623 -0.2945  0.4392  0.7408
  151SAPE  H18R16764   1.690   0.757   8.618  0.0030  1.8791 -2.5792
  151SAPE  H18S16765   1.556   0.864   8.553 -0.6712 -1.2542 -1.2380
  151SAPE  C21916766   1.509   0.659   8.567 -0.5390  0.2035 -0.4154
  151SAPE  H19R16767   1.527   0.568   8.629 -1.7020 -0.7176 -1.3880
  151SAPE  H19S16768   1.545   0.649   8.463 -0.1992  0.7253 -0.3528
  151SAPE  C22016769   1.359   0.683   8.538 -0.0387 -0.3259  0.4856
  151SAPE  H20R16770   1.295   0.703   8.626  0.6132 -1.7495  1.2987
  151SAPE  H20S16771   1.323   0.593   8.484 -0.2567 -0.1859  0.3907
  151SAPE  H20T16772   1.356   0.766   8.463  0.2496 -0.0411  0.7884
  151SAPE   C3316773   1.308   0.833   9.753 -0.0229 -0.4628  0.1086
  151SAPE   H3X16774   1.292   0.727   9.785  0.2450 -0.3248  0.7144
  151SAPE   H3Y16775   1.410   0.840   9.709 -0.3211 -0.3605 -0.5741
  151SAPE   C3416776   1.204   0.873   9.654  0.4553 -0.1704  0.1388
  151SAPE   H4X16777   1.204   0.982   9.631  1.2922  0.2186  1.7800
  151SAPE   H4Y16778   1.105   0.872   9.704  0.2488  0.1106 -0.2570
  151SAPE   C3516779   1.202   0.795   9.518 -0.1437  0.6015  1.0086
  151SAPE   H5X16780   1.097   0.799   9.480  0.3614 -0.7097 -0.6529
  151SAPE   H5Y16781   1.224   0.690   9.545 -0.3163 -0.6293 -2.9980
  151SAPE   C3616782   1.278   0.851   9.396  0.0709 -0.1683  0.7369
  151SAPE   H6X16783   1.384   0.877   9.419 -0.9330  2.2188  3.0954
  151SAPE   H6Y16784   1.235   0.948   9.363  1.6077 -0.0691 -1.1883
  151SAPE   C3716785   1.277   0.756   9.278  0.4720  0.5941  0.4317
  151SAPE   H7X16786   1.299   0.807   9.182  0.9549 -1.8786 -0.8426
  151SAPE   H7Y16787   1.169   0.729   9.268  0.6978 -0.3151  0.4199
  151SAPE   C3816788   1.344   0.617   9.288 -0.0562  0.2849 -0.2392
  151SAPE   H8X16789   1.322   0.578   9.390  0.9231  0.0674 -0.1023
  151SAPE   H8Y16790   1.454   0.623   9.292  0.0870 -1.9738  0.8547
  151SAPE   C3916791   1.300   0.504   9.194  0.4614  0.1638  0.3970
  151SAPE   H9X16792   1.192   0.496   9.218  0.2542  0.8247 -0.2697
  151SAPE   H9Y16793   1.342   0.407   9.229 -0.1323 -0.4557 -0.5437
  151SAPE  C31016794   1.319   0.529   9.041 -0.1268 -0.0278 -0.7497
  151SAPE  H10X16795   1.429   0.540   9.030 -0.1410  1.1186  0.1282
  151SAPE  H10Y16796   1.263   0.615   8.998  0.8059  1.0919  0.2273
  151SAPE  C31116797   1.284   0.411   8.945  0.3918  0.5968 -0.7388
  151SAPE  H11X16798   1.179   0.384   8.970  0.2322  0.2734 -1.7370
  151SAPE  H11Y16799   1.344   0.324   8.981  0.2637  0.7896 -0.0319
  151SAPE  C31216800   1.297   0.438   8.792 -0.5553  0.2896 -0.1788
  151SAPE  H12X16801   1.407   0.440   8.777 -0.1348 -2.0376  1.8490
  151SAPE  H12Y16802   1.265   0.540   8.763  0.2135  0.6581  0.2407
  151SAPE  C31316803   1.236   0.334   8.702 -0.3590 -0.0273  1.0035
  151SAPE  H13X16804   1.147   0.383   8.658  0.0127  0.9375  1.3019
  151SAPE  H13Y16805   1.208   0.241   8.757 -1.1982 -2.1771 -2.7255
  151SAPE  C31416806   1.337   0.281   8.596 -0.4561  0.3163  0.2559
  151SAPE  H14X16807   1.412   0.226   8.658 -0.8994 -0.9391 -0.2942
  151SAPE  H14Y16808   1.379   0.369   8.542 -0.9416  1.2892  1.4067
  151SAPE  C31516809   1.289   0.183   8.497  0.0120  0.1399  0.3143
  151SAPE  H15X16810   1.374   0.145   8.437 -0.3845 -0.0048 -0.1527
  151SAPE  H15Y16811   1.204   0.221   8.436  0.4955 -0.4298 -0.7394
  151SAPE  C31616812   1.219   0.051   8.550 -0.4078  0.3847 -0.6317
  151SAPE  H16X16813   1.187   0.003   8.455  1.2022  1.3763 -1.7295
  151SAPE  H16Y16814   1.125   0.070   8.606 -0.4762  0.7980 -0.8816
  151SAPE  C31716815   1.309  -0.043   8.633 -0.4920 -0.3052 -0.3803
  151SAPE  H17X16816   1.362   0.023   8.705 -0.9252 -1.0985  0.7113
  151SAPE  H17Y16817   1.382  -0.095   8.568  0.0653  0.3101 -0.2527
  151SAPE  C31816818   1.228  -0.147   8.707  0.2440 -0.5778  0.0301
  151SAPE  H18X16819   1.282  -0.216   8.775 -1.0267 -4.1211 -2.2400
  151SAPE  H18Y16820   1.160  -0.204   8.639 -0.9621  1.2519 -0.3813
  151SAPE  H18Z16821   1.153  -0.095   8.771  0.9578  0.9556 -0.3524
  152SAPE     N16822   2.027   6.477  11.149  0.4755  0.2995  0.1354
  152SAPE   HN116823   1.960   6.457  11.225  0.2974  1.4402  0.2939
  152SAPE   HN216824   2.124   6.495  11.182  0.5446  0.3730 -0.1078
  152SAPE   HN316825   1.991   6.562  11.101  0.6916 -1.0424 -2.6255
  152SAPE   C1216826   2.041   6.376  11.042  0.2432  0.9738  0.3721
  152SAPE  H12A16827   1.942   6.325  11.039  0.3791  0.7355 -1.9678
  152SAPE  H12B16828   2.130   6.317  11.070 -0.7612 -0.9965 -0.3905
  152SAPE   C1116829   2.058   6.436  10.906 -0.2124 -0.3305 -0.2027
  152SAPE  H11A16830   1.969   6.496  10.878 -0.2508 -0.0602  0.4821
  152SAPE  H11B16831   2.066   6.358  10.827  0.4756 -0.7107  0.2311
  152SAPE     P16832   2.275   6.532  10.783 -0.2587 -0.0081  0.3660
  152SAPE   O1316833   2.372   6.642  10.797  0.5468 -1.0795 -0.1065
  152SAPE   O1416834   2.326   6.396  10.775 -0.1678 -0.3060 -0.0784
  152SAPE   O1216835   2.165   6.539  10.900 -0.0725  0.7143  0.0241
  152SAPE   O1116836   2.190   6.561  10.657 -0.6550  0.4637  0.2156
  152SAPE    C116837   2.255   6.569  10.529 -0.1475 -0.4078 -0.1832
  152SAPE    HA16838   2.199   6.638  10.462  1.3102  2.0351  0.9936
  152SAPE    HB16839   2.360   6.603  10.536  1.0039 -3.8747  1.9135
  152SAPE    C216840   2.261   6.430  10.464  0.5517  0.4315 -0.0878
  152SAPE    HS16841   2.340   6.380  10.523  0.8756 -0.4203 -1.1970
  152SAPE   O2116842   2.313   6.452  10.326 -0.2426 -0.3628  0.0307
  152SAPE   C2116843   2.384   6.351  10.288  0.7908  0.6091 -0.2443
  152SAPE   O2216844   2.412   6.251  10.353 -0.1136 -0.0739 -0.7660
  152SAPE   C2216845   2.427   6.366  10.139 -0.2571 -0.1869 -0.1497
  152SAPE   H2R16846   2.345   6.420  10.086 -0.8414  0.0709  0.9820
  152SAPE   H2S16847   2.511   6.439  10.135  0.2032 -0.7316 -0.5440
  152SAPE    C316848   2.131   6.345  10.469  0.5179 -0.1260  0.3691
  152SAPE    HX16849   2.087   6.361  10.569  0.0558 -3.0093  0.7231
  152SAPE    HY16850   2.161   6.238  10.463  1.6340  0.1962 -0.0129
  152SAPE   O3116851   2.033   6.374  10.370  0.2075 -0.0460  0.3493
  152SAPE   C3116852   2.042   6.311  10.258  0.0860  0.1118 -0.0444
  152SAPE   O3216853   2.128   6.221  10.239  0.3304 -0.2939 -0.3013
  152SAPE   C3216854   1.937   6.360  10.153 -0.0032  0.2246  0.0893
  152SAPE   H2X16855   1.992   6.435  10.092  0.4219  1.3930  1.8361
  152SAPE   H2Y16856   1.851   6.405  10.207  0.0948 -0.5275  0.8996
  152SAPE   C2316857   2.484   6.245  10.063  0.3917  0.1100  0.0473
  152SAPE   H3R16858   2.559   6.193  10.126  0.6474 -0.9031 -1.0492
  152SAPE   H3S16859   2.534   6.275   9.968  0.6363 -2.7233 -0.8362
  152SAPE   C2416860   2.374   6.141  10.014  0.1409  1.2013  0.1787
  152SAPE   H4R16861   2.332   6.104  10.110 -1.3308 -0.6503 -1.1037
  152SAPE   H4S16862   2.413   6.043   9.979 -0.7738 -0.2543  2.9394
  152SAPE   C2516863   2.267   6.180   9.921 -0.5252  0.0566 -0.6385
  152SAPE   H5R16864   2.179   6.229   9.966 -0.8518  0.9592 -2.1597
  152SAPE   C2616865   2.269   6.163   9.785  0.3321  0.0618 -0.4457
  152SAPE   H6R16866   2.189   6.214   9.730  1.4865 -0.6172 -2.9308
  152SAPE   C2716867   2.372   6.112   9.688 -0.2577 -0.1734 -0.7753
  152SAPE   H7R16868   2.459   6.076   9.747  1.3671  3.2861 -0.8578
  152SAPE   H7S16869   2.405   6.197   9.625 -0.3021  0.2312 -0.2588
  152SAPE   C2816870   2.322   5.998   9.600  0.7453 -1.0952  0.3171
  152SAPE   H8R16871   2.339   5.899   9.644 -0.0593 -1.4268 -0.1089
  152SAPE   C2916872   2.276   6.004   9.469 -0.3635 -0.3618 -0.2699
  152SAPE   H9R16873   2.237   5.910   9.428  1.2371 -0.5832 -1.4062
  152SAPE  C21016874   2.278   6.129   9.381 -0.1195  0.7319  0.2577
  152SAPE  H10R16875   2.366   6.125   9.314  0.9269 -0.8274  1.6504
  152SAPE  H10S16876   2.295   6.220   9.443 -1.7561  0.6127  0.9218
  152SAPE  C21116877   2.151   6.125   9.301  0.4642 -0.0877 -0.3418
  152SAPE  H11R16878   2.061   6.160   9.354  0.4506 -2.0703  1.0693
  152SAPE  C21216879   2.144   6.076   9.176  0.0093  0.6677 -0.8023
  152SAPE  H12R16880   2.044   6.087   9.129 -0.7333  2.1159  1.0002
  152SAPE  C21316881   2.258   6.006   9.107  0.2651 -0.0506  0.2443
  152SAPE  H13R16882   2.346   5.986   9.172 -0.8164 -1.1331  1.4352
  152SAPE  H13S16883   2.285   6.072   9.023 -0.9946 -0.6677 -0.6905
  152SAPE  C21416884   2.216   5.876   9.056  0.1798  0.4392 -1.2623
  152SAPE  H14R16885   2.210   5.801   9.135  0.6750  0.2006 -1.4450
  152SAPE  C21516886   2.195   5.846   8.923  0.7232 -0.5932  0.5519
  152SAPE  H15R16887   2.169   5.742   8.898 -1.6399  0.1534 -0.3645
  152SAPE  C21616888   2.200   5.943   8.807  1.2103 -0.0807  0.7307
  152SAPE  H16R16889   2.307   5.950   8.777  0.7576 -1.3252 -1.4140
  152SAPE  H16S16890   2.173   6.040   8.852  1.5424  0.0240  0.7105
  152SAPE  C21716891   2.095   5.926   8.695 -0.0413 -0.0758  0.1316
  152SAPE  H17R16892   2.112   6.013   8.628  2.9024 -0.3536  0.3896
  152SAPE  H17S16893   1.995   5.930   8.743  0.7069 -0.0170  1.7327
  152SAPE  C21816894   2.110   5.801   8.611  0.5870  0.2412 -0.1321
  152SAPE  H18R16895   2.092   5.704   8.663  2.4299  1.0250  2.1431
  152SAPE  H18S16896   2.208   5.781   8.562 -0.5223 -3.3309 -1.2549
  152SAPE  C21916897   2.014   5.802   8.487 -0.4604  0.1878 -0.6418
  152SAPE  H19R16898   2.066   5.729   8.422  1.3121 -0.4070  1.3103
  152SAPE  H19S16899   2.013   5.900   8.436 -0.0393  0.3295 -0.3798
  152SAPE  C22016900   1.879   5.754   8.520  0.2445  0.6789  0.4066
  152SAPE  H20R16901   1.807   5.836   8.541  0.2292  0.7894 -0.0541
  152SAPE  H20S16902   1.883   5.683   8.605 -2.6432 -1.0619 -0.7538
  152SAPE  H20T16903   1.833   5.707   8.430  1.0070  2.5374 -1.0210
  152SAPE   C3316904   1.878   6.248  10.062 -0.2762 -0.0338 -0.1772
  152SAPE   H3X16905   1.831   6.160  10.110 -0.7474 -0.8532 -2.0367
  152SAPE   H3Y16906   1.964   6.220   9.997 -0.1819  0.2618 -0.1824
  152SAPE   C3416907   1.780   6.310   9.962 -0.4646  0.1334 -0.0831
  152SAPE   H4X16908   1.817   6.394   9.899  1.0430  1.2388  2.1419
  152SAPE   H4Y16909   1.697   6.349  10.026 -1.1804  1.4886 -1.7636
  152SAPE   C3516910   1.710   6.203   9.869 -0.1250 -0.1772  0.3131
  152SAPE   H5X16911   1.625   6.260   9.826 -0.1528 -0.2953  0.2093
  152SAPE   H5Y16912   1.667   6.121   9.930 -0.3688 -0.7078 -0.5562
  152SAPE   C3616913   1.808   6.157   9.752 -0.6869 -0.4958 -0.4461
  152SAPE   H6X16914   1.882   6.092   9.804 -0.5701  1.0715  1.4772
  152SAPE   H6Y16915   1.857   6.239   9.697  1.3910 -2.7791 -2.2418
  152SAPE   C3716916   1.748   6.069   9.646  0.2743  0.6108  0.1080
  152SAPE   H7X16917   1.666   6.115   9.587 -1.1734 -1.4749  0.3938
  152SAPE   H7Y16918   1.707   5.975   9.690  0.0666  0.9200  0.5811
  152SAPE   C3816919   1.852   6.042   9.543  0.0083  0.1066  0.5843
  152SAPE   H8X16920   1.952   6.006   9.577  0.4388  0.7954  0.0771
  152SAPE   H8Y16921   1.869   6.136   9.486  2.0517  0.9378  2.4157
  152SAPE   C3916922   1.806   5.920   9.468 -0.0631 -0.6418 -0.8505
  152SAPE   H9X16923   1.718   5.944   9.405 -0.9080 -1.2007  0.0920
  152SAPE   H9Y16924   1.783   5.832   9.533 -0.8355  0.2117  0.0589
  152SAPE  C31016925   1.913   5.863   9.369  0.5630  0.2321  0.8167
  152SAPE  H10X16926   2.008   5.844   9.423  0.5716  0.0255  0.7308
  152SAPE  H10Y16927   1.929   5.944   9.296 -0.2023 -0.0431  0.3313
  152SAPE  C31116928   1.874   5.728   9.311  0.2495  0.0460 -0.6042
  152SAPE  H11X16929   1.782   5.757   9.256 -0.7356  0.0080  0.9644
  152SAPE  H11Y16930   1.841   5.664   9.395 -1.9106  1.8566  0.0172
  152SAPE  C31216931   1.977   5.660   9.219 -1.0438  0.1501  0.1122
  152SAPE  H12X16932   2.083   5.648   9.249 -1.2318  0.8394  1.0811
  152SAPE  H12Y16933   1.985   5.722   9.127  1.1233  0.4218  0.4497
  152SAPE  C31316934   1.930   5.526   9.163 -0.3664 -0.0094 -0.2306
  152SAPE  H13X16935   1.826   5.534   9.125 -0.2802 -2.2861 -1.1059
  152SAPE  H13Y16936   1.938   5.463   9.254 -0.4749 -2.3285 -1.7285
  152SAPE  C31416937   2.020   5.485   9.049  0.0022  0.1605  0.0532
  152SAPE  H14X16938   2.116   5.443   9.085  0.3385 -0.0187 -0.9956
  152SAPE  H14Y16939   2.050   5.563   8.975  2.6393 -1.5407 -0.8116
  152SAPE  C31516940   1.967   5.359   8.967 -0.1049 -0.4823  0.1098
  152SAPE  H15X16941   1.868   5.398   8.936  2.0012  4.6487 -1.1567
  152SAPE  H15Y16942   1.959   5.277   9.041  0.3965  0.2409  0.9930
  152SAPE  C31616943   2.045   5.327   8.838 -0.4818  0.3725 -0.0350
  152SAPE  H16X16944   2.153   5.324   8.862 -0.5100 -1.3236  0.0064
  152SAPE  H16Y16945   2.030   5.410   8.766  0.0089 -1.5526 -2.4751
  152SAPE  C31716946   2.006   5.188   8.787 -0.3297 -0.3347  0.3381
  152SAPE  H17X16947   1.895   5.183   8.787 -0.4659  1.2956 -2.1438
  152SAPE  H17Y16948   2.030   5.103   8.855  1.1166  0.8602  1.4001
  152SAPE  C31816949   2.066   5.167   8.649  0.6231 -0.4158 -0.6695
  152SAPE  H18X16950   2.173   5.192   8.635  0.7762  0.2117  1.3294
  152SAPE  H18Y16951   2.006   5.220   8.572  1.1477  0.9645 -0.1695
  152SAPE  H18Z16952   2.061   5.058   8.626  1.2791 -0.9647  1.5470
  153SAPE     N16953   2.456   1.260  10.855 -0.2645 -0.0251 -0.2453
  153SAPE   HN116954   2.477   1.331  10.928  2.2818 -0.1348 -0.8016
  153SAPE   HN216955   2.507   1.170  10.864 -0.7080 -0.4772 -1.9422
  153SAPE   HN316956   2.483   1.301  10.764  0.3054  0.4652  0.1346
  153SAPE   C1216957   2.305   1.235  10.854 -0.1322 -0.2762 -0.2616
  153SAPE  H12A16958   2.260   1.322  10.802  1.7054 -0.2451 -1.9204
  153SAPE  H12B16959   2.275   1.225  10.961  3.4163 -1.5005  0.7637
  153SAPE   C1116960   2.265   1.127  10.762 -0.5278  0.0826  0.1262
  153SAPE  H11A16961   2.301   1.150  10.659  1.1995  2.3273  1.1350
  153SAPE  H11B16962   2.156   1.117  10.775 -0.2566 -1.6670  1.4836
  153SAPE     P16963   2.283   0.863  10.767  0.0929  0.0966 -0.5598
  153SAPE   O1316964   2.372   0.766  10.832 -0.2342  0.1826  0.1079
  153SAPE   O1416965   2.138   0.853  10.778  0.6118 -0.2193 -0.3154
  153SAPE   O1216966   2.323   1.006  10.821  0.4536 -0.3173  0.4199
  153SAPE   O1116967   2.318   0.874  10.606 -0.0953  0.3568  0.6698
  153SAPE    C116968   2.453   0.887  10.574 -0.0769 -0.0113  0.6409
  153SAPE    HA16969   2.505   0.943  10.655 -0.5339 -0.3473  1.1748
  153SAPE    HB16970   2.496   0.785  10.565  1.8038  0.6629  1.4607
  153SAPE    C216971   2.465   0.960  10.439  0.4723 -0.5819  0.0092
  153SAPE    HS16972   2.427   1.062  10.457  2.5710  0.0567  1.2871
  153SAPE   O2116973   2.400   0.884  10.329 -0.1221  0.0230  0.2885
  153SAPE   C2116974   2.363   0.951  10.217  0.3715 -0.1125  0.1179
  153SAPE   O2216975   2.363   1.069  10.201 -0.3053 -0.7785 -0.4990
  153SAPE   C2216976   2.278   0.860  10.134 -1.1611  0.5463 -0.2511
  153SAPE   H2R16977   2.335   0.765  10.129 -0.3497  1.0628 -1.0679
  153SAPE   H2S16978   2.184   0.823  10.180 -0.6079 -2.0977 -1.0277
  153SAPE    C316979   2.615   0.980  10.411  0.0556 -0.4628  0.0643
  153SAPE    HX16980   2.658   0.878  10.417 -1.8125 -1.2874  0.2177
  153SAPE    HY16981   2.662   1.034  10.496  1.5454  1.8506 -2.0517
  153SAPE   O3116982   2.639   1.040  10.280  0.2812 -0.2676  0.4209
  153SAPE   C3116983   2.630   1.176  10.291 -0.4532 -0.1514 -0.7515
  153SAPE   O3216984   2.602   1.234  10.395 -0.3386 -0.4732 -0.5740
  153SAPE   C3216985   2.641   1.247  10.156  0.3103  0.0924 -0.7789
  153SAPE   H2X16986   2.716   1.329  10.163  1.7128 -1.2460  0.7887
  153SAPE   H2Y16987   2.541   1.295  10.144  0.1180  0.3946  1.4969
  153SAPE   C2316988   2.251   0.918   9.997  0.7690  0.3882 -0.5476
  153SAPE   H3R16989   2.327   0.988   9.957 -0.9382  3.8809  1.8495
  153SAPE   H3S16990   2.158   0.978  10.005  0.0136 -0.5132 -2.1207
  153SAPE   C2416991   2.225   0.806   9.893 -0.2875 -0.2496 -0.1783
  153SAPE   H4R16992   2.156   0.860   9.825  0.7781  0.6935 -0.5459
  153SAPE   H4S16993   2.159   0.725   9.931 -1.7715  0.6575 -0.7179
  153SAPE   C2516994   2.352   0.760   9.819  0.5934 -0.6251  0.9455
  153SAPE   H5R16995   2.433   0.709   9.874  1.2093 -0.2873  0.3687
  153SAPE   C2616996   2.375   0.779   9.691 -0.2111  0.2619  0.1345
  153SAPE   H6R16997   2.474   0.746   9.655 -0.5659  0.1440 -0.7603
  153SAPE   C2716998   2.295   0.855   9.588 -0.2485  0.0262 -0.5402
  153SAPE   H7R16999   2.365   0.926   9.539 -1.0337 -0.0318 -1.7830
  153SAPE   H7S17000   2.216   0.915   9.638  1.4910  0.5131  1.8468
  153SAPE   C2817001   2.226   0.757   9.494 -0.1193  0.2060 -0.3642
  153SAPE   H8R17002   2.123   0.732   9.522  0.2514 -2.1145 -0.8593
  153SAPE   C2917003   2.257   0.710   9.367 -0.7515 -0.8416 -0.3958
  153SAPE   H9R17004   2.178   0.653   9.317 -0.6293 -1.6426  0.3090
  153SAPE  C21017005   2.374   0.738   9.278 -0.4556 -0.4119  0.0923
  153SAPE  H10R17006   2.428   0.643   9.258 -2.3470 -1.5123  0.0112
  153SAPE  H10S17007   2.440   0.799   9.344 -2.0306  1.5452 -0.0379
  153SAPE  C21117008   2.349   0.807   9.144  0.2806 -0.0674  0.9352
  153SAPE  H11R17009   2.334   0.916   9.150 -1.1168 -0.2722  1.6643
  153SAPE  C21217010   2.343   0.755   9.020  0.1185  0.0107  0.5184
  153SAPE  H12R17011   2.319   0.814   8.930 -0.8420 -1.5462 -0.2967
  153SAPE  C21317012   2.357   0.606   8.996  0.5706 -0.1405 -0.5428
  153SAPE  H13R17013   2.277   0.570   8.928  0.9097 -2.4497  0.1783
  153SAPE  H13S17014   2.328   0.551   9.088  0.7373 -2.0215 -1.5713
  153SAPE  C21417015   2.495   0.578   8.949 -0.1201 -0.8959  0.1528
  153SAPE  H14R17016   2.573   0.642   8.993 -0.5241  0.3573 -0.8809
  153SAPE  C21517017   2.529   0.494   8.849  0.3587  1.1637 -0.6810
  153SAPE  H15R17018   2.635   0.479   8.821  0.3130 -2.1889  0.4435
  153SAPE  C21617019   2.431   0.413   8.768 -0.9470 -0.8383  0.2086
  153SAPE  H16R17020   2.333   0.412   8.820 -0.6137 -0.1939  0.8811
  153SAPE  H16S17021   2.463   0.309   8.746  0.7504 -0.2832 -0.1525
  153SAPE  C21717022   2.409   0.479   8.626 -0.2694 -0.6977 -0.4182
  153SAPE  H17R17023   2.379   0.586   8.629  0.5403 -0.4760 -0.0388
  153SAPE  H17S17024   2.322   0.424   8.584 -1.4431  0.0792  0.8971
  153SAPE  C21817025   2.539   0.469   8.541  0.1637 -0.2286 -0.0202
  153SAPE  H18R17026   2.574   0.364   8.537 -0.5702 -0.5593  1.4066
  153SAPE  H18S17027   2.626   0.524   8.582 -0.3861  1.6895 -1.3012
  153SAPE  C21917028   2.498   0.522   8.397 -0.3303 -0.1927  0.1895
  153SAPE  H19R17029   2.470   0.629   8.407 -4.2532 -1.1952  1.9357
  153SAPE  H19S17030   2.408   0.461   8.373  0.9429 -1.5260 -1.3873
  153SAPE  C22017031   2.604   0.480   8.285  0.1340  1.1072 -0.7784
  153SAPE  H20R17032   2.701   0.521   8.320 -0.1525 -1.8378  4.4283
  153SAPE  H20S17033   2.573   0.518   8.185 -0.7103  1.9146 -0.2236
  153SAPE  H20T17034   2.601   0.369   8.276 -4.4816  1.0613 -1.0328
  153SAPE   C3317035   2.677   1.159  10.042  0.4788  0.4450 -0.2055
  153SAPE   H3X17036   2.636   1.056  10.044  0.8034  0.2968 -1.1835
  153SAPE   H3Y17037   2.787   1.156  10.028  0.4306  0.3522 -0.5692
  153SAPE   C3417038   2.597   1.209   9.914  0.3717  0.2876 -0.0275
  153SAPE   H4X17039   2.643   1.303   9.879  0.9079  0.9579  2.2926
  153SAPE   H4Y17040   2.493   1.231   9.946  0.4729  2.1193 -0.8738
  153SAPE   C3517041   2.588   1.110   9.798  0.3126 -0.6142  0.4665
  153SAPE   H5X17042   2.525   1.162   9.723  1.3772  0.1480  0.0670
  153SAPE   H5Y17043   2.536   1.019   9.832 -1.4043  1.0438  2.5355
  153SAPE   C3617044   2.725   1.074   9.739  0.2556 -0.3463  0.5976
  153SAPE   H6X17045   2.705   0.976   9.689 -2.8738  0.9551 -0.9590
  153SAPE   H6Y17046   2.795   1.062   9.825 -0.1147  1.8009  1.2506
  153SAPE   C3717047   2.788   1.180   9.644 -0.6338 -0.0014 -0.4275
  153SAPE   H7X17048   2.897   1.165   9.631 -0.1255  2.6470  0.1489
  153SAPE   H7Y17049   2.798   1.282   9.689 -1.6285 -0.8223  1.8120
  153SAPE   C3817050   2.730   1.190   9.503 -0.3081 -0.2085 -0.0687
  153SAPE   H8X17051   2.643   1.258   9.506 -0.3751 -0.2274 -1.0986
  153SAPE   H8Y17052   2.688   1.089   9.482  0.4823 -0.4543 -0.4925
  153SAPE   C3917053   2.814   1.218   9.377  0.7459  0.3142 -1.1406
  153SAPE   H9X17054   2.890   1.138   9.361 -2.1151 -2.6925 -0.8963
  153SAPE   H9Y17055   2.860   1.318   9.376 -0.4450  0.8975 -0.2857
  153SAPE  C31017056   2.715   1.223   9.266 -0.1509 -0.0003  0.5468
  153SAPE  H10X17057   2.640   1.300   9.293  0.0391  0.6610 -0.7526
  153SAPE  H10Y17058   2.663   1.124   9.267 -1.7837  0.7903 -1.0146
  153SAPE  C31117059   2.774   1.250   9.135 -0.3994 -0.6647  0.2772
  153SAPE  H11X17060   2.874   1.214   9.104 -0.5191  1.1994 -2.7772
  153SAPE  H11Y17061   2.793   1.358   9.150  0.2034 -1.1019  3.0682
  153SAPE  C31217062   2.667   1.231   9.027 -0.1652 -0.1014  0.1330
  153SAPE  H12X17063   2.570   1.255   9.074 -0.6502  0.4953 -1.1323
  153SAPE  H12Y17064   2.680   1.128   8.988  0.2293  0.2318 -0.6699
  153SAPE  C31317065   2.692   1.320   8.905  0.0258 -0.3637 -0.1442
  153SAPE  H13X17066   2.673   1.426   8.931 -0.3136  0.2018 -2.4494
  153SAPE  H13Y17067   2.626   1.300   8.817 -0.5291 -1.0148  0.4137
  153SAPE  C31417068   2.835   1.338   8.845 -0.3939  0.1289 -0.1185
  153SAPE  H14X17069   2.905   1.386   8.917 -0.2486  0.8315 -0.7198
  153SAPE  H14Y17070   2.822   1.410   8.761 -1.2518  0.9598  0.6844
  153SAPE  C31517071   2.894   1.211   8.788  0.1621  0.1143 -0.5129
  153SAPE  H15X17072   2.828   1.171   8.708  0.4293 -1.0775 -0.1518
  153SAPE  H15Y17073   2.904   1.131   8.864  1.7232  0.6559 -0.1196
  153SAPE  C31617074   3.038   1.236   8.736 -0.7716 -0.6928 -0.0387
  153SAPE  H16X17075   3.100   1.266   8.823  1.6385  0.3531 -2.0203
  153SAPE  H16Y17076   3.048   1.322   8.667  1.6368  0.4938  1.6377
  153SAPE  C31717077   3.112   1.112   8.679  0.0472 -0.8857  0.5019
  153SAPE  H17X17078   3.052   1.074   8.594 -0.9507 -1.6640  1.5123
  153SAPE  H17Y17079   3.118   1.030   8.754 -1.3691 -2.3154 -0.8796
  153SAPE  C31817080   3.260   1.138   8.648  0.2962 -0.1802 -0.0884
  153SAPE  H18X17081   3.306   1.056   8.588 -0.3897 -0.9507  0.4098
  153SAPE  H18Y17082   3.324   1.145   8.739 -0.3301 -0.2533  0.3645
  153SAPE  H18Z17083   3.271   1.230   8.588  0.2303  0.5110  0.9451
  154SAPE     N17084   3.855   6.313  10.849  0.4305 -0.5899 -0.3748
  154SAPE   HN117085   3.958   6.307  10.857  0.3268 -1.8753  0.3170
  154SAPE   HN217086   3.813   6.248  10.779 -1.3770  1.5783 -1.4637
  154SAPE   HN317087   3.826   6.408  10.818  1.2629  0.2272  1.2227
  154SAPE   C1217088   3.794   6.301  10.986  0.7376  0.4835 -0.2154
  154SAPE  H12A17089   3.854   6.355  11.063 -0.8016  2.3482 -0.2547
  154SAPE  H12B17090   3.800   6.193  11.014 -2.1449  0.2219 -0.3610
  154SAPE   C1117091   3.654   6.364  10.986 -0.4881  0.1743  0.0337
  154SAPE  H11A17092   3.621   6.350  11.091  0.8784  0.5228  0.5325
  154SAPE  H11B17093   3.594   6.314  10.907  1.6692 -0.4744 -1.2925
  154SAPE     P17094   3.529   6.592  10.964 -0.3647  0.0477 -0.0240
  154SAPE   O1317095   3.415   6.506  10.938 -0.2787  0.1583 -0.5950
  154SAPE   O1417096   3.523   6.675  11.083 -0.1032  0.1986 -0.1662
  154SAPE   O1217097   3.662   6.509  10.961  0.4105 -0.1344 -0.4084
  154SAPE   O1117098   3.557   6.696  10.840  0.1874 -0.4891 -0.3413
  154SAPE    C117099   3.618   6.643  10.722  0.3862 -0.5759  0.4202
  154SAPE    HA17100   3.686   6.713  10.669 -0.1797 -0.6611 -0.4493
  154SAPE    HB17101   3.668   6.545  10.733 -0.2473 -1.1012 -1.1120
  154SAPE    C217102   3.504   6.625  10.614 -0.1324  0.7022  0.0559
  154SAPE    HS17103   3.416   6.571  10.654  0.6676 -2.4985 -2.0852
  154SAPE   O2117104   3.566   6.549  10.498  0.4975 -0.2404 -0.6344
  154SAPE   C2117105   3.588   6.421  10.529 -0.4368 -0.0206  0.7284
  154SAPE   O2217106   3.529   6.364  10.618  0.4077 -0.2203  0.1261
  154SAPE   C2217107   3.703   6.353  10.441 -0.4551 -0.4840 -0.6053
  154SAPE   H2R17108   3.785   6.343  10.515 -0.5309 -1.4460 -0.6400
  154SAPE   H2S17109   3.666   6.257  10.401 -0.2462 -0.0204 -1.9559
  154SAPE    C317110   3.444   6.757  10.565  0.2206  0.4196  0.2375
  154SAPE    HX17111   3.527   6.812  10.516  2.0351  1.3471  3.9586
  154SAPE    HY17112   3.412   6.815  10.654  1.1122 -0.1583  0.9626
  154SAPE   O3117113   3.341   6.729  10.473  0.0593  0.4991 -0.2066
  154SAPE   C3117114   3.261   6.831  10.450 -0.4094  0.6872  0.1119
  154SAPE   O3217115   3.273   6.949  10.497  0.3044  0.7231  0.0017
  154SAPE   C3217116   3.133   6.789  10.364  0.8357 -0.4604  0.1509
  154SAPE   H2X17117   3.046   6.781  10.433  1.5330 -0.8763  1.0040
  154SAPE   H2Y17118   3.139   6.693  10.310 -1.4957 -0.5767  0.0043
  154SAPE   C2317119   3.746   6.442  10.318 -0.4633  0.4709 -0.2356
  154SAPE   H3R17120   3.785   6.536  10.364  0.8808  1.1133 -2.5587
  154SAPE   H3S17121   3.656   6.468  10.257 -0.7945 -0.2107 -0.0420
  154SAPE   C2417122   3.855   6.384  10.225 -0.0076  0.2826 -0.1773
  154SAPE   H4R17123   3.946   6.358  10.283 -0.9121 -2.9868 -0.0280
  154SAPE   H4S17124   3.889   6.464  10.155  1.1072 -0.7248 -0.8502
  154SAPE   C2517125   3.814   6.250  10.158  0.6942 -0.7891 -0.1982
  154SAPE   H5R17126   3.756   6.178  10.218 -1.7503  1.5725  0.4852
  154SAPE   C2617127   3.849   6.209  10.037  1.1930 -0.4582 -0.1555
  154SAPE   H6R17128   3.808   6.111  10.009  3.2169 -0.4096 -4.0242
  154SAPE   C2717129   3.921   6.276   9.921 -0.4627  0.3740  0.3183
  154SAPE   H7R17130   3.953   6.208   9.838  2.7953  0.6491  1.1950
  154SAPE   H7S17131   4.019   6.309   9.963 -0.8392  1.5265  0.3107
  154SAPE   C2817132   3.842   6.389   9.865  0.3647 -0.1836 -0.1537
  154SAPE   H8R17133   3.740   6.407   9.901  0.0537  2.0691 -1.8979
  154SAPE   C2917134   3.887   6.466   9.772  0.2430  0.0461  0.7251
  154SAPE   H9R17135   3.815   6.533   9.721  0.0399 -0.4778  0.3200
  154SAPE  C21017136   4.025   6.464   9.708  0.4231 -0.6088  0.0071
  154SAPE  H10R17137   4.103   6.419   9.774  0.3510 -0.0103  0.5142
  154SAPE  H10S17138   4.065   6.565   9.685  1.4202 -0.9384  0.2045
  154SAPE  C21117139   4.042   6.383   9.578 -0.0583 -0.5350  0.7621
  154SAPE  H11R17140   3.979   6.292   9.584 -0.2240 -0.4372  0.4900
  154SAPE  C21217141   4.107   6.421   9.463  0.1311 -0.3143 -0.2825
  154SAPE  H12R17142   4.118   6.358   9.373  2.0775  2.3698 -2.0639
  154SAPE  C21317143   4.175   6.551   9.422 -0.4484 -0.2079  0.1207
  154SAPE  H13R17144   4.196   6.609   9.514 -1.1620  3.1430 -1.6734
  154SAPE  H13S17145   4.089   6.601   9.372 -1.7389 -1.1907  1.2830
  154SAPE  C21417146   4.303   6.548   9.340 -0.9208 -0.1639 -1.0004
  154SAPE  H14R17147   4.386   6.505   9.398 -1.6110 -0.8160 -0.4563
  154SAPE  C21517148   4.319   6.584   9.210 -0.1210  0.3536  0.1955
  154SAPE  H15R17149   4.417   6.588   9.162  0.2162 -0.7355  0.7738
  154SAPE  C21617150   4.212   6.628   9.110  0.2516 -0.8958  0.5578
  154SAPE  H16R17151   4.212   6.739   9.100 -1.9945 -0.9882 -1.4813
  154SAPE  H16S17152   4.112   6.593   9.142  0.0861 -0.6374  0.3217
  154SAPE  C21717153   4.230   6.582   8.964  0.3160  0.2421  0.4292
  154SAPE  H17R17154   4.210   6.473   8.955 -4.3001  0.7068  2.1173
  154SAPE  H17S17155   4.334   6.597   8.929  0.8709 -0.0543  1.8890
  154SAPE  C21817156   4.129   6.650   8.874 -0.4102 -0.2326 -0.3577
  154SAPE  H18R17157   4.175   6.751   8.870  4.9773 -2.3487 -1.9524
  154SAPE  H18S17158   4.022   6.656   8.902 -0.9590  3.3854 -2.5546
  154SAPE  C21917159   4.124   6.581   8.740  0.3463  0.8949  0.2307
  154SAPE  H19R17160   4.087   6.476   8.746  0.6477  0.8465  1.9599
  154SAPE  H19S17161   4.231   6.564   8.718 -0.1181 -1.7214 -0.3320
  154SAPE  C22017162   4.045   6.651   8.624  0.0462  0.1746 -0.3587
  154SAPE  H20R17163   4.042   6.587   8.534  3.0504  0.8401 -1.0365
  154SAPE  H20S17164   4.101   6.745   8.607  3.2627 -1.1106  2.0367
  154SAPE  H20T17165   3.938   6.675   8.644  0.7083  3.1503  0.0288
  154SAPE   C3317166   3.109   6.899  10.259 -0.0567 -0.4163  0.2211
  154SAPE   H3X17167   3.091   6.997  10.308 -0.2278  0.0300 -0.7116
  154SAPE   H3Y17168   3.017   6.865  10.207  1.3280  0.4027 -3.0423
  154SAPE   C3417169   3.225   6.913  10.155  0.0162 -0.1024  0.9819
  154SAPE   H4X17170   3.246   6.814  10.110  1.9256  0.4230  0.6136
  154SAPE   H4Y17171   3.320   6.936  10.208 -0.1117 -0.9732  1.6050
  154SAPE   C3517172   3.202   7.016  10.045  0.2781  0.0591 -0.9548
  154SAPE   H5X17173   3.293   7.017   9.982  1.5517 -1.3264  0.7415
  154SAPE   H5Y17174   3.201   7.111  10.103  2.0150 -0.4390 -0.0375
  154SAPE   C3617175   3.084   6.997   9.948  0.3366 -0.1299 -0.3502
  154SAPE   H6X17176   2.988   7.029   9.993 -0.0514 -0.7999 -0.6735
  154SAPE   H6Y17177   3.067   6.893   9.912 -1.9125  0.2575 -0.5204
  154SAPE   C3717178   3.110   7.089   9.824  0.2974 -0.7098  0.0509
  154SAPE   H7X17179   3.210   7.070   9.779  0.8965  2.6164 -0.2209
  154SAPE   H7Y17180   3.124   7.191   9.864  0.0051 -0.7596  0.2846
  154SAPE   C3817181   2.995   7.100   9.724 -0.7401  0.2439 -0.1796
  154SAPE   H8X17182   2.919   7.164   9.774  0.8328  0.1531  2.4919
  154SAPE   H8Y17183   2.970   6.992   9.714  0.7753 -0.2817  1.2769
  154SAPE   C3917184   3.041   7.160   9.590 -0.1017 -0.8012 -0.1508
  154SAPE   H9X17185   3.141   7.122   9.557  0.3384  0.5032 -0.3847
  154SAPE   H9Y17186   3.059   7.267   9.613  0.7768 -0.2105 -3.1007
  154SAPE  C31017187   2.939   7.142   9.482  0.7820 -0.3481 -0.4783
  154SAPE  H10X17188   2.863   7.223   9.484 -0.4141 -1.4807  0.4154
  154SAPE  H10Y17189   2.886   7.046   9.494  0.0034  0.0735 -0.4639
  154SAPE  C31117190   3.003   7.136   9.346  0.3057  0.3969 -0.0217
  154SAPE  H11X17191   3.083   7.059   9.346  0.2070  0.2490 -2.0240
  154SAPE  H11Y17192   3.037   7.235   9.308  1.0101  0.2633  0.2423
  154SAPE  C31217193   2.892   7.091   9.234  0.1578 -0.0089  0.1781
  154SAPE  H12X17194   2.805   7.155   9.260 -0.8607 -0.5078 -1.8305
  154SAPE  H12Y17195   2.862   6.985   9.245  0.2488 -0.0621 -0.0903
  154SAPE  C31317196   2.925   7.108   9.080 -0.3250 -0.3666 -0.5045
  154SAPE  H13X17197   2.948   7.217   9.077  1.6915 -0.7117  0.5452
  154SAPE  H13Y17198   2.833   7.089   9.021 -1.5216  0.8393  0.9155
  154SAPE  C31417199   3.044   7.025   9.028 -0.2085 -0.6435 -0.5113
  154SAPE  H14X17200   3.000   6.923   9.033  0.6270 -0.9541  1.2012
  154SAPE  H14Y17201   3.124   7.028   9.104 -2.6027  0.1822  2.1197
  154SAPE  C31517202   3.103   7.068   8.898 -0.0620  0.1672 -0.2627
  154SAPE  H15X17203   3.019   7.085   8.828  1.9045  0.1408 -2.7809
  154SAPE  H15Y17204   3.159   6.982   8.855 -0.8686 -0.0593 -0.8744
  154SAPE  C31617205   3.190   7.195   8.891 -0.4369  0.4828  0.2914
  154SAPE  H16X17206   3.282   7.184   8.953  0.9184  2.4338 -1.2757
  154SAPE  H16Y17207   3.132   7.284   8.924 -3.1116 -0.5407 -1.3223
  154SAPE  C31717208   3.232   7.220   8.746  0.4088  0.1593 -0.6710
  154SAPE  H17X17209   3.293   7.313   8.745  1.6469 -0.6275  0.0315
  154SAPE  H17Y17210   3.147   7.237   8.676 -1.0931  0.2667  1.0751
  154SAPE  C31817211   3.322   7.110   8.698 -0.5128 -0.0535 -0.7087
  154SAPE  H18X17212   3.366   7.136   8.600 -1.4307  2.0966 -0.6192
  154SAPE  H18Y17213   3.279   7.010   8.676 -0.6578  0.1965 -1.6048
  154SAPE  H18Z17214   3.413   7.101   8.761 -0.6846 -0.8074 -0.5577
  155SAPE     N17215   3.802   2.559  10.828 -0.4504  0.3675  0.7696
  155SAPE   HN117216   3.864   2.486  10.788 -0.4066  0.6251  0.3630
  155SAPE   HN217217   3.853   2.650  10.827  1.0607 -0.4482  0.1078
  155SAPE   HN317218   3.796   2.530  10.928 -0.4269  0.5011  0.8098
  155SAPE   C1217219   3.681   2.554  10.740 -0.7088 -0.2949 -0.4751
  155SAPE  H12A17220   3.704   2.572  10.632 -1.3741  1.1551 -0.4063
  155SAPE  H12B17221   3.601   2.624  10.771 -0.4108 -0.3153  0.3451
  155SAPE   C1117222   3.616   2.421  10.739  0.6848 -0.0130  0.7802
  155SAPE  H11A17223   3.664   2.333  10.692 -0.9257 -1.2878  1.4433
  155SAPE  H11B17224   3.526   2.427  10.674  1.1739  1.3095  0.1656
  155SAPE     P17225   3.549   2.244  10.933 -0.0272  0.1837  0.3751
  155SAPE   O1317226   3.663   2.153  10.909 -1.0109 -0.4093 -0.2400
  155SAPE   O1417227   3.503   2.258  11.070 -0.4080  0.2273  0.3932
  155SAPE   O1217228   3.588   2.385  10.872  0.3389 -0.5516 -0.1318
  155SAPE   O1117229   3.424   2.200  10.851 -0.7200  0.5489  0.8224
  155SAPE    C117230   3.388   2.062  10.837 -0.1595  0.0311 -0.5794
  155SAPE    HA17231   3.457   1.997  10.894  1.2506  1.9953  0.0704
  155SAPE    HB17232   3.283   2.045  10.870 -0.1445  3.1163  1.4516
  155SAPE    C217233   3.393   2.026  10.690  0.2884 -0.7840 -0.2625
  155SAPE    HS17234   3.352   1.924  10.669  1.4876 -1.7198  1.6571
  155SAPE   O2117235   3.521   2.030  10.634 -0.1972 -0.2963 -0.8035
  155SAPE   C2117236   3.605   1.932  10.679  0.5662 -0.1435  0.4013
  155SAPE   O2217237   3.575   1.843  10.756  1.1498 -0.2966 -0.0412
  155SAPE   C2217238   3.749   1.948  10.628  0.7938  0.4500  0.0624
  155SAPE   H2R17239   3.753   2.051  10.587  0.9128 -0.2959 -1.8927
  155SAPE   H2S17240   3.827   1.941  10.706  2.0855 -0.5720 -1.2644
  155SAPE    C317241   3.297   2.126  10.616 -0.0638 -0.1685 -0.1382
  155SAPE    HX17242   3.347   2.225  10.610 -0.1986 -0.0789  0.1970
  155SAPE    HY17243   3.208   2.141  10.681 -0.2895  1.3241 -0.7484
  155SAPE   O3117244   3.261   2.084  10.482  0.5110  0.3544  0.9377
  155SAPE   C3117245   3.181   2.169  10.417  0.5620 -0.1509 -0.0968
  155SAPE   O3217246   3.129   2.269  10.463  0.1760  0.1983 -0.4503
  155SAPE   C3217247   3.153   2.126  10.275  0.1752  0.4251  0.3336
  155SAPE   H2X17248   3.053   2.164  10.244  0.6699 -0.9690 -3.5448
  155SAPE   H2Y17249   3.132   2.018  10.291 -3.2435  1.3107  3.1366
  155SAPE   C2317250   3.776   1.837  10.524 -0.4579 -0.3733 -0.6882
  155SAPE   H3R17251   3.687   1.842  10.458 -2.6069  3.3511  2.0490
  155SAPE   H3S17252   3.782   1.736  10.569 -2.2713  0.2602  1.0968
  155SAPE   C2417253   3.900   1.871  10.453  0.5731  0.2893 -0.0890
  155SAPE   H4R17254   3.981   1.868  10.529  0.7578 -2.6917 -0.2883
  155SAPE   H4S17255   3.888   1.973  10.411  2.1736  1.6490  2.5274
  155SAPE   C2517256   3.937   1.772  10.337  0.4564 -0.1540  0.5080
  155SAPE   H5R17257   3.898   1.670  10.346  1.6450 -0.9119 -1.9117
  155SAPE   C2617258   3.978   1.808  10.213 -0.4757 -1.1602 -0.3149
  155SAPE   H6R17259   4.000   1.734  10.135 -0.4516 -1.8289  0.3206
  155SAPE   C2717260   3.998   1.949  10.168 -0.6936 -1.0136 -0.2803
  155SAPE   H7R17261   3.907   2.001  10.205  0.4476  0.4387  0.6132
  155SAPE   H7S17262   3.996   1.959  10.058 -0.9510  0.1754 -0.1810
  155SAPE   C2817263   4.112   2.016  10.237 -0.1909  0.3730  0.3212
  155SAPE   H8R17264   4.107   2.027  10.346  2.8130 -1.5167  0.7612
  155SAPE   C2917265   4.217   2.066  10.165 -0.1706  0.4381 -0.4681
  155SAPE   H9R17266   4.299   2.114  10.222  0.9752 -1.4778 -0.3794
  155SAPE  C21017267   4.231   2.064  10.013  0.0648  0.5017  0.4119
  155SAPE  H10R17268   4.225   1.962   9.970  1.8404 -0.1171  1.4950
  155SAPE  H10S17269   4.333   2.103   9.990 -0.9046  2.4653 -0.7255
  155SAPE  C21117270   4.132   2.162   9.952 -1.1857  0.1128  0.2206
  155SAPE  H11R17271   4.125   2.261  10.000  0.8811 -0.4756  1.8733
  155SAPE  C21217272   4.055   2.135   9.846  0.0784  0.3030 -0.2883
  155SAPE  H12R17273   3.996   2.218   9.805 -0.3339  0.9433  1.5071
  155SAPE  C21317274   4.043   2.009   9.764 -0.5522 -0.0607  0.4902
  155SAPE  H13R17275   3.992   1.926   9.818 -0.2140  0.1210  1.1021
  155SAPE  H13S17276   4.143   1.960   9.754 -1.2915 -1.5575  0.2221
  155SAPE  C21417277   3.980   2.020   9.624  0.3576  0.3439  0.1116
  155SAPE  H14R17278   3.872   2.042   9.633  0.0539 -1.3189  0.9232
  155SAPE  C21517279   4.033   1.981   9.505  0.2533  0.8327  0.0576
  155SAPE  H15R17280   3.984   2.001   9.409  0.9593 -1.3134 -0.8108
  155SAPE  C21617281   4.168   1.916   9.471  0.2559 -0.5439 -0.4134
  155SAPE  H16R17282   4.212   1.874   9.563 -1.0664  1.2553  1.1184
  155SAPE  H16S17283   4.240   1.988   9.427  1.1316 -2.2679 -1.9447
  155SAPE  C21717284   4.156   1.796   9.378 -0.6452  0.0823 -0.0898
  155SAPE  H17R17285   4.111   1.822   9.280 -0.0730 -2.8092 -1.1916
  155SAPE  H17S17286   4.087   1.714   9.407  0.4348 -0.9448 -0.3323
  155SAPE  C21817287   4.294   1.744   9.341  0.6278  0.1162 -0.0952
  155SAPE  H18R17288   4.359   1.817   9.287  0.6715  0.0259 -0.1642
  155SAPE  H18S17289   4.276   1.660   9.270 -1.8430  1.5322 -1.2827
  155SAPE  C21917290   4.377   1.692   9.457  0.1845 -0.6830  0.3372
  155SAPE  H19R17291   4.317   1.630   9.526  0.2388 -0.3071  0.7258
  155SAPE  H19S17292   4.416   1.779   9.514  1.1827 -0.0753 -1.1919
  155SAPE  C22017293   4.502   1.605   9.421 -0.3167  0.1606 -0.2273
  155SAPE  H20R17294   4.466   1.511   9.376  2.4489 -1.0690 -0.0705
  155SAPE  H20S17295   4.566   1.594   9.512 -1.5062  0.2135  0.6454
  155SAPE  H20T17296   4.566   1.663   9.352  0.4046  3.1289  2.6530
  155SAPE   C3317297   3.279   2.148  10.191  0.0100  0.4422 -0.2204
  155SAPE   H3X17298   3.303   2.053  10.139 -0.0225  0.4736 -0.2925
  155SAPE   H3Y17299   3.369   2.163  10.253 -1.0604 -0.1072  1.5496
  155SAPE   C3417300   3.253   2.259  10.083 -0.2619 -0.5635  0.2031
  155SAPE   H4X17301   3.347   2.311  10.056 -0.9129  0.9311  0.6942
  155SAPE   H4Y17302   3.196   2.339  10.135 -1.0961 -0.3141 -1.0626
  155SAPE   C3517303   3.187   2.198   9.972  0.6216 -0.1740 -0.6977
  155SAPE   H5X17304   3.080   2.183   9.999  0.9050 -0.7759  0.1578
  155SAPE   H5Y17305   3.212   2.092   9.948  2.9050  0.4909 -1.5246
  155SAPE   C3617306   3.172   2.291   9.855  1.0799 -0.0054  0.3008
  155SAPE   H6X17307   3.266   2.339   9.822  0.9313  1.6537  2.0686
  155SAPE   H6Y17308   3.120   2.383   9.891  0.1121 -0.0666 -0.8658
  155SAPE   C3717309   3.109   2.212   9.731  0.1949 -0.2915  0.2118
  155SAPE   H7X17310   3.008   2.170   9.751 -0.6772  0.3042 -2.5536
  155SAPE   H7Y17311   3.178   2.130   9.702 -0.4307 -0.9901  0.6489
  155SAPE   C3817312   3.107   2.290   9.600  0.4834 -0.0027 -0.3811
  155SAPE   H8X17313   3.204   2.339   9.575 -0.1707  1.7351  0.3063
  155SAPE   H8Y17314   3.026   2.366   9.595  0.7503  0.2419 -1.0910
  155SAPE   C3917315   3.084   2.208   9.477 -0.1847  0.4410 -0.5454
  155SAPE   H9X17316   3.049   2.275   9.395  0.0207  1.6259  0.3078
  155SAPE   H9Y17317   3.001   2.137   9.498 -0.6737  0.3970 -2.4815
  155SAPE  C31017318   3.216   2.126   9.438 -0.2215  0.4637  0.2090
  155SAPE  H10X17319   3.253   2.071   9.527  1.1621  0.8359 -0.1115
  155SAPE  H10Y17320   3.298   2.199   9.426 -0.4462  0.6124 -0.4836
  155SAPE  C31117321   3.204   2.032   9.312  0.0833 -0.1714  0.4237
  155SAPE  H11X17322   3.120   1.962   9.330  1.9109 -2.2832  1.2273
  155SAPE  H11Y17323   3.299   1.979   9.287  0.0779  0.0103  0.0085
  155SAPE  C31217324   3.174   2.125   9.185  0.1057  0.1335 -0.0939
  155SAPE  H12X17325   3.067   2.154   9.195 -0.7336 -2.4626 -0.9158
  155SAPE  H12Y17326   3.180   2.057   9.098  1.1177  1.2741 -0.9538
  155SAPE  C31317327   3.265   2.242   9.159  0.9555  0.3446 -0.4561
  155SAPE  H13X17328   3.365   2.193   9.155  0.7682 -0.0307 -0.4988
  155SAPE  H13Y17329   3.264   2.328   9.230  1.9801  1.2967 -1.5573
  155SAPE  C31417330   3.248   2.304   9.016 -0.3278  0.2828  0.1835
  155SAPE  H14X17331   3.142   2.337   9.013 -0.8303 -1.3174 -0.4400
  155SAPE  H14Y17332   3.248   2.219   8.945 -1.9404 -1.1464  1.7742
  155SAPE  C31517333   3.350   2.406   8.977  0.4853 -0.3577 -0.2899
  155SAPE  H15X17334   3.449   2.355   8.979 -0.0215 -1.3428  0.6722
  155SAPE  H15Y17335   3.349   2.493   9.046 -0.2958  1.2846 -2.2788
  155SAPE  C31617336   3.336   2.471   8.840  0.3455  0.4997 -0.1224
  155SAPE  H16X17337   3.331   2.396   8.758 -1.4263  0.5995 -0.1440
  155SAPE  H16Y17338   3.425   2.538   8.839 -0.4299  1.5539 -0.4175
  155SAPE  C31717339   3.206   2.543   8.815  0.2563  0.5760 -0.1891
  155SAPE  H17X17340   3.183   2.614   8.897 -2.3476 -2.7148  2.1764
  155SAPE  H17Y17341   3.112   2.483   8.815  0.4265  0.2781  1.1649
  155SAPE  C31817342   3.207   2.620   8.679  0.4439 -0.1800  0.7167
  155SAPE  H18X17343   3.110   2.672   8.664 -0.0403 -1.1998  0.2184
  155SAPE  H18Y17344   3.227   2.553   8.593  0.7400 -0.7322  1.2062
  155SAPE  H18Z17345   3.285   2.699   8.669  0.3070 -0.1729 -0.4169
  156SAPE     N17346   2.422   6.049  10.572 -0.0072 -0.4073  0.6008
  156SAPE   HN117347   2.455   5.952  10.557 -1.0505 -0.7573  0.4603
  156SAPE   HN217348   2.329   6.048  10.619 -0.1653 -0.7748  0.2958
  156SAPE   HN317349   2.424   6.099  10.480  4.2583  1.1075  1.3058
  156SAPE   C1217350   2.527   6.113  10.652  0.2978 -0.8351 -0.1319
  156SAPE  H12A17351   2.510   6.079  10.757  1.3018 -2.9766 -0.6167
  156SAPE  H12B17352   2.515   6.223  10.652  0.7706 -0.7533  1.5325
  156SAPE   C1117353   2.663   6.088  10.598  0.2299 -0.0964 -0.3967
  156SAPE  H11A17354   2.733   6.150  10.656 -0.0052  0.4917 -0.7347
  156SAPE  H11B17355   2.659   6.123  10.492  0.5656  2.1664  0.3062
  156SAPE     P17356   2.835   5.891  10.605 -0.0284  0.5267 -0.1267
  156SAPE   O1317357   2.886   5.864  10.741  0.3487 -0.1966 -0.0342
  156SAPE   O1417358   2.822   5.778  10.519 -0.6715  0.5214  0.6645
  156SAPE   O1217359   2.685   5.949  10.609 -0.2115  0.1301  0.8674
  156SAPE   O1117360   2.922   6.008  10.533 -0.1481 -0.2128  0.5781
  156SAPE    C117361   3.009   5.968  10.424 -0.7311 -0.7152  0.1391
  156SAPE    HA17362   3.102   6.029  10.431 -0.9149 -0.5013  0.7627
  156SAPE    HB17363   3.036   5.861  10.432 -0.5679 -0.5935  1.3487
  156SAPE    C217364   2.954   5.991  10.282  0.9366  0.2578  0.5171
  156SAPE    HS17365   3.041   5.955  10.222 -1.0825 -1.8971 -1.3066
  156SAPE   O2117366   2.908   6.124  10.262  0.1646  0.5626  0.9037
  156SAPE   C2117367   2.994   6.216  10.275  0.0270  0.3608  0.1148
  156SAPE   O2217368   3.114   6.216  10.289  0.6475 -0.3421 -0.0588
  156SAPE   C2217369   2.919   6.348  10.269  0.4927 -0.0243  0.2693
  156SAPE   H2R17370   2.819   6.335  10.222  0.5685  0.4949 -0.0391
  156SAPE   H2S17371   2.887   6.366  10.374  1.4621  0.3955  0.4992
  156SAPE    C317372   2.840   5.889  10.243  0.0806  1.1136  0.4722
  156SAPE    HX17373   2.746   5.912  10.298 -0.2031 -0.5372  0.7385
  156SAPE    HY17374   2.871   5.788  10.278  1.5850  1.6985  0.9281
  156SAPE   O3117375   2.831   5.876  10.099  0.2761 -0.2504  0.2479
  156SAPE   C3117376   2.711   5.879  10.052  0.6085  0.0863 -0.6765
  156SAPE   O3217377   2.608   5.885  10.122 -0.6392  0.1222  0.4240
  156SAPE   C3217378   2.715   5.905   9.903  0.6631 -0.6183  0.8278
  156SAPE   H2X17379   2.614   5.932   9.866  1.6558  2.1060 -0.1332
  156SAPE   H2Y17380   2.754   5.814   9.851 -1.5893 -0.8362 -0.6028
  156SAPE   C2317381   3.009   6.467  10.230 -0.2149  1.0063 -0.0890
  156SAPE   H3R17382   3.081   6.480  10.313 -0.3035 -0.2271  0.1953
  156SAPE   H3S17383   2.943   6.556  10.231 -0.0142  1.1842 -1.2567
  156SAPE   C2417384   3.083   6.456  10.096 -0.3588 -0.5656  0.6179
  156SAPE   H4R17385   3.163   6.381  10.105 -0.9784 -1.2925  0.1999
  156SAPE   H4S17386   3.139   6.551  10.079  0.8037 -1.1058  1.3319
  156SAPE   C2517387   2.984   6.418   9.979 -0.0099 -0.4101  0.9711
  156SAPE   H5R17388   2.933   6.321   9.987  0.9316 -0.9901  0.2778
  156SAPE   C2617389   2.933   6.506   9.888  0.1991 -0.2086  0.7662
  156SAPE   H6R17390   2.857   6.471   9.817 -1.0587 -1.6986  2.7460
  156SAPE   C2717391   2.969   6.651   9.880  0.1452 -0.2372  0.4659
  156SAPE   H7R17392   3.070   6.657   9.835 -0.7682 -0.8231 -1.7957
  156SAPE   H7S17393   2.973   6.699   9.981  4.5352  1.7163 -0.3998
  156SAPE   C2817394   2.871   6.718   9.788  0.7317 -0.1172 -0.0944
  156SAPE   H8R17395   2.790   6.774   9.836  2.9675  1.8865  1.5684
  156SAPE   C2917396   2.863   6.694   9.652  0.3544 -0.4809 -0.9411
  156SAPE   H9R17397   2.790   6.756   9.599  0.9488  1.0601 -0.0439
  156SAPE  C21017398   2.963   6.621   9.574 -0.0240 -0.5639 -0.9429
  156SAPE  H10R17399   2.922   6.527   9.532 -0.2894 -1.3143  0.8763
  156SAPE  H10S17400   3.046   6.595   9.644  0.1145 -0.9428 -1.2465
  156SAPE  C21117401   3.019   6.708   9.460 -0.3747 -0.6248 -0.0805
  156SAPE  H11R17402   3.091   6.787   9.485 -0.6680  0.0432 -1.2856
  156SAPE  C21217403   2.975   6.684   9.333  0.1235 -0.2139 -0.1560
  156SAPE  H12R17404   3.014   6.750   9.254 -0.5873 -0.2011 -0.5064
  156SAPE  C21317405   2.875   6.583   9.279 -0.4899  0.0510  0.6773
  156SAPE  H13R17406   2.834   6.625   9.185  0.1638 -1.8363 -0.5155
  156SAPE  H13S17407   2.788   6.562   9.345  1.1180 -1.0180  2.5706
  156SAPE  C21417408   2.930   6.443   9.256  0.0363  0.6528  0.0217
  156SAPE  H14R17409   2.973   6.400   9.348  0.9305  2.3594  0.4450
  156SAPE  C21517410   2.935   6.387   9.135 -0.2420  1.0496 -0.4499
  156SAPE  H15R17411   2.985   6.289   9.120 -3.7315 -1.1459  0.9708
  156SAPE  C21617412   2.886   6.448   9.004 -0.0064  0.0579 -0.5660
  156SAPE  H16R17413   2.788   6.496   9.023  0.3117  1.0026 -1.2876
  156SAPE  H16S17414   2.885   6.372   8.923  2.7746  0.6922 -1.3143
  156SAPE  C21717415   2.981   6.561   8.944 -0.6054  0.3246  0.5990
  156SAPE  H17R17416   2.996   6.637   9.023 -2.8904  0.8228  0.6236
  156SAPE  H17S17417   2.935   6.607   8.855 -0.4972 -1.3790 -0.3822
  156SAPE  C21817418   3.115   6.496   8.889 -0.3615  0.0012 -0.3727
  156SAPE  H18R17419   3.074   6.422   8.816  0.7307 -1.9654  0.9209
  156SAPE  H18S17420   3.177   6.439   8.962  0.4358 -0.2015 -1.1862
  156SAPE  C21917421   3.197   6.600   8.808 -0.0206  0.3152 -0.3843
  156SAPE  H19R17422   3.245   6.673   8.877 -0.3126 -0.3764  0.5728
  156SAPE  H19S17423   3.121   6.664   8.758  0.0303  0.0339 -0.8272
  156SAPE  C22017424   3.304   6.534   8.729  0.1705  1.1218  0.4232
  156SAPE  H20R17425   3.373   6.606   8.679  0.5366  0.3594 -0.1904
  156SAPE  H20S17426   3.256   6.470   8.653 -0.2779 -0.1243  1.7115
  156SAPE  H20T17427   3.367   6.469   8.793 -0.0766 -0.0281 -0.4864
  156SAPE   C3317428   2.808   6.027   9.878  0.9618 -0.5265 -0.4461
  156SAPE   H3X17429   2.903   6.035   9.936  1.0062  0.6057 -0.6522
  156SAPE   H3Y17430   2.752   6.121   9.895  2.0080  0.0106  0.1935
  156SAPE   C3417431   2.843   6.008   9.730 -0.3915 -0.3259  0.7394
  156SAPE   H4X17432   2.760   5.954   9.680 -1.0083  1.7386 -0.6044
  156SAPE   H4Y17433   2.940   5.958   9.713  0.5035  1.3403  0.7075
  156SAPE   C3517434   2.851   6.142   9.652 -0.3520  0.2479  0.1373
  156SAPE   H5X17435   2.936   6.209   9.679 -0.9563  0.9751  0.2585
  156SAPE   H5Y17436   2.760   6.191   9.692 -0.8812 -2.7915  3.1370
  156SAPE   C3617437   2.848   6.139   9.495 -0.1493  0.7475 -0.1468
  156SAPE   H6X17438   2.941   6.085   9.467  1.3893  2.7718  0.7693
  156SAPE   H6Y17439   2.845   6.245   9.459 -1.4059  1.1462  1.0457
  156SAPE   C3717440   2.728   6.061   9.428 -0.1734 -0.1941 -1.4058
  156SAPE   H7X17441   2.634   6.119   9.445  1.1572  1.7813 -0.3856
  156SAPE   H7Y17442   2.719   5.968   9.488  2.3206  0.5025  0.1977
  156SAPE   C3817443   2.750   6.029   9.287  0.1129  0.1200 -0.2556
  156SAPE   H8X17444   2.829   5.952   9.275 -0.7595 -0.9668  0.6809
  156SAPE   H8Y17445   2.782   6.123   9.237 -3.0897 -0.0384 -2.9382
  156SAPE   C3917446   2.616   5.978   9.220  0.0856 -0.3657 -0.2760
  156SAPE   H9X17447   2.539   6.056   9.240  1.4959  0.9846  0.0716
  156SAPE   H9Y17448   2.593   5.884   9.276  3.7075 -0.9550  0.4624
  156SAPE  C31017449   2.631   5.939   9.074  0.4240 -0.3638  0.0218
  156SAPE  H10X17450   2.553   5.862   9.059 -1.2738  1.6422 -2.3400
  156SAPE  H10Y17451   2.734   5.900   9.070  1.5236  2.3070  0.0731
  156SAPE  C31117452   2.618   6.052   8.974  0.1020 -0.4355  0.4999
  156SAPE  H11X17453   2.685   6.139   8.991  0.4226 -0.4536 -0.5555
  156SAPE  H11Y17454   2.510   6.079   8.976 -0.1853 -1.6311  1.6375
  156SAPE  C31217455   2.661   6.006   8.835  0.1102 -0.0349 -0.1146
  156SAPE  H12X17456   2.586   6.020   8.755 -1.4015 -2.3456  0.7674
  156SAPE  H12Y17457   2.664   5.895   8.845  2.1005 -0.3515 -3.0043
  156SAPE  C31317458   2.794   6.070   8.803 -0.8064 -0.4675  1.1390
  156SAPE  H13X17459   2.786   6.180   8.797 -0.6610 -0.4764  0.7659
  156SAPE  H13Y17460   2.818   6.032   8.702 -0.1712  0.4803  0.9223
  156SAPE  C31417461   2.908   6.021   8.887 -0.3634  0.1507 -0.2830
  156SAPE  H14X17462   2.895   5.911   8.890  0.7716  0.0050 -0.5095
  156SAPE  H14Y17463   2.884   6.058   8.989 -0.7546 -1.6196  0.3080
  156SAPE  C31517464   3.045   6.073   8.837  0.2871 -0.1060 -0.3645
  156SAPE  H15X17465   3.042   6.172   8.786  2.3450 -0.8917 -2.1822
  156SAPE  H15Y17466   3.081   6.004   8.758 -0.7787 -0.1714 -0.8038
  156SAPE  C31617467   3.155   6.071   8.944 -0.7481 -0.3512  0.9122
  156SAPE  H16X17468   3.164   5.962   8.968 -1.2541 -0.7759 -0.7094
  156SAPE  H16Y17469   3.122   6.129   9.033  0.9660  3.1130 -0.5383
  156SAPE  C31717470   3.290   6.126   8.881 -0.1688 -0.3680  0.3835
  156SAPE  H17X17471   3.299   6.236   8.881  1.5736 -0.4525 -1.2983
  156SAPE  H17Y17472   3.305   6.087   8.778 -2.2962  2.1593 -1.0162
  156SAPE  C31817473   3.411   6.073   8.954  0.1780  0.1617 -0.2864
  156SAPE  H18X17474   3.440   6.125   9.048  2.5417 -2.5036  0.6353
  156SAPE  H18Y17475   3.503   6.074   8.892  2.6054 -3.8977  2.6984
  156SAPE  H18Z17476   3.388   5.969   8.987 -0.9734  0.5452  0.1754
  157SAPE     N17477   0.739   0.386  11.048 -0.7499  0.4811 -0.6078
  157SAPE   HN117478   0.786   0.443  11.122 -3.0610  1.5037  0.1472
  157SAPE   HN217479   0.647   0.431  11.035 -0.2893  2.1689  1.4792
  157SAPE   HN317480   0.718   0.290  11.084 -0.5163  0.1910 -1.2324
  157SAPE   C1217481   0.821   0.377  10.916 -0.3406 -0.0174 -0.0601
  157SAPE  H12A17482   0.911   0.313  10.929  1.5257  2.3984 -0.1629
  157SAPE  H12B17483   0.857   0.482  10.904  0.8600 -0.2958  0.9075
  157SAPE   C1117484   0.737   0.311  10.794  0.0103 -0.2429 -0.7779
  157SAPE  H11A17485   0.787   0.348  10.702 -0.6157  2.3095 -0.1735
  157SAPE  H11B17486   0.636   0.356  10.806 -1.7129 -3.7494 -0.7684
  157SAPE     P17487   0.620   0.082  10.742  0.1883 -0.2081 -0.2471
  157SAPE   O1317488   0.664  -0.054  10.696 -0.6024 -0.4249  0.1420
  157SAPE   O1417489   0.513   0.092  10.847 -1.2581  0.1918 -0.1935
  157SAPE   O1217490   0.742   0.169  10.795  0.1148  0.3861  0.1177
  157SAPE   O1117491   0.572   0.155  10.611  0.6415 -0.4395  0.2348
  157SAPE    C117492   0.658   0.174  10.497  0.0750  0.2829 -0.8815
  157SAPE    HA17493   0.764   0.193  10.521  0.9557 -2.0378 -2.5508
  157SAPE    HB17494   0.667   0.078  10.441  1.9271 -0.6475  0.8844
  157SAPE    C217495   0.612   0.280  10.410 -0.0999 -0.1088 -0.2931
  157SAPE    HS17496   0.636   0.382  10.449 -1.5764 -0.0201  0.4682
  157SAPE   O2117497   0.472   0.268  10.396  0.3472 -0.0454 -0.4032
  157SAPE   C2117498   0.416   0.376  10.339  0.2885  0.0673 -0.2613
  157SAPE   O2217499   0.473   0.482  10.326  0.1310  0.1681  0.5184
  157SAPE   C2217500   0.272   0.344  10.300 -0.6648 -0.1508 -1.0205
  157SAPE   H2R17501   0.256   0.234  10.304  1.8182 -0.5324  1.7460
  157SAPE   H2S17502   0.204   0.377  10.381 -1.2686 -0.4963 -1.3810
  157SAPE    C317503   0.681   0.274  10.267  0.6011 -0.4162 -0.0674
  157SAPE    HX17504   0.778   0.221  10.284  1.5122  1.3405  0.4344
  157SAPE    HY17505   0.704   0.381  10.247 -1.7576  0.2873  0.6349
  157SAPE   O3117506   0.599   0.207  10.165 -0.2393 -0.6657  0.5295
  157SAPE   C3117507   0.648   0.237  10.043 -0.0091 -0.1369  0.6984
  157SAPE   O3217508   0.747   0.304  10.031 -0.1387 -0.0819  0.4554
  157SAPE   C3217509   0.552   0.185   9.938 -0.3771 -0.7989 -0.8591
  157SAPE   H2X17510   0.491   0.266   9.893  0.0422 -0.2520 -0.4677
  157SAPE   H2Y17511   0.478   0.120   9.989 -0.5918  0.8680  1.1306
  157SAPE   C2317512   0.247   0.397  10.163 -0.1545  0.1444 -0.1163
  157SAPE   H3R17513   0.305   0.357  10.077  1.5325  2.0529  0.0467
  157SAPE   H3S17514   0.263   0.507  10.159  0.2268  0.0526 -3.5110
  157SAPE   C2417515   0.097   0.379  10.115 -0.7582 -0.3533  0.4441
  157SAPE   H4R17516   0.087   0.441  10.024 -2.0240 -0.7534  0.3047
  157SAPE   H4S17517   0.030   0.418  10.195 -0.1454 -0.1431  0.8635
  157SAPE   C2517518   0.073   0.238  10.092  0.2163  0.3719 -0.1219
  157SAPE   H5R17519   0.045   0.184  10.184 -1.9155 -1.7516 -1.8908
  157SAPE   C2617520   0.090   0.163   9.984  0.2526  0.1395 -0.2936
  157SAPE   H6R17521   0.082   0.054   9.986  0.7644  0.1095  0.2182
  157SAPE   C2717522   0.144   0.219   9.854  0.3597 -0.4297 -0.4268
  157SAPE   H7R17523   0.236   0.163   9.828  1.6385  1.3696  0.0488
  157SAPE   H7S17524   0.174   0.326   9.858  0.5420 -0.5056  0.2749
  157SAPE   C2817525   0.050   0.211   9.734 -0.3279 -0.2907 -0.2745
  157SAPE   H8R17526  -0.002   0.304   9.707 -0.1053  0.2450  1.0605
  157SAPE   C2917527   0.025   0.106   9.646 -0.5900 -0.2566 -0.4885
  157SAPE   H9R17528  -0.046   0.130   9.564  0.1791  1.7088 -0.6292
  157SAPE  C21017529   0.091  -0.033   9.650  0.8034 -0.3802  0.1827
  157SAPE  H10R17530   0.022  -0.095   9.588  0.3594  2.3774 -2.2869
  157SAPE  H10S17531   0.098  -0.073   9.753  1.7770 -1.4630 -0.2746
  157SAPE  C21117532   0.228  -0.039   9.586  0.3144  0.0626  0.1508
  157SAPE  H11R17533   0.230   0.008   9.486 -2.7191 -1.5191 -0.7818
  157SAPE  C21217534   0.340  -0.089   9.642  0.1316  0.1611 -0.7042
  157SAPE  H12R17535   0.437  -0.091   9.590 -0.0732 -0.7446 -1.0740
  157SAPE  C21317536   0.349  -0.147   9.786 -0.0253  0.3875  0.8133
  157SAPE  H13R17537   0.318  -0.068   9.858 -0.5626  1.4332 -0.5174
  157SAPE  H13S17538   0.451  -0.187   9.800 -0.7991 -1.1083  2.4870
  157SAPE  C21417539   0.260  -0.266   9.793  0.1391  0.6389  0.4201
  157SAPE  H14R17540   0.240  -0.315   9.696  0.1605  0.1977  0.6395
  157SAPE  C21517541   0.193  -0.312   9.902 -0.2671 -0.0387  0.5060
  157SAPE  H15R17542   0.130  -0.402   9.895  0.7160 -0.7269  0.3146
  157SAPE  C21617543   0.191  -0.256  10.043  0.3021  0.1791  0.0079
  157SAPE  H16R17544   0.140  -0.331  10.108  1.1700 -0.4526 -0.0189
  157SAPE  H16S17545   0.144  -0.156  10.052 -0.1674  0.0253 -0.6464
  157SAPE  C21717546   0.338  -0.240  10.093  0.3447 -0.5940 -0.0198
  157SAPE  H17R17547   0.387  -0.145  10.062  1.1611 -0.2591  2.1168
  157SAPE  H17S17548   0.406  -0.324  10.069  0.3114 -1.0693  1.4557
  157SAPE  C21817549   0.355  -0.214  10.245  0.4296 -0.1331 -0.0731
  157SAPE  H18R17550   0.447  -0.266  10.279  0.1154 -0.5070  0.2248
  157SAPE  H18S17551   0.265  -0.260  10.293  0.8024 -1.4089 -0.5627
  157SAPE  C21917552   0.365  -0.065  10.278  0.0104 -0.2332 -0.0705
  157SAPE  H19R17553   0.270  -0.022  10.240 -0.5455 -0.5141  0.9562
  157SAPE  H19S17554   0.458  -0.018  10.239  1.0038 -0.4944  1.8511
  157SAPE  C22017555   0.371  -0.045  10.429 -0.1828  0.3392 -0.3666
  157SAPE  H20R17556   0.477  -0.030  10.458  0.0072  0.5232 -1.1310
  157SAPE  H20S17557   0.319  -0.125  10.485 -0.7573 -0.1023 -1.4937
  157SAPE  H20T17558   0.326   0.050  10.465  0.8640  1.4677 -1.8972
  157SAPE   C3317559   0.621   0.124   9.821  0.1564  0.3122 -0.1913
  157SAPE   H3X17560   0.604   0.014   9.831 -0.6316  0.5319  0.9566
  157SAPE   H3Y17561   0.732   0.135   9.827  0.2579 -0.1572 -1.0205
  157SAPE   C3417562   0.581   0.171   9.681  0.2211  0.0867 -0.2362
  157SAPE   H4X17563   0.573   0.281   9.669 -3.8496 -0.2476 -2.3881
  157SAPE   H4Y17564   0.476   0.144   9.658  0.6790 -0.5046 -1.7022
  157SAPE   C3517565   0.679   0.115   9.572  0.1155 -0.1664 -0.1672
  157SAPE   H5X17566   0.712   0.012   9.595  1.6571  0.7594  2.1230
  157SAPE   H5Y17567   0.772   0.175   9.580  1.5083 -2.4726  4.1727
  157SAPE   C3617568   0.616   0.124   9.434 -0.3669 -0.2406 -0.8683
  157SAPE   H6X17569   0.608   0.232   9.409  0.5049  0.2332  0.7248
  157SAPE   H6Y17570   0.513   0.083   9.436 -0.0418 -1.0868 -0.8110
  157SAPE   C3717571   0.685   0.051   9.317 -0.2480  0.3755  0.2128
  157SAPE   H7X17572   0.750  -0.036   9.339 -2.3170 -1.0976  0.7275
  157SAPE   H7Y17573   0.753   0.124   9.268 -1.3649  1.0453 -0.3739
  157SAPE   C3817574   0.586   0.003   9.207  0.3118  0.1605  0.3904
  157SAPE   H8X17575   0.518  -0.057   9.271 -0.0184 -1.2215 -1.1572
  157SAPE   H8Y17576   0.627  -0.072   9.135  0.8983 -0.2724  1.1652
  157SAPE   C3917577   0.521   0.117   9.125 -0.2615 -0.4384  0.7374
  157SAPE   H9X17578   0.604   0.176   9.078 -0.6530 -0.5542 -0.1278
  157SAPE   H9Y17579   0.468   0.181   9.197 -0.3148 -1.4218  1.5937
  157SAPE  C31017580   0.425   0.058   9.014 -0.0752  0.6765  0.1644
  157SAPE  H10X17581   0.346   0.136   9.010  0.0648  0.8002 -0.2937
  157SAPE  H10Y17582   0.387  -0.035   9.060  0.3048 -0.2043 -1.2268
  157SAPE  C31117583   0.493   0.037   8.878 -0.3389  0.2294  0.7698
  157SAPE  H11X17584   0.586  -0.023   8.886 -0.0711  0.2161 -1.5979
  157SAPE  H11Y17585   0.506   0.137   8.831 -0.0164 -0.1867 -0.0610
  157SAPE  C31217586   0.403  -0.050   8.781 -0.1711  0.1604  0.1009
  157SAPE  H12X17587   0.446  -0.050   8.679 -0.2788  0.4104  0.0521
  157SAPE  H12Y17588   0.313   0.013   8.763  0.9875  1.1199 -2.8977
  157SAPE  C31317589   0.379  -0.196   8.829 -0.1619  0.7006 -0.2072
  157SAPE  H13X17590   0.315  -0.187   8.919  2.8926  3.5136  1.9274
  157SAPE  H13Y17591   0.480  -0.222   8.867 -0.8185  0.0416  1.1392
  157SAPE  C31417592   0.330  -0.284   8.717 -0.9787 -0.0372  0.3684
  157SAPE  H14X17593   0.389  -0.269   8.624  0.1724  0.6086  1.1696
  157SAPE  H14Y17594   0.229  -0.242   8.700 -1.4311 -0.5833  1.6432
  157SAPE  C31517595   0.322  -0.428   8.747 -0.1581  0.4182  0.3258
  157SAPE  H15X17596   0.420  -0.458   8.789 -1.0036  0.3117  2.3480
  157SAPE  H15Y17597   0.309  -0.490   8.656 -1.2531  0.2731  0.5620
  157SAPE  C31617598   0.213  -0.451   8.852 -0.1271  0.2883  0.2596
  157SAPE  H16X17599   0.114  -0.420   8.811  0.9324  1.2857 -1.6843
  157SAPE  H16Y17600   0.245  -0.387   8.937  1.7702  0.4142 -0.5076
  157SAPE  C31717601   0.211  -0.595   8.901  0.4875 -0.0513  0.1920
  157SAPE  H17X17602   0.164  -0.588   9.002  1.4849 -1.2713  0.7523
  157SAPE  H17Y17603   0.312  -0.634   8.921  0.1458 -1.2934 -0.4170
  157SAPE  C31817604   0.146  -0.694   8.816  0.2775 -0.1094  0.1897
  157SAPE  H18X17605   0.037  -0.677   8.811  0.3915  0.2770 -1.5096
  157SAPE  H18Y17606   0.166  -0.802   8.836  1.6271  0.4253  1.9994
  157SAPE  H18Z17607   0.184  -0.684   8.712 -2.0324  0.7803 -0.6303
  158SAPE     N17608   1.293   6.391  10.548  0.2304  0.2879 -0.4812
  158SAPE   HN117609   1.203   6.353  10.514 -1.2271  1.3099  1.9686
  158SAPE   HN217610   1.320   6.481  10.506  0.8567  0.4787  0.3010
  158SAPE   HN317611   1.374   6.329  10.525  0.0558  0.1853 -0.8157
  158SAPE   C1217612   1.280   6.398  10.698 -0.9448 -0.4557  0.5728
  158SAPE  H12A17613   1.288   6.293  10.735 -0.5527 -0.7144 -0.2251
  158SAPE  H12B17614   1.175   6.429  10.721 -0.7334  0.7465 -0.0424
  158SAPE   C1117615   1.380   6.503  10.748  0.1756 -0.4654  0.2375
  158SAPE  H11A17616   1.480   6.470  10.714 -0.3386  2.3142 -5.0728
  158SAPE  H11B17617   1.388   6.514  10.858 -1.1034 -2.3903  0.5720
  158SAPE     P17618   1.450   6.740  10.647 -0.3533 -0.5808 -0.3025
  158SAPE   O1317619   1.451   6.845  10.748  0.5393  0.2726  0.2862
  158SAPE   O1417620   1.574   6.672  10.611  0.3936 -0.5342  0.1176
  158SAPE   O1217621   1.348   6.629  10.694 -0.2175  0.2979 -0.3105
  158SAPE   O1117622   1.376   6.788  10.519 -0.2992 -0.3583  0.0686
  158SAPE    C117623   1.241   6.836  10.501  0.2902  0.1442 -0.1050
  158SAPE    HA17624   1.182   6.808  10.591 -0.7334 -1.2724 -1.1676
  158SAPE    HB17625   1.240   6.947  10.500 -0.8857  0.1643 -1.6858
  158SAPE    C217626   1.154   6.763  10.391  0.3064  0.5184  0.7018
  158SAPE    HS17627   1.128   6.661  10.425  2.1460 -0.1577  0.2365
  158SAPE   O2117628   1.225   6.765  10.260 -0.7544  0.0096  0.0716
  158SAPE   C2117629   1.301   6.663  10.239 -0.4165  1.0414 -0.4487
  158SAPE   O2217630   1.296   6.559  10.308  0.0265 -0.1903  0.3932
  158SAPE   C2217631   1.391   6.707  10.124  0.0407 -0.1181  0.4029
  158SAPE   H2R17632   1.338   6.770  10.050 -1.0116 -1.0140  0.3549
  158SAPE   H2S17633   1.471   6.770  10.168 -0.0059  2.0150 -2.3431
  158SAPE    C317634   1.023   6.835  10.362 -0.3890  0.5600 -0.2479
  158SAPE    HX17635   1.046   6.936  10.323 -1.5822  0.4114 -1.4241
  158SAPE    HY17636   0.969   6.849  10.458  0.0134 -0.5609  0.1567
  158SAPE   O3117637   0.942   6.772  10.267  0.5686 -0.6981  0.6923
  158SAPE   C3117638   0.862   6.674  10.315  0.0636 -0.6072 -0.6534
  158SAPE   O3217639   0.871   6.625  10.424 -0.3402  0.3451  0.2277
  158SAPE   C3217640   0.756   6.641  10.215  0.2939 -1.2297  1.0039
  158SAPE   H2X17641   0.717   6.739  10.180 -1.2287 -1.2313  2.5224
  158SAPE   H2Y17642   0.678   6.564  10.237 -2.6488  0.3181 -2.8736
  158SAPE   C2317643   1.454   6.585  10.056 -0.0947  0.5367  0.8771
  158SAPE   H3R17644   1.376   6.524  10.007  0.3452  0.3937  0.3465
  158SAPE   H3S17645   1.498   6.519  10.134  0.9672  0.4125  0.1866
  158SAPE   C2417646   1.561   6.619   9.955 -0.0770 -0.8007  0.5755
  158SAPE   H4R17647   1.575   6.521   9.904  0.5056 -0.6386  0.4199
  158SAPE   H4S17648   1.655   6.655  10.002 -0.2085  0.6780 -0.2287
  158SAPE   C2517649   1.513   6.734   9.860 -0.8024 -0.2598  0.4223
  158SAPE   H5R17650   1.498   6.833   9.905 -1.3831 -0.4516  0.6678
  158SAPE   C2617651   1.487   6.730   9.726  0.1224 -0.1698 -0.7178
  158SAPE   H6R17652   1.451   6.815   9.667  0.6673  0.2024 -0.5160
  158SAPE   C2717653   1.503   6.599   9.636 -0.0491  0.1330  0.3018
  158SAPE   H7R17654   1.400   6.566   9.608  0.3051 -0.0340 -0.8553
  158SAPE   H7S17655   1.553   6.511   9.681  2.0341  1.8396  1.4976
  158SAPE   C2817656   1.562   6.619   9.497  0.3233 -0.2850  0.1109
  158SAPE   H8R17657   1.624   6.710   9.491  0.3046 -0.3408 -1.2034
  158SAPE   C2917658   1.545   6.541   9.388 -0.2460 -0.3701 -0.0984
  158SAPE   H9R17659   1.602   6.573   9.299  0.0507  1.1163  0.5969
  158SAPE  C21017660   1.458   6.409   9.375 -0.1653 -0.0445  0.4734
  158SAPE  H10R17661   1.367   6.439   9.319  1.0833  0.7048 -1.2537
  158SAPE  H10S17662   1.424   6.373   9.474 -2.3384 -0.6325 -0.4247
  158SAPE  C21117663   1.537   6.305   9.296 -0.6841 -0.6493 -0.2712
  158SAPE  H11R17664   1.646   6.312   9.306 -0.7135 -1.6098  1.0414
  158SAPE  C21217665   1.490   6.221   9.208  0.1538  0.1111  0.3929
  158SAPE  H12R17666   1.560   6.155   9.154  0.4158  1.6392 -1.2112
  158SAPE  C21317667   1.347   6.214   9.165  0.3435 -0.5211  0.3299
  158SAPE  H13R17668   1.278   6.233   9.249  0.7287 -1.5228  0.8858
  158SAPE  H13S17669   1.316   6.108   9.150  1.8355 -0.7566 -1.6008
  158SAPE  C21417670   1.307   6.313   9.051  0.1326  0.3663 -0.3021
  158SAPE  H14R17671   1.335   6.417   9.074 -1.2285  0.3906  1.4780
  158SAPE  C21517672   1.228   6.290   8.942 -0.0995  0.4990  0.5696
  158SAPE  H15R17673   1.197   6.368   8.870 -2.0099 -2.6500 -2.3185
  158SAPE  C21617674   1.179   6.150   8.909 -0.0538  0.0393 -0.1791
  158SAPE  H16R17675   1.077   6.158   8.864 -1.2557 -2.2872  1.8888
  158SAPE  H16S17676   1.163   6.092   9.002 -0.2114  0.6444  0.1750
  158SAPE  C21717677   1.271   6.066   8.814  0.2385  0.5237  0.5060
  158SAPE  H17R17678   1.370   6.055   8.863  0.6737  0.5785 -0.3391
  158SAPE  H17S17679   1.298   6.126   8.725  0.7024 -0.6481 -0.1628
  158SAPE  C21817680   1.203   5.944   8.755  0.3281 -0.0140 -0.0975
  158SAPE  H18R17681   1.100   5.975   8.727 -0.6492 -0.2055  2.9966
  158SAPE  H18S17682   1.197   5.864   8.831 -1.8696 -0.8879 -1.1099
  158SAPE  C21917683   1.258   5.883   8.622 -0.3487 -0.4251 -0.5782
  158SAPE  H19R17684   1.368   5.875   8.632 -0.2896  2.3309  2.2204
  158SAPE  H19S17685   1.226   5.948   8.537 -1.4599  0.6128  0.5915
  158SAPE  C22017686   1.194   5.741   8.600 -0.2953 -0.1571 -0.0341
  158SAPE  H20R17687   1.083   5.739   8.604 -0.2891  0.2155  0.5415
  158SAPE  H20S17688   1.225   5.666   8.676  0.3113 -1.7089 -1.7640
  158SAPE  H20T17689   1.218   5.692   8.504  1.0031 -2.1404  1.2379
  158SAPE   C3317690   0.815   6.588  10.079  0.2643  0.0062 -0.5288
  158SAPE   H3X17691   0.878   6.664  10.027  0.9027 -1.2753 -1.6865
  158SAPE   H3Y17692   0.736   6.572  10.003 -0.2246 -0.4249  0.0630
  158SAPE   C3417693   0.897   6.459  10.100  0.1388  0.8645 -0.3909
  158SAPE   H4X17694   0.833   6.394  10.163  1.0326  0.2346 -0.1096
  158SAPE   H4Y17695   0.991   6.477  10.156 -1.6751  1.1745  2.8055
  158SAPE   C3517696   0.929   6.387   9.961  0.3837  0.0159 -1.0260
  158SAPE   H5X17697   0.834   6.386   9.903 -1.0336 -1.1117  1.1947
  158SAPE   H5Y17698   0.942   6.280   9.985 -0.3025  0.4603  1.6777
  158SAPE   C3617699   1.049   6.444   9.882  0.1752  0.6076 -0.9260
  158SAPE   H6X17700   1.136   6.433   9.950  1.6297 -0.9935 -2.9457
  158SAPE   H6Y17701   1.040   6.554   9.873  0.0778  0.7036  0.2133
  158SAPE   C3717702   1.057   6.378   9.748  0.0930 -0.2238 -0.4895
  158SAPE   H7X17703   1.065   6.267   9.760  2.6137 -0.1808 -1.2511
  158SAPE   H7Y17704   1.151   6.422   9.710 -0.4876  0.0922 -1.6058
  158SAPE   C3817705   0.945   6.428   9.656 -0.0530 -0.2922 -0.1193
  158SAPE   H8X17706   0.972   6.528   9.616 -2.4283  0.1038 -0.8933
  158SAPE   H8Y17707   0.844   6.434   9.702  0.9255 -0.0222  2.1235
  158SAPE   C3917708   0.938   6.335   9.532  0.0696 -0.6396 -0.6749
  158SAPE   H9X17709   0.909   6.232   9.562  0.0294  0.2508  2.8678
  158SAPE   H9Y17710   1.045   6.335   9.501  0.4067  2.4940  0.1519
  158SAPE  C31017711   0.843   6.388   9.422 -0.0496  0.2659 -0.4696
  158SAPE  H10X17712   0.884   6.487   9.393  1.6066 -0.4737 -0.7378
  158SAPE  H10Y17713   0.751   6.401   9.483 -1.0217  0.6218 -1.9493
  158SAPE  C31117714   0.830   6.289   9.301  0.3934  0.1450 -0.6969
  158SAPE  H11X17715   0.780   6.205   9.354  0.8294  0.0522 -0.4364
  158SAPE  H11Y17716   0.919   6.251   9.248  0.4727 -1.0570  0.2502
  158SAPE  C31217717   0.740   6.338   9.195  0.3823 -0.0443  0.3285
  158SAPE  H12X17718   0.791   6.407   9.124 -0.0812  0.6022  0.6086
  158SAPE  H12Y17719   0.663   6.399   9.247 -0.2367 -0.1732 -0.4094
  158SAPE  C31317720   0.677   6.228   9.118  0.2824  0.5691  0.1140
  158SAPE  H13X17721   0.582   6.191   9.163  0.8814 -0.9664  0.1616
  158SAPE  H13Y17722   0.754   6.152   9.093 -1.3027 -1.0150 -0.1280
  158SAPE  C31417723   0.628   6.277   8.975  0.4193  0.2808 -0.5621
  158SAPE  H14X17724   0.576   6.374   8.994  1.2821  0.6200  0.1369
  158SAPE  H14Y17725   0.551   6.206   8.938  1.4649 -0.4471 -1.3662
  158SAPE  C31517726   0.734   6.313   8.874  0.5232 -0.1170 -0.0992
  158SAPE  H15X17727   0.685   6.313   8.774 -3.9078  0.5353  1.8063
  158SAPE  H15Y17728   0.808   6.234   8.851  2.8852  1.7759  0.6203
  158SAPE  C31617729   0.821   6.446   8.888  0.3001  0.0328  1.1849
  158SAPE  H16X17730   0.907   6.430   8.956 -2.0073 -3.1694  3.6839
  158SAPE  H16Y17731   0.754   6.526   8.925  0.6937 -0.4450  3.0292
  158SAPE  C31717732   0.864   6.499   8.750  0.2148  1.1435 -0.4726
  158SAPE  H17X17733   0.902   6.409   8.696  2.6819  1.3030  0.8514
  158SAPE  H17Y17734   0.947   6.573   8.751 -0.2082  1.6412  1.3824
  158SAPE  C31817735   0.760   6.575   8.661 -0.4336 -0.1316 -0.1465
  158SAPE  H18X17736   0.806   6.609   8.566 -1.1909  1.5947  0.0736
  158SAPE  H18Y17737   0.735   6.668   8.716  0.7946  1.0431 -1.4860
  158SAPE  H18Z17738   0.665   6.518   8.649 -0.3724 -0.4555  0.8277
  159SAPE     N17739   1.786   3.433   6.713 -0.5253 -0.4892  0.0238
  159SAPE   HN117740   1.721   3.504   6.673 -0.0282  1.3846  2.3461
  159SAPE   HN217741   1.763   3.418   6.813 -2.5152 -4.3554 -0.7772
  159SAPE   HN317742   1.884   3.458   6.690 -1.3280  0.4784 -2.8110
  159SAPE   C1217743   1.765   3.303   6.641 -0.0490 -0.3805 -0.1427
  159SAPE  H12A17744   1.664   3.311   6.596 -0.1619 -3.0115 -0.4941
  159SAPE  H12B17745   1.768   3.219   6.713 -1.5097  0.2405  0.6922
  159SAPE   C1117746   1.876   3.275   6.533  0.5872 -0.3313 -0.3522
  159SAPE  H11A17747   1.884   3.367   6.470 -0.0787  0.7491  1.0754
  159SAPE  H11B17748   1.850   3.187   6.470 -1.5096  0.0625 -0.1171
  159SAPE     P17749   2.067   3.108   6.598  0.0828 -0.2226  0.1729
  159SAPE   O1317750   1.990   3.032   6.697  0.2868 -0.0499 -0.2087
  159SAPE   O1417751   2.081   3.051   6.463  0.2669  0.3212  0.3119
  159SAPE   O1217752   2.004   3.254   6.588 -0.4406  0.4786 -0.0121
  159SAPE   O1117753   2.201   3.136   6.669  0.3502 -0.1667 -0.4286
  159SAPE    C117754   2.215   3.256   6.753  0.7998  0.7427 -0.0959
  159SAPE    HA17755   2.322   3.278   6.767  0.6622  0.0077  2.4836
  159SAPE    HB17756   2.170   3.346   6.705 -0.8160  0.1414  0.2276
  159SAPE    C217757   2.153   3.244   6.892  0.4643  0.2110 -0.2893
  159SAPE    HS17758   2.047   3.210   6.893  1.2257 -2.3947 -0.1682
  159SAPE   O2117759   2.178   3.372   6.957  0.7543  0.4619  0.0587
  159SAPE   C2117760   2.068   3.446   6.969 -0.6874 -0.2370 -0.0199
  159SAPE   O2217761   1.953   3.413   6.939  0.5280  0.4615 -0.2617
  159SAPE   C2217762   2.095   3.585   7.026  0.4316 -0.4473 -0.0152
  159SAPE   H2R17763   2.195   3.582   7.074  0.1302  0.5983  0.7228
  159SAPE   H2S17764   2.105   3.652   6.938 -1.2877 -0.1308  0.0029
  159SAPE    C317765   2.225   3.139   6.976 -0.0664  0.0742  0.3768
  159SAPE    HX17766   2.324   3.186   6.998  0.5295 -1.0320  0.1090
  159SAPE    HY17767   2.246   3.046   6.919  1.2940  1.7731 -2.1223
  159SAPE   O3117768   2.148   3.109   7.098 -0.6108 -0.5927 -0.2272
  159SAPE   C3117769   2.222   3.044   7.195  0.0780 -0.4665  0.7590
  159SAPE   O3217770   2.339   3.009   7.173  0.0202 -0.2551 -0.2401
  159SAPE   C3217771   2.132   3.026   7.317  0.1508  0.5986  0.0890
  159SAPE   H2X17772   2.108   2.918   7.324  1.3652  0.2422 -0.8994
  159SAPE   H2Y17773   2.034   3.073   7.295 -1.4678 -2.3704  0.5122
  159SAPE   C2317774   1.982   3.635   7.122  0.1653 -0.9054 -0.3485
  159SAPE   H3R17775   1.882   3.648   7.075 -0.8597  1.5507  2.2049
  159SAPE   H3S17776   2.011   3.740   7.145 -0.8851 -1.0474  1.8933
  159SAPE   C2417777   1.964   3.548   7.250  0.3443  0.1185 -0.0086
  159SAPE   H4R17778   1.920   3.456   7.204 -1.2642  1.4578 -1.2700
  159SAPE   H4S17779   1.875   3.583   7.307 -0.5484 -0.4968 -0.9828
  159SAPE   C2517780   2.086   3.503   7.330  0.5195  0.4493  0.8016
  159SAPE   H5R17781   2.177   3.483   7.270  1.1089  1.5652  1.2777
  159SAPE   C2617782   2.097   3.493   7.463 -0.1818 -0.2127 -0.0103
  159SAPE   H6R17783   2.197   3.479   7.508 -0.6031 -3.2441  0.1728
  159SAPE   C2717784   1.995   3.528   7.567 -0.4186  0.1369  0.0137
  159SAPE   H7R17785   1.894   3.539   7.522 -0.6873  1.8540  0.9648
  159SAPE   H7S17786   2.016   3.629   7.608  0.3338 -0.0934  0.2035
  159SAPE   C2817787   2.003   3.422   7.679 -0.1191 -0.2664  0.1546
  159SAPE   H8R17788   2.088   3.352   7.683 -0.2055 -0.3582  0.4363
  159SAPE   C2917789   1.907   3.404   7.768 -0.5408  0.5464 -0.0043
  159SAPE   H9R17790   1.928   3.323   7.840 -1.4849 -1.4582 -1.8611
  159SAPE  C21017791   1.776   3.474   7.776  0.3218  0.4281  0.0621
  159SAPE  H10R17792   1.698   3.397   7.763 -0.9760  1.6901  0.0896
  159SAPE  H10S17793   1.760   3.551   7.697  0.4415  1.5614  1.1046
  159SAPE  C21117794   1.747   3.532   7.911  0.2292  0.2782  0.0613
  159SAPE  H11R17795   1.826   3.600   7.948  2.9971 -2.6695  0.0646
  159SAPE  C21217796   1.649   3.496   7.992  0.1610  0.3143  0.3256
  159SAPE  H12R17797   1.642   3.556   8.083 -1.2282  2.1552 -0.9281
  159SAPE  C21317798   1.536   3.396   7.975 -0.5977 -0.0473  0.0578
  159SAPE  H13R17799   1.576   3.313   8.037  0.4771  1.6072  1.6965
  159SAPE  H13S17800   1.524   3.351   7.874  0.3617  1.9191 -0.9920
  159SAPE  C21417801   1.406   3.459   8.025 -0.7714  0.6854 -0.4469
  159SAPE  H14R17802   1.359   3.517   7.944  0.7850 -3.1473 -4.4833
  159SAPE  C21517803   1.374   3.454   8.152 -0.0747 -0.7987 -1.1785
  159SAPE  H15R17804   1.275   3.493   8.179  0.9969 -0.6006  3.2175
  159SAPE  C21617805   1.439   3.375   8.268  0.2584 -0.0877  0.0763
  159SAPE  H16R17806   1.495   3.444   8.335 -0.3706 -0.3828  0.9397
  159SAPE  H16S17807   1.521   3.311   8.229  0.9541  0.0660  1.2135
  159SAPE  C21717808   1.350   3.286   8.352  0.1574  0.1828 -0.0132
  159SAPE  H17R17809   1.408   3.231   8.429 -1.4912  0.7688  1.7249
  159SAPE  H17S17810   1.309   3.206   8.286  0.4440  2.6786 -3.5162
  159SAPE  C21817811   1.248   3.360   8.437  0.5592  0.3166  0.2977
  159SAPE  H18R17812   1.168   3.401   8.373  0.1230  0.6159  1.0209
  159SAPE  H18S17813   1.307   3.445   8.477  0.8183  0.0548  0.4740
  159SAPE  C21917814   1.191   3.268   8.546 -0.7421  0.0527  0.4212
  159SAPE  H19R17815   1.271   3.217   8.604  0.6701  2.2131  0.5204
  159SAPE  H19S17816   1.126   3.201   8.487 -1.0262  1.9488 -1.5554
  159SAPE  C22017817   1.098   3.329   8.655 -0.1828  0.4763  0.6777
  159SAPE  H20R17818   1.019   3.390   8.606 -0.0738 -1.1820 -1.7494
  159SAPE  H20S17819   1.149   3.383   8.738  0.4172 -0.3639  0.8709
  159SAPE  H20T17820   1.039   3.251   8.708 -0.8912  0.6847  0.2030
  159SAPE   C3317821   2.195   3.080   7.445 -0.1177 -0.0756 -0.6089
  159SAPE   H3X17822   2.216   3.189   7.436  2.3151 -0.3834  0.5933
  159SAPE   H3Y17823   2.292   3.034   7.474  0.2633  1.7995  1.3035
  159SAPE   C3417824   2.100   3.059   7.560 -0.4530  0.0976 -0.1957
  159SAPE   H4X17825   2.031   2.974   7.539 -0.3144  0.2961 -1.5239
  159SAPE   H4Y17826   2.025   3.141   7.559 -3.0765 -2.1091  0.6958
  159SAPE   C3517827   2.153   3.059   7.703 -0.0943  0.8367 -0.1744
  159SAPE   H5X17828   2.066   3.079   7.768 -0.6446 -0.5381 -0.4398
  159SAPE   H5Y17829   2.220   3.146   7.715  0.7863  0.0912  0.4493
  159SAPE   C3617830   2.223   2.928   7.742 -0.2481 -0.0150 -0.0704
  159SAPE   H6X17831   2.301   2.903   7.666  0.3405  1.9539 -0.1732
  159SAPE   H6Y17832   2.154   2.841   7.749 -2.6470  1.7705 -0.3594
  159SAPE   C3717833   2.286   2.948   7.881 -0.6472  0.6484 -0.2747
  159SAPE   H7X17834   2.341   3.042   7.897 -0.9532  0.7173  0.4268
  159SAPE   H7Y17835   2.358   2.864   7.895 -0.3560  1.0550  0.7088
  159SAPE   C3817836   2.191   2.928   7.994 -0.2087 -0.6337 -0.5520
  159SAPE   H8X17837   2.150   2.825   7.985  0.3530 -0.8145 -1.1282
  159SAPE   H8Y17838   2.114   3.004   7.970  1.2896  0.4173 -2.2733
  159SAPE   C3917839   2.259   2.959   8.130  0.2070  0.2019 -0.1762
  159SAPE   H9X17840   2.284   3.067   8.128 -0.7601  0.6191  3.3971
  159SAPE   H9Y17841   2.355   2.904   8.122  0.8042  1.1676  0.1161
  159SAPE  C31017842   2.181   2.917   8.254 -0.1907 -0.5436 -0.2846
  159SAPE  H10X17843   2.120   2.825   8.249 -1.0834 -0.0245  0.5770
  159SAPE  H10Y17844   2.098   2.990   8.265 -0.9123 -1.2208 -1.0724
  159SAPE  C31117845   2.273   2.924   8.367  0.0749 -0.3481 -1.1776
  159SAPE  H11X17846   2.268   3.024   8.415 -0.2783 -1.8511  2.2474
  159SAPE  H11Y17847   2.377   2.903   8.333 -0.5010 -2.5691 -1.7335
  159SAPE  C31217848   2.228   2.826   8.477 -0.2581  0.3648  0.1094
  159SAPE  H12X17849   2.222   2.720   8.441  2.0015 -0.0170  0.7180
  159SAPE  H12Y17850   2.119   2.842   8.490 -0.1183  1.9573 -0.4597
  159SAPE  C31317851   2.297   2.854   8.606  0.1062  0.2925 -0.3128
  159SAPE  H13X17852   2.269   2.959   8.629  0.3255  0.4556 -0.7752
  159SAPE  H13Y17853   2.408   2.856   8.598  0.2014  0.8324  0.9256
  159SAPE  C31417854   2.240   2.789   8.734  0.0584  0.2190 -0.3447
  159SAPE  H14X17855   2.288   2.846   8.817  1.1216  0.7615 -1.3132
  159SAPE  H14Y17856   2.266   2.681   8.733 -0.9329 -0.1789  2.9849
  159SAPE  C31517857   2.088   2.794   8.748 -0.2439  0.5957  0.1624
  159SAPE  H15X17858   2.041   2.747   8.659  0.9842 -1.4369  0.5251
  159SAPE  H15Y17859   2.052   2.899   8.760  0.1872  0.6496  1.1074
  159SAPE  C31617860   2.029   2.732   8.882 -0.0254 -0.4428 -0.0628
  159SAPE  H16X17861   1.926   2.771   8.893  0.5214  0.6601  1.5284
  159SAPE  H16Y17862   2.101   2.765   8.960 -0.0684  0.9343 -0.5819
  159SAPE  C31717863   2.027   2.580   8.881 -0.1275 -0.4723  0.8015
  159SAPE  H17X17864   2.135   2.554   8.881  1.0297  3.5977  0.0919
  159SAPE  H17Y17865   1.976   2.544   8.789 -0.5058 -1.6211  1.4368
  159SAPE  C31817866   1.964   2.524   9.006 -0.7590 -0.0830 -0.1512
  159SAPE  H18X17867   1.953   2.413   9.005 -0.8189 -0.1655  2.7716
  159SAPE  H18Y17868   1.864   2.572   9.011  0.5514  2.9114 -0.4088
  159SAPE  H18Z17869   2.022   2.549   9.097 -3.0228  0.4547  1.2285
  160SAPE     N17870   0.035   4.347   6.028  0.3439 -0.0020 -0.3152
  160SAPE   HN117871  -0.044   4.371   5.964 -0.4709  0.7129  0.9313
  160SAPE   HN217872   0.075   4.252   6.020  1.9521  0.6492 -0.4610
  160SAPE   HN317873  -0.001   4.345   6.125  1.0020 -1.3638 -0.0808
  160SAPE   C1217874   0.155   4.435   6.031  0.4742  0.4903 -0.6918
  160SAPE  H12A17875   0.129   4.533   5.985 -1.8842  0.3555  0.2134
  160SAPE  H12B17876   0.228   4.389   5.960  1.6272  0.6222  0.3865
  160SAPE   C1117877   0.219   4.453   6.169  0.4021  0.8413 -0.1498
  160SAPE  H11A17878   0.313   4.511   6.160  1.5709 -0.9468  0.0753
  160SAPE  H11B17879   0.231   4.349   6.207 -1.6682 -0.1305 -1.9793
  160SAPE     P17880   0.148   4.599   6.392 -0.1828 -0.8530 -0.2797
  160SAPE   O1317881   0.264   4.528   6.449 -0.0798 -0.3376 -0.6877
  160SAPE   O1417882   0.164   4.739   6.361  0.3685 -0.1021  0.8074
  160SAPE   O1217883   0.133   4.525   6.249  0.0727 -0.0457  0.5867
  160SAPE   O1117884   0.011   4.570   6.467 -0.1150 -0.3397  0.5135
  160SAPE    C117885  -0.012   4.435   6.519  0.3102 -0.3970 -0.3110
  160SAPE    HA17886  -0.120   4.412   6.515  0.2312  0.1295 -1.6752
  160SAPE    HB17887   0.045   4.357   6.465  1.4411  0.8356 -0.9673
  160SAPE    C217888   0.032   4.428   6.672  0.1081 -0.3447  0.1313
  160SAPE    HS17889   0.143   4.431   6.666  0.1322 -1.2758 -0.0312
  160SAPE   O2117890  -0.014   4.305   6.717 -0.4648  0.4202 -0.2153
  160SAPE   C2117891   0.015   4.265   6.844  0.0170  0.1160 -0.4072
  160SAPE   O2217892   0.097   4.318   6.914 -0.2741 -0.0589 -0.1302
  160SAPE   C2217893  -0.060   4.135   6.876 -0.0178  0.4048  0.6483
  160SAPE   H2R17894  -0.168   4.153   6.858  0.2015  0.9780 -0.1598
  160SAPE   H2S17895  -0.037   4.058   6.798  0.8625  1.3433 -0.0354
  160SAPE    C317896  -0.021   4.547   6.758  0.5457  0.2101  0.6684
  160SAPE    HX17897   0.011   4.641   6.708  0.3468 -0.7893 -1.4568
  160SAPE    HY17898   0.029   4.543   6.858  2.0838  0.2370 -0.0600
  160SAPE   O3117899  -0.167   4.535   6.784 -0.8976  0.2224 -0.4478
  160SAPE   C3117900  -0.207   4.655   6.821  0.0511 -0.2354 -0.0159
  160SAPE   O3217901  -0.152   4.764   6.813 -0.2092  0.2740 -0.6594
  160SAPE   C3217902  -0.354   4.642   6.864  0.2087 -0.4623 -0.4899
  160SAPE   H2X17903  -0.421   4.630   6.776 -2.0749 -1.8551  1.3134
  160SAPE   H2Y17904  -0.386   4.733   6.919  0.6297 -0.8431  0.4093
  160SAPE   C2317905  -0.031   4.092   7.021  0.9716 -0.1870  0.2027
  160SAPE   H3R17906   0.076   4.112   7.043  0.9092  0.6117 -0.2000
  160SAPE   H3S17907  -0.037   3.983   7.040 -0.7823 -0.1821 -0.1190
  160SAPE   C2417908  -0.113   4.181   7.117 -0.7013  0.0911 -0.0073
  160SAPE   H4R17909  -0.117   4.287   7.083 -2.0408 -0.6237 -2.3575
  160SAPE   H4S17910  -0.058   4.185   7.213  1.1481 -0.5124 -0.9775
  160SAPE   C2517911  -0.257   4.138   7.126 -0.5482 -0.4058 -0.1203
  160SAPE   H5R17912  -0.324   4.184   7.052 -1.5240 -0.8379  0.4770
  160SAPE   C2617913  -0.307   4.058   7.225 -0.5626  0.6348  0.4447
  160SAPE   H6R17914  -0.412   4.028   7.211 -1.7004  3.8477  1.1032
  160SAPE   C2717915  -0.215   4.008   7.339 -0.0801 -0.3690  0.1249
  160SAPE   H7R17916  -0.110   3.993   7.306  0.7190  1.3498  1.7171
  160SAPE   H7S17917  -0.250   3.909   7.376 -0.8887 -0.0199  0.3115
  160SAPE   C2817918  -0.218   4.112   7.445  0.3071 -0.2589 -0.5108
  160SAPE   H8R17919  -0.179   4.209   7.410  1.0316 -0.2858  0.2035
  160SAPE   C2917920  -0.254   4.097   7.571  0.5360 -0.1470 -0.0472
  160SAPE   H9R17921  -0.222   4.177   7.639  2.3821  0.0152 -1.0292
  160SAPE  C21017922  -0.294   3.968   7.645  0.2678 -0.0391 -0.8769
  160SAPE  H10R17923  -0.265   3.884   7.578  0.0969 -0.3183 -0.6040
  160SAPE  H10S17924  -0.405   3.968   7.651  0.3373  0.7283  1.1180
  160SAPE  C21117925  -0.242   3.926   7.781 -0.6000 -0.1033 -0.2620
  160SAPE  H11R17926  -0.298   3.973   7.864 -2.8116  0.3123 -1.8977
  160SAPE  C21217927  -0.135   3.849   7.805 -0.3712  0.0412 -0.2231
  160SAPE  H12R17928  -0.129   3.826   7.913 -1.2402  0.3212 -0.1137
  160SAPE  C21317929  -0.047   3.785   7.711 -0.7581  0.4961  0.2498
  160SAPE  H13R17930   0.058   3.784   7.747  0.5101  0.3116 -3.0289
  160SAPE  H13S17931  -0.040   3.852   7.622 -0.6813 -2.1276 -1.8280
  160SAPE  C21417932  -0.088   3.651   7.658 -0.1681 -0.0139  0.0291
  160SAPE  H14R17933  -0.190   3.647   7.618 -0.2641  2.1339 -0.0487
  160SAPE  C21517934  -0.020   3.539   7.676 -0.3551  0.8797  0.1320
  160SAPE  H15R17935  -0.063   3.453   7.623 -0.6150  1.6606 -0.9429
  160SAPE  C21617936   0.116   3.514   7.735 -0.2475 -0.1961  0.4465
  160SAPE  H16R17937   0.193   3.588   7.704  1.5154 -2.4651 -0.9380
  160SAPE  H16S17938   0.157   3.426   7.681 -0.4527  0.7358 -1.2888
  160SAPE  C21717939   0.129   3.489   7.890 -0.4365 -0.1150 -0.9889
  160SAPE  H17R17940   0.060   3.563   7.937 -1.0285  0.1724 -2.2601
  160SAPE  H17S17941   0.230   3.511   7.929 -1.1488 -0.1003  0.9606
  160SAPE  C21817942   0.072   3.348   7.931 -0.4843  0.8368  0.6876
  160SAPE  H18R17943   0.132   3.283   7.864  1.3437  1.6231  1.4938
  160SAPE  H18S17944  -0.035   3.341   7.904 -0.5702 -0.5703  1.3000
  160SAPE  C21917945   0.104   3.308   8.078  0.2268  0.3430  0.3850
  160SAPE  H19R17946   0.067   3.393   8.139  0.1201  0.7911 -0.2967
  160SAPE  H19S17947   0.214   3.293   8.090  0.6581  0.5548 -2.5659
  160SAPE  C22017948   0.035   3.179   8.112  0.4889 -0.6083  0.4615
  160SAPE  H20R17949  -0.073   3.177   8.086  0.6292 -1.3351 -0.1063
  160SAPE  H20S17950   0.048   3.161   8.221 -0.1244 -1.4484  0.4057
  160SAPE  H20T17951   0.093   3.095   8.069  0.6405 -0.3758  0.2058
  160SAPE   C3317952  -0.379   4.513   6.949 -0.1750  0.8966 -0.1907
  160SAPE   H3X17953  -0.356   4.423   6.887 -1.7975  0.5813 -0.3686
  160SAPE   H3Y17954  -0.488   4.504   6.969 -0.3041 -0.3330 -1.2807
  160SAPE   C3417955  -0.311   4.500   7.090 -0.8936  0.4341 -0.4969
  160SAPE   H4X17956  -0.205   4.481   7.062 -1.0059 -0.8150 -0.1331
  160SAPE   H4Y17957  -0.347   4.408   7.141  2.7032 -1.0445 -0.3462
  160SAPE   C3517958  -0.338   4.626   7.172 -0.0796  0.5173 -0.2425
  160SAPE   H5X17959  -0.447   4.645   7.176 -0.1742  0.0038 -0.2700
  160SAPE   H5Y17960  -0.275   4.708   7.133  0.8564  0.1012  0.3554
  160SAPE   C3617961  -0.296   4.599   7.324 -0.3450 -0.7739 -0.1243
  160SAPE   H6X17962  -0.200   4.544   7.332  1.6010  2.2872 -0.5169
  160SAPE   H6Y17963  -0.377   4.543   7.375 -0.8648  0.8183  0.8773
  160SAPE   C3717964  -0.284   4.735   7.401 -0.0028  0.2871  0.5296
  160SAPE   H7X17965  -0.374   4.798   7.386 -0.1477  0.1833  0.9624
  160SAPE   H7Y17966  -0.203   4.795   7.355 -0.0727  0.0246  0.0557
  160SAPE   C3817967  -0.251   4.715   7.556  0.3051 -0.0601 -0.4662
  160SAPE   H8X17968  -0.304   4.632   7.607 -0.4791  0.0799 -1.0285
  160SAPE   H8Y17969  -0.270   4.801   7.624  0.9703 -2.4388  2.9771
  160SAPE   C3917970  -0.103   4.675   7.572  0.0446 -0.9238  0.1873
  160SAPE   H9X17971  -0.044   4.738   7.502  1.5973 -0.9959  1.3914
  160SAPE   H9Y17972  -0.077   4.573   7.536  0.0442 -1.7513  2.3978
  160SAPE  C31017973  -0.049   4.696   7.712  0.2749 -0.2346 -0.1607
  160SAPE  H10X17974  -0.099   4.634   7.789  1.3264 -1.3789 -0.3710
  160SAPE  H10Y17975  -0.051   4.802   7.747  0.2248 -0.7770  1.5679
  160SAPE  C31117976   0.103   4.643   7.717 -0.4019 -0.0143 -0.5474
  160SAPE  H11X17977   0.166   4.719   7.666 -0.7944 -0.8331 -2.3548
  160SAPE  H11Y17978   0.098   4.550   7.657 -4.8484  0.1699 -0.8458
  160SAPE  C31217979   0.147   4.620   7.859  0.1867 -0.2521 -0.4559
  160SAPE  H12X17980   0.250   4.580   7.841  0.7141  0.3434  1.1261
  160SAPE  H12Y17981   0.081   4.540   7.899 -0.0512  0.8410  1.4320
  160SAPE  C31317982   0.139   4.734   7.964  0.4880 -0.8654  0.0622
  160SAPE  H13X17983   0.039   4.767   7.999 -0.2858 -1.5373 -1.4326
  160SAPE  H13Y17984   0.174   4.827   7.914 -2.0455  0.5073  0.6472
  160SAPE  C31417985   0.218   4.697   8.097  0.6426  0.1967 -0.1644
  160SAPE  H14X17986   0.240   4.790   8.154  1.8389  0.8707 -1.6437
  160SAPE  H14Y17987   0.318   4.656   8.070 -0.1226 -2.1879  0.3768
  160SAPE  C31517988   0.137   4.607   8.195 -0.3104 -0.1913 -0.2179
  160SAPE  H15X17989   0.205   4.578   8.278 -0.2637  0.0089 -0.1839
  160SAPE  H15Y17990   0.129   4.511   8.140  3.1447 -1.0456  0.5532
  160SAPE  C31617991   0.002   4.668   8.250  0.3697 -0.2778  0.1482
  160SAPE  H16X17992  -0.064   4.704   8.168  0.4340 -1.0005 -0.2271
  160SAPE  H16Y17993   0.024   4.759   8.309 -4.1943  0.9398  0.3485
  160SAPE  C31717994  -0.070   4.563   8.332  0.3646 -0.8096 -0.0203
  160SAPE  H17X17995  -0.005   4.543   8.420  0.2264 -1.2484 -0.0169
  160SAPE  H17Y17996  -0.084   4.471   8.272 -3.5643 -0.0338 -0.5646
  160SAPE  C31817997  -0.206   4.616   8.383  0.1453  0.2394 -0.1521
  160SAPE  H18X17998  -0.263   4.641   8.292 -1.0503  0.9749  0.7733
  160SAPE  H18Y17999  -0.203   4.711   8.440 -0.5805  1.3693 -1.9309
  160SAPE  H18Z18000  -0.267   4.542   8.440  2.8023 -0.8708  1.4646
  161SAPE     N18001   2.016   2.791   6.399 -0.1411  0.2710  0.0036
  161SAPE   HN118002   1.975   2.767   6.491 -4.9922  3.7806 -0.8104
  161SAPE   HN218003   2.027   2.894   6.407  1.1449  0.2588 -1.1564
  161SAPE   HN318004   1.939   2.765   6.335  0.0302 -0.8826  0.2431
  161SAPE   C1218005   2.144   2.719   6.378  0.4860 -0.5360  0.2589
  161SAPE  H12A18006   2.206   2.728   6.470  0.6501 -1.0784  0.2005
  161SAPE  H12B18007   2.201   2.771   6.298 -1.2302  0.5325 -0.3170
  161SAPE   C1118008   2.098   2.577   6.343  0.5325  0.0739 -0.4599
  161SAPE  H11A18009   2.042   2.587   6.247 -0.8687 -0.0586  0.3161
  161SAPE  H11B18010   2.027   2.531   6.415  2.2891 -2.6863 -0.3287
  161SAPE     P18011   2.260   2.399   6.446 -0.0611 -0.1623  0.0748
  161SAPE   O1318012   2.137   2.325   6.480  0.5353  0.0186 -0.1934
  161SAPE   O1418013   2.391   2.326   6.418  1.1881  0.4624 -0.2166
  161SAPE   O1218014   2.217   2.499   6.319 -0.1751  0.2958  0.3125
  161SAPE   O1118015   2.293   2.496   6.563  0.6006 -0.0824 -0.4014
  161SAPE    C118016   2.221   2.497   6.685  0.4159 -0.2736 -0.1665
  161SAPE    HA18017   2.125   2.549   6.664 -0.1622 -1.2017  0.1353
  161SAPE    HB18018   2.193   2.391   6.699 -1.7934  0.3427  0.5848
  161SAPE    C218019   2.296   2.529   6.819  0.1090  0.5276 -0.0536
  161SAPE    HS18020   2.330   2.635   6.819 -0.3225  0.8166  3.7385
  161SAPE   O2118021   2.399   2.437   6.836  0.4758 -0.1457 -0.6424
  161SAPE   C2118022   2.512   2.470   6.778  0.4126  0.0527 -0.0701
  161SAPE   O2218023   2.523   2.560   6.701  0.2366 -0.0248  0.4742
  161SAPE   C2218024   2.629   2.387   6.832  0.1419  0.3491 -0.3423
  161SAPE   H2R18025   2.602   2.284   6.866 -0.3261  1.0723  1.5619
  161SAPE   H2S18026   2.691   2.365   6.742 -0.4317 -0.7347 -0.4998
  161SAPE    C318027   2.201   2.519   6.942  0.0782 -0.2492  0.1779
  161SAPE    HX18028   2.164   2.419   6.971  2.3284 -1.3273 -0.4063
  161SAPE    HY18029   2.113   2.586   6.934 -1.5426 -2.1802  1.0831
  161SAPE   O3118030   2.276   2.559   7.057  0.8055  0.8514  0.1068
  161SAPE   C3118031   2.278   2.687   7.089  0.7393  0.3034  0.2732
  161SAPE   O3218032   2.236   2.778   7.022 -0.5842 -0.0857 -0.4378
  161SAPE   C3218033   2.360   2.689   7.220 -0.0740 -0.3790  0.2067
  161SAPE   H2X18034   2.384   2.795   7.246 -0.7232 -0.2961  0.4999
  161SAPE   H2Y18035   2.454   2.633   7.204 -1.1193 -1.7344 -1.5146
  161SAPE   C2318036   2.717   2.465   6.933 -0.3484 -0.2577  0.3964
  161SAPE   H3R18037   2.726   2.573   6.910 -1.4808 -0.1826  0.2089
  161SAPE   H3S18038   2.819   2.423   6.930 -0.4774 -0.8172  2.4752
  161SAPE   C2418039   2.654   2.465   7.068 -0.6673 -0.0857  0.6957
  161SAPE   H4R18040   2.552   2.509   7.070 -0.1180  1.2288  0.5727
  161SAPE   H4S18041   2.718   2.529   7.132  1.4507 -3.4822  2.2779
  161SAPE   C2518042   2.639   2.329   7.136 -0.1450  0.9952  0.0605
  161SAPE   H5R18043   2.570   2.261   7.084 -0.1061 -0.6987  2.1085
  161SAPE   C2618044   2.695   2.284   7.249 -0.5966 -0.1893 -0.1512
  161SAPE   H6R18045   2.680   2.181   7.285 -0.4983  0.6573  2.5630
  161SAPE   C2718046   2.792   2.355   7.336 -0.5709 -0.4193 -0.2264
  161SAPE   H7R18047   2.865   2.415   7.277 -1.9432  0.3132 -1.2406
  161SAPE   H7S18048   2.852   2.287   7.400  2.0351 -0.6074 -2.6427
  161SAPE   C2818049   2.719   2.458   7.414 -0.3285  0.5092  0.2233
  161SAPE   H8R18050   2.692   2.552   7.363  0.0978  0.2694 -0.4519
  161SAPE   C2918051   2.703   2.451   7.549 -0.1546 -0.3154  0.1079
  161SAPE   H9R18052   2.651   2.529   7.607 -0.4010 -0.2985 -0.1329
  161SAPE  C21018053   2.755   2.336   7.631 -0.0072  0.2607  0.2595
  161SAPE  H10R18054   2.866   2.340   7.625 -0.0968  2.9954 -2.2795
  161SAPE  H10S18055   2.727   2.246   7.573  0.3923  1.0905 -1.2904
  161SAPE  C21118056   2.700   2.325   7.770 -0.6593  0.3648 -0.0809
  161SAPE  H11R18057   2.592   2.312   7.789 -0.5821  1.8622  1.5694
  161SAPE  C21218058   2.776   2.328   7.882 -0.2296 -0.7233 -0.1316
  161SAPE  H12R18059   2.715   2.297   7.968 -1.2217  0.8999 -0.2162
  161SAPE  C21318060   2.926   2.326   7.901 -0.7362  0.5814 -0.3463
  161SAPE  H13R18061   2.985   2.325   7.807  0.1833 -3.3808  0.1016
  161SAPE  H13S18062   2.958   2.230   7.947  1.7244  1.2108 -0.6325
  161SAPE  C21418063   2.965   2.438   7.994  0.0066  0.4242  0.4308
  161SAPE  H14R18064   2.997   2.528   7.941  0.1193  0.9624  1.3833
  161SAPE  C21518065   2.981   2.429   8.126  0.1457 -0.1867 -0.1745
  161SAPE  H15R18066   3.012   2.517   8.185 -0.5414  1.8440 -2.6664
  161SAPE  C21618067   2.956   2.301   8.210 -0.4760  0.1362 -0.9036
  161SAPE  H16R18068   3.058   2.275   8.245  0.0793  2.8361 -0.2613
  161SAPE  H16S18069   2.903   2.216   8.162  0.8665 -1.7891  0.8445
  161SAPE  C21718070   2.874   2.325   8.334  0.8426  0.0502  0.4477
  161SAPE  H17R18071   2.768   2.344   8.309  0.7893  0.7889  1.2362
  161SAPE  H17S18072   2.895   2.420   8.386 -1.7273 -0.7587  3.1931
  161SAPE  C21818073   2.876   2.221   8.443 -0.5208 -0.7936  0.5481
  161SAPE  H18R18074   2.821   2.261   8.530  0.0838 -0.7955  0.9381
  161SAPE  H18S18075   2.981   2.219   8.480 -0.7975  3.0289  1.9711
  161SAPE  C21918076   2.820   2.086   8.407  0.3156  0.2433 -0.5454
  161SAPE  H19R18077   2.875   2.030   8.329 -0.2871  1.1365 -1.6526
  161SAPE  H19S18078   2.723   2.106   8.358  0.0435 -1.1846 -0.6147
  161SAPE  C22018079   2.800   1.994   8.527  0.1323  0.7988  0.4814
  161SAPE  H20R18080   2.748   2.047   8.610 -1.7914  0.3142 -0.3536
  161SAPE  H20S18081   2.901   1.957   8.556 -0.2415  1.0338  2.1757
  161SAPE  H20T18082   2.753   1.903   8.485 -0.6686 -0.0904  3.1513
  161SAPE   C3318083   2.292   2.628   7.340 -0.2850  0.0329  0.5484
  161SAPE   H3X18084   2.273   2.524   7.306  0.9530 -1.2807  3.5286
  161SAPE   H3Y18085   2.198   2.679   7.369  0.2780  1.9434 -0.7174
  161SAPE   C3418086   2.381   2.642   7.475  1.1978  0.2454  0.3238
  161SAPE   H4X18087   2.379   2.749   7.507 -1.5160 -0.3462  2.5235
  161SAPE   H4Y18088   2.486   2.613   7.453  0.7085 -1.4229  0.0472
  161SAPE   C3518089   2.320   2.549   7.582 -0.4516  0.1481  0.6140
  161SAPE   H5X18090   2.335   2.443   7.553  1.5491  0.8240 -1.0753
  161SAPE   H5Y18091   2.212   2.575   7.589 -0.2141  1.0279  1.2967
  161SAPE   C3618092   2.385   2.571   7.725 -0.4977 -0.2006 -0.3909
  161SAPE   H6X18093   2.386   2.680   7.746 -2.6153 -0.1782 -0.1999
  161SAPE   H6Y18094   2.485   2.525   7.731 -0.1228  0.2806 -2.1456
  161SAPE   C3718095   2.296   2.505   7.835  0.0292  0.6098 -0.8397
  161SAPE   H7X18096   2.311   2.396   7.821 -0.2225  0.2103  1.5764
  161SAPE   H7Y18097   2.188   2.533   7.831  0.3175  1.6804 -1.6208
  161SAPE   C3818098   2.336   2.545   7.986  0.5308 -0.2235 -0.9849
  161SAPE   H8X18099   2.289   2.644   8.001  1.5518  0.0112  0.9612
  161SAPE   H8Y18100   2.446   2.555   7.994  0.4538  0.2981 -0.5656
  161SAPE   C3918101   2.277   2.451   8.088  0.0619  0.2404  0.7900
  161SAPE   H9X18102   2.317   2.348   8.074 -0.2639  0.5146 -3.1816
  161SAPE   H9Y18103   2.168   2.454   8.069  0.1884 -0.7490 -0.2028
  161SAPE  C31018104   2.292   2.502   8.225 -0.4152  0.2430 -0.2132
  161SAPE  H10X18105   2.198   2.468   8.275 -0.2675 -0.7652 -0.5929
  161SAPE  H10Y18106   2.316   2.610   8.230  2.1799 -0.1792 -1.9278
  161SAPE  C31118107   2.395   2.431   8.310 -0.2311 -0.0968 -0.4643
  161SAPE  H11X18108   2.488   2.492   8.298 -0.8346  1.1749  0.9547
  161SAPE  H11Y18109   2.418   2.326   8.284  0.6999 -0.0778  0.2130
  161SAPE  C31218110   2.367   2.437   8.464 -0.6774  0.3495 -0.8982
  161SAPE  H12X18111   2.268   2.392   8.484 -0.8628  0.4186 -1.6110
  161SAPE  H12Y18112   2.353   2.546   8.484 -0.7978  0.1384  0.1783
  161SAPE  C31318113   2.475   2.382   8.559 -0.2485 -0.9986  0.5100
  161SAPE  H13X18114   2.581   2.407   8.538 -0.3739 -1.4582 -0.7424
  161SAPE  H13Y18115   2.479   2.272   8.545  0.2074 -1.2594  2.4676
  161SAPE  C31418116   2.451   2.418   8.706 -0.7681  0.1978 -0.1392
  161SAPE  H14X18117   2.353   2.372   8.727 -0.7270 -0.7916 -1.9347
  161SAPE  H14Y18118   2.432   2.528   8.712  0.3784  0.4046  0.0884
  161SAPE  C31518119   2.563   2.367   8.794 -0.2241  1.0112  0.0761
  161SAPE  H15X18120   2.603   2.271   8.755  1.6665  1.4284  0.8438
  161SAPE  H15Y18121   2.534   2.344   8.899  1.9579  1.8989  0.9472
  161SAPE  C31618122   2.683   2.467   8.797 -0.0452  0.4219  0.4242
  161SAPE  H16X18123   2.654   2.574   8.808 -0.2514  0.4414 -0.2732
  161SAPE  H16Y18124   2.722   2.469   8.693 -0.9942  0.5876  0.0629
  161SAPE  C31718125   2.800   2.419   8.894  0.2286  0.5203 -0.1019
  161SAPE  H17X18126   2.769   2.420   9.001  1.0521 -2.5466  0.2685
  161SAPE  H17Y18127   2.872   2.497   8.863 -1.0533  0.9301 -2.2933
  161SAPE  C31818128   2.866   2.284   8.860 -0.5157  0.5210 -0.2714
  161SAPE  H18X18129   2.800   2.198   8.838  0.1501 -0.4683  1.4197
  161SAPE  H18Y18130   2.939   2.260   8.940 -2.2778  0.6846  1.4637
  161SAPE  H18Z18131   2.928   2.289   8.768 -0.3519  0.8444 -0.1464
  162SAPE     N18132   0.912   4.941   6.074  0.0241 -0.2964  0.0749
  162SAPE   HN118133   0.865   4.891   6.153  1.6980 -2.3626 -0.1314
  162SAPE   HN218134   0.845   4.947   5.995  0.7526 -0.8279 -0.5988
  162SAPE   HN318135   0.994   4.885   6.042 -0.4308  0.0032 -1.7206
  162SAPE   C1218136   0.977   5.076   6.105 -0.5070  0.2232  0.3989
  162SAPE  H12A18137   0.908   5.132   6.172 -1.4756 -0.1073 -0.2905
  162SAPE  H12B18138   0.985   5.121   6.004  0.7703 -1.1313 -0.1443
  162SAPE   C1118139   1.115   5.070   6.175  0.7357 -0.2976 -0.9767
  162SAPE  H11A18140   1.179   5.025   6.096  0.2944  1.3150 -2.3030
  162SAPE  H11B18141   1.120   4.999   6.261  1.6374  0.2511 -0.5662
  162SAPE     P18142   1.316   5.210   6.268 -0.0529  0.3246  0.2135
  162SAPE   O1318143   1.339   5.107   6.374 -0.3955 -0.8572 -0.0545
  162SAPE   O1418144   1.417   5.188   6.158 -0.0278 -0.8423 -0.2371
  162SAPE   O1218145   1.170   5.194   6.222 -0.1704  0.3521 -0.2067
  162SAPE   O1118146   1.324   5.346   6.332 -0.0727  0.4124  0.6097
  162SAPE    C118147   1.208   5.409   6.383 -0.0300 -0.0996 -1.1146
  162SAPE    HA18148   1.222   5.516   6.357 -1.0100  0.4687  0.4970
  162SAPE    HB18149   1.115   5.389   6.326 -0.3301  0.9884 -1.0400
  162SAPE    C218150   1.186   5.402   6.536  0.0571 -0.7304  0.1313
  162SAPE    HS18151   1.111   5.481   6.555 -0.9190 -2.1105  2.4094
  162SAPE   O2118152   1.319   5.419   6.604  0.4214  0.5375  0.0298
  162SAPE   C2118153   1.345   5.541   6.638 -0.9840 -0.4541  1.4181
  162SAPE   O2218154   1.289   5.644   6.608 -0.2715  0.0493  0.3905
  162SAPE   C2218155   1.481   5.547   6.711 -0.0382  0.5887  0.3043
  162SAPE   H2R18156   1.555   5.490   6.652  1.6055  2.2632  0.6472
  162SAPE   H2S18157   1.518   5.652   6.711  1.4696  0.3236 -4.7364
  162SAPE    C318158   1.119   5.260   6.580 -0.0052 -0.1489 -0.0450
  162SAPE    HX18159   1.200   5.187   6.562  2.5363  1.8121  2.5043
  162SAPE    HY18160   1.026   5.242   6.521 -1.3632 -0.2398  2.0072
  162SAPE   O3118161   1.067   5.272   6.726  0.0883 -0.5670  0.2167
  162SAPE   C3118162   1.145   5.218   6.817  0.4468 -0.0223  0.3112
  162SAPE   O3218163   1.245   5.149   6.797 -0.1470  0.1229  0.3858
  162SAPE   C3218164   1.090   5.250   6.960  0.5561  0.3012  0.0849
  162SAPE   H2X18165   0.995   5.193   6.972  0.7760 -0.3440 -1.0624
  162SAPE   H2Y18166   1.063   5.358   6.960  1.6179  0.5828 -0.7123
  162SAPE   C2318167   1.457   5.503   6.854 -0.2072 -0.8363  0.5977
  162SAPE   H3R18168   1.381   5.423   6.858 -0.6611 -0.4730 -0.5949
  162SAPE   H3S18169   1.407   5.587   6.906  1.1191  0.9014 -0.8285
  162SAPE   C2418170   1.583   5.452   6.928  0.2614  0.3703 -0.2949
  162SAPE   H4R18171   1.619   5.383   6.849  1.1427  3.2122 -2.5455
  162SAPE   H4S18172   1.544   5.400   7.019 -1.1209  1.8555 -0.0146
  162SAPE   C2518173   1.687   5.564   6.955  0.6127  0.9227 -0.5368
  162SAPE   H5R18174   1.723   5.607   6.860 -3.5813  0.9491 -2.3406
  162SAPE   C2618175   1.739   5.606   7.070 -0.4609 -0.4427  0.0092
  162SAPE   H6R18176   1.830   5.666   7.053 -0.2007 -0.9004 -0.2313
  162SAPE   C2718177   1.707   5.569   7.210 -0.6084  0.0879 -0.1092
  162SAPE   H7R18178   1.770   5.623   7.285  2.3964 -3.2290  0.0391
  162SAPE   H7S18179   1.734   5.465   7.239  0.4077 -0.3840 -2.4585
  162SAPE   C2818180   1.566   5.599   7.236  0.0138 -0.5895 -0.1537
  162SAPE   H8R18181   1.506   5.628   7.148 -0.5221  0.2614  0.4844
  162SAPE   C2918182   1.514   5.597   7.360  0.3299 -0.5554  0.1747
  162SAPE   H9R18183   1.415   5.638   7.384  0.1979 -1.8886  2.1466
  162SAPE  C21018184   1.593   5.563   7.488  1.0080 -0.3557 -0.9587
  162SAPE  H10R18185   1.529   5.604   7.569  0.0224  2.8607 -3.1775
  162SAPE  H10S18186   1.683   5.627   7.477  0.5432  0.2372 -1.4152
  162SAPE  C21118187   1.644   5.423   7.508 -0.8109 -0.6122 -0.6637
  162SAPE  H11R18188   1.642   5.351   7.425  1.8463 -0.8085 -0.6470
  162SAPE  C21218189   1.709   5.376   7.624  0.7405  0.2987  0.2184
  162SAPE  H12R18190   1.760   5.278   7.630  1.6565  0.6507 -1.2524
  162SAPE  C21318191   1.728   5.461   7.747 -0.2791  0.1085  0.3016
  162SAPE  H13R18192   1.732   5.570   7.728 -0.1170  0.1443  0.5509
  162SAPE  H13S18193   1.832   5.434   7.775 -0.1788  1.3066  1.1178
  162SAPE  C21418194   1.612   5.436   7.850 -0.2182 -0.3058  0.2279
  162SAPE  H14R18195   1.514   5.411   7.808  0.5938 -0.4921 -1.6832
  162SAPE  C21518196   1.619   5.469   7.977 -0.3180 -0.7123 -0.0806
  162SAPE  H15R18197   1.540   5.431   8.043 -0.1434 -1.2819 -0.1980
  162SAPE  C21618198   1.745   5.525   8.038 -0.4217 -0.5320 -0.2112
  162SAPE  H16R18199   1.838   5.509   7.979  0.0125 -0.4210  0.4256
  162SAPE  H16S18200   1.755   5.476   8.137 -1.3605  0.1220  0.2206
  162SAPE  C21718201   1.732   5.678   8.060  0.2291 -0.3327 -0.0533
  162SAPE  H17R18202   1.699   5.717   7.961 -0.0918  1.2118  0.6354
  162SAPE  H17S18203   1.831   5.718   8.090  0.6237 -1.0108 -0.4282
  162SAPE  C21818204   1.615   5.712   8.161 -0.2376 -0.3029  0.2390
  162SAPE  H18R18205   1.626   5.648   8.251 -0.9591 -1.0426 -0.1896
  162SAPE  H18S18206   1.518   5.709   8.108  1.6183 -1.8823 -3.4500
  162SAPE  C21918207   1.618   5.859   8.206 -0.4636  0.9395 -0.3660
  162SAPE  H19R18208   1.638   5.926   8.120  0.9763  0.0915 -0.7238
  162SAPE  H19S18209   1.696   5.874   8.284 -0.9838  0.2024  0.3190
  162SAPE  C22018210   1.486   5.893   8.274 -0.3332 -0.0802  0.0416
  162SAPE  H20R18211   1.460   5.817   8.351 -0.9409 -0.0826 -0.1568
  162SAPE  H20S18212   1.411   5.890   8.192  1.6833 -0.6839 -1.8767
  162SAPE  H20T18213   1.481   5.993   8.322 -0.8694  0.0992 -0.3770
  162SAPE   C3318214   1.191   5.238   7.076 -0.4051 -0.2637  0.5794
  162SAPE   H3X18215   1.269   5.314   7.054 -1.9436  1.3620  0.4974
  162SAPE   H3Y18216   1.235   5.136   7.076 -0.6662 -0.3888 -0.4977
  162SAPE   C3418217   1.130   5.288   7.208  0.0775 -0.1839  0.0326
  162SAPE   H4X18218   1.059   5.215   7.252  0.4255  0.8287  2.4380
  162SAPE   H4Y18219   1.065   5.375   7.187 -0.4428 -0.5446  0.1268
  162SAPE   C3518220   1.221   5.311   7.328 -0.9703 -0.1821 -1.5292
  162SAPE   H5X18221   1.315   5.365   7.304  0.1122 -2.0108 -1.5897
  162SAPE   H5Y18222   1.244   5.209   7.367 -1.6151 -0.3757 -1.6386
  162SAPE   C3618223   1.159   5.400   7.442  0.0753  0.3053  0.8473
  162SAPE   H6X18224   1.061   5.363   7.480 -0.1935  0.9558  0.8091
  162SAPE   H6Y18225   1.139   5.498   7.394  1.6023 -0.7817 -2.2710
  162SAPE   C3718226   1.257   5.414   7.560 -0.5593 -0.8059  0.0051
  162SAPE   H7X18227   1.342   5.480   7.529  1.9078 -4.1463 -0.8933
  162SAPE   H7Y18228   1.299   5.315   7.587 -0.4295 -0.8093 -0.2034
  162SAPE   C3818229   1.181   5.491   7.676 -0.2881  0.6120  0.0289
  162SAPE   H8X18230   1.102   5.425   7.718  1.1032 -0.5379  0.9613
  162SAPE   H8Y18231   1.136   5.582   7.632  0.0876  0.6656 -0.2534
  162SAPE   C3918232   1.269   5.529   7.799  0.3813  0.2104  1.2525
  162SAPE   H9X18233   1.352   5.596   7.767  1.6392 -0.4266  3.0072
  162SAPE   H9Y18234   1.312   5.443   7.855  0.0516 -1.5172 -0.9956
  162SAPE  C31018235   1.191   5.625   7.888 -0.2926  0.3819 -0.1515
  162SAPE  H10X18236   1.092   5.587   7.923 -1.2242  0.3907 -2.5390
  162SAPE  H10Y18237   1.163   5.705   7.816 -1.4798  1.3315  1.3114
  162SAPE  C31118238   1.264   5.696   8.002 -0.6184  0.2132  0.2546
  162SAPE  H11X18239   1.347   5.753   7.957 -0.7366 -0.3077 -0.6334
  162SAPE  H11Y18240   1.299   5.620   8.076 -0.1346 -0.4254 -0.6186
  162SAPE  C31218241   1.173   5.798   8.067  0.2727  0.4267  0.0756
  162SAPE  H12X18242   1.130   5.853   7.981  0.1854 -0.6738 -0.6076
  162SAPE  H12Y18243   1.223   5.869   8.136 -0.2499  1.0097 -0.1388
  162SAPE  C31318244   1.068   5.738   8.163  0.0205  0.1371 -0.0034
  162SAPE  H13X18245   1.111   5.667   8.236  1.5753 -1.2477 -2.1723
  162SAPE  H13Y18246   0.992   5.682   8.104  0.5064  0.0397 -0.5332
  162SAPE  C31418247   0.996   5.848   8.243 -0.3672  0.3342 -0.1163
  162SAPE  H14X18248   1.073   5.910   8.294  0.4993  1.5707 -2.7304
  162SAPE  H14Y18249   0.942   5.800   8.327 -0.4378  0.2686 -0.1985
  162SAPE  C31518250   0.892   5.927   8.158  0.0109  0.0533  0.2915
  162SAPE  H15X18251   0.831   5.847   8.111  0.0264  0.5226 -0.5427
  162SAPE  H15Y18252   0.934   5.990   8.076 -0.7293 -1.6318 -1.4440
  162SAPE  C31618253   0.793   6.009   8.247  0.4000 -0.3498 -0.2452
  162SAPE  H16X18254   0.792   5.970   8.351  0.7387 -0.0332 -0.1203
  162SAPE  H16Y18255   0.698   6.008   8.189 -0.0785  1.7895  0.4124
  162SAPE  C31718256   0.813   6.161   8.263 -0.5038  0.1316  0.1409
  162SAPE  H17X18257   0.920   6.180   8.289 -0.7360  1.4541  0.1971
  162SAPE  H17Y18258   0.748   6.197   8.345 -3.2223  2.2175 -2.6800
  162SAPE  C31818259   0.788   6.241   8.141  0.7135 -0.2759  0.2256
  162SAPE  H18X18260   0.692   6.205   8.100  0.8339 -0.6366  0.2539
  162SAPE  H18Y18261   0.858   6.220   8.057  0.5363 -3.8325  0.8038
  162SAPE  H18Z18262   0.764   6.349   8.151 -1.2320 -0.4958 -1.4480
  163SAPE     N18263   0.552   3.442   6.709  0.2459  0.5739  0.7809
  163SAPE   HN118264   0.630   3.498   6.669 -1.5731  1.2639 -2.1280
  163SAPE   HN218265   0.565   3.445   6.812  0.4230  0.0478  0.7774
  163SAPE   HN318266   0.561   3.343   6.677  0.9138  0.7978  0.2515
  163SAPE   C1218267   0.421   3.493   6.672 -0.2174 -0.7907  0.0067
  163SAPE  H12A18268   0.347   3.453   6.745 -0.8517 -2.9243 -1.7119
  163SAPE  H12B18269   0.408   3.465   6.565 -0.9787  0.7961 -0.3464
  163SAPE   C1118270   0.427   3.646   6.684  0.2099  0.0842 -0.1764
  163SAPE  H11A18271   0.449   3.691   6.783  0.2539  0.1009 -0.1938
  163SAPE  H11B18272   0.324   3.681   6.663  0.5510  0.9057 -0.5389
  163SAPE     P18273   0.529   3.853   6.559 -0.3035 -0.0634 -0.2548
  163SAPE   O1318274   0.648   3.891   6.482 -0.3911  0.4161 -0.2520
  163SAPE   O1418275   0.396   3.910   6.505 -0.0013 -0.2387  0.2765
  163SAPE   O1218276   0.522   3.699   6.586  0.0053 -0.1774 -0.1591
  163SAPE   O1118277   0.538   3.922   6.706  0.3649  0.3958 -0.1264
  163SAPE    C118278   0.671   3.948   6.759  0.1237  0.4262 -0.5062
  163SAPE    HA18279   0.753   3.888   6.712 -1.8000 -2.2211 -0.7253
  163SAPE    HB18280   0.692   4.056   6.748 -0.7809  0.5907 -0.6880
  163SAPE    C218281   0.688   3.919   6.914  0.2248  0.0862 -0.0856
  163SAPE    HS18282   0.710   3.813   6.938  0.8631  0.7081  2.3266
  163SAPE   O2118283   0.571   3.963   6.984  0.2739 -0.2883  0.2338
  163SAPE   C2118284   0.480   3.865   7.020 -0.1367 -0.2266 -0.6650
  163SAPE   O2218285   0.513   3.746   7.027 -0.1223  0.1633  0.4327
  163SAPE   C2218286   0.348   3.930   7.062  0.7378 -0.3415  0.6047
  163SAPE   H2R18287   0.365   4.036   7.089 -0.6176  0.3955 -1.2059
  163SAPE   H2S18288   0.288   3.931   6.968 -2.3622  1.8493  2.4095
  163SAPE    C318289   0.811   4.008   6.957  0.3178 -0.8841 -0.8985
  163SAPE    HX18290   0.786   4.115   6.940  0.0356 -0.7838  0.0885
  163SAPE    HY18291   0.901   3.999   6.892  1.9800  0.7229  1.0173
  163SAPE   O3118292   0.856   3.995   7.096 -0.1331 -0.0117 -0.0458
  163SAPE   C3118293   0.893   3.879   7.129 -0.5620  0.4311 -0.5636
  163SAPE   O3218294   0.925   3.785   7.055 -0.6677  0.4738  0.0198
  163SAPE   C3218295   0.882   3.869   7.285 -0.0850  0.8876  0.1746
  163SAPE   H2X18296   0.890   3.974   7.318  0.3704  0.9349 -0.0698
  163SAPE   H2Y18297   0.972   3.811   7.315 -0.4869 -0.3932 -0.9807
  163SAPE   C2318298   0.274   3.851   7.172 -0.0623 -0.6213 -0.4989
  163SAPE   H3R18299   0.265   3.748   7.131  1.4923 -1.5899  1.4238
  163SAPE   H3S18300   0.170   3.888   7.181  0.0694  0.0725 -1.6743
  163SAPE   C2418301   0.335   3.851   7.311  0.1580 -0.7125 -0.5576
  163SAPE   H4R18302   0.335   3.959   7.339  1.6716 -0.7446 -0.3744
  163SAPE   H4S18303   0.436   3.806   7.313  1.1233  1.3663  0.9339
  163SAPE   C2518304   0.241   3.778   7.403 -0.3740 -0.7333 -0.2244
  163SAPE   H5R18305   0.164   3.839   7.452 -0.9107 -1.3451 -0.2976
  163SAPE   C2618306   0.233   3.643   7.416 -0.0009 -0.0979  0.1417
  163SAPE   H6R18307   0.146   3.605   7.471  0.5010 -0.8799  0.3991
  163SAPE   C2718308   0.321   3.542   7.343 -0.4061  0.0522 -0.2448
  163SAPE   H7R18309   0.306   3.549   7.233  0.4001 -0.5753 -0.4077
  163SAPE   H7S18310   0.287   3.438   7.364 -2.9677  0.7688 -0.5769
  163SAPE   C2818311   0.474   3.547   7.369  0.0895  0.5680 -0.3355
  163SAPE   H8R18312   0.533   3.621   7.314  1.2911 -1.3325 -1.7138
  163SAPE   C2918313   0.550   3.478   7.457  0.3082 -0.5225 -0.4898
  163SAPE   H9R18314   0.655   3.505   7.473 -0.1560  0.0249  1.9572
  163SAPE  C21018315   0.497   3.373   7.557 -0.0632  0.1892 -0.1831
  163SAPE  H10R18316   0.554   3.278   7.556 -1.6201 -0.7865  0.0712
  163SAPE  H10S18317   0.390   3.360   7.531 -0.1683 -1.3854  0.8823
  163SAPE  C21118318   0.488   3.424   7.697 -0.5645  0.0142  0.4707
  163SAPE  H11R18319   0.490   3.532   7.715 -0.6880  0.0707  0.1532
  163SAPE  C21218320   0.500   3.339   7.805  0.3104  0.5382  0.4727
  163SAPE  H12R18321   0.502   3.380   7.907  1.3830  2.6519 -0.3395
  163SAPE  C21318322   0.495   3.191   7.801  0.0326  0.0794  0.3938
  163SAPE  H13R18323   0.413   3.165   7.731  1.2734  0.8815 -1.4283
  163SAPE  H13S18324   0.443   3.163   7.895 -1.0277  2.1335  0.4581
  163SAPE  C21418325   0.619   3.098   7.777  0.7550  0.1692 -0.3171
  163SAPE  H14R18326   0.691   3.149   7.711 -0.6162  2.6549 -0.0139
  163SAPE  C21518327   0.646   2.977   7.825  0.0369  0.7050 -0.1438
  163SAPE  H15R18328   0.729   2.922   7.778 -1.1491  0.2480 -1.7528
  163SAPE  C21618329   0.553   2.896   7.920 -0.3427 -0.3284 -0.0614
  163SAPE  H16R18330   0.548   2.791   7.886 -1.9292 -0.5114  0.6321
  163SAPE  H16S18331   0.447   2.931   7.920  0.6218  2.9826 -1.2783
  163SAPE  C21718332   0.609   2.889   8.061  0.0195  0.1670  0.0235
  163SAPE  H17R18333   0.628   2.995   8.087 -0.8603  0.8673 -1.9528
  163SAPE  H17S18334   0.703   2.831   8.062 -0.2763 -0.3940  2.5543
  163SAPE  C21818335   0.521   2.815   8.155  0.0984  0.6480 -0.1307
  163SAPE  H18R18336   0.502   2.719   8.103  0.7164 -0.8385  2.2046
  163SAPE  H18S18337   0.422   2.864   8.162 -0.5501 -0.4922 -0.8634
  163SAPE  C21918338   0.572   2.793   8.292 -0.0682 -0.3798 -0.3066
  163SAPE  H19R18339   0.600   2.890   8.339  0.2575 -1.0550  0.9122
  163SAPE  H19S18340   0.658   2.726   8.276  1.2328  1.4472 -1.4083
  163SAPE  C22018341   0.471   2.733   8.389 -0.1433 -0.0015  0.4456
  163SAPE  H20R18342   0.389   2.807   8.403 -0.9987 -0.7752 -0.3311
  163SAPE  H20S18343   0.522   2.694   8.480  0.7908  1.8302  0.7587
  163SAPE  H20T18344   0.410   2.660   8.333 -1.3538  2.1735 -1.2552
  163SAPE   C3318345   0.750   3.819   7.345 -0.0399  0.0835  0.2993
  163SAPE   H3X18346   0.728   3.713   7.321  0.7179  0.4577 -2.5080
  163SAPE   H3Y18347   0.666   3.865   7.289 -0.0507 -1.0686 -0.6683
  163SAPE   C3418348   0.753   3.831   7.493 -0.4582 -0.3584 -0.1886
  163SAPE   H4X18349   0.783   3.936   7.515 -2.7918  0.5397 -1.0822
  163SAPE   H4Y18350   0.821   3.756   7.539  0.7319  0.2751 -0.8595
  163SAPE   C3518351   0.611   3.817   7.557  0.2868  0.1969  0.0385
  163SAPE   H5X18352   0.578   3.711   7.548  2.7744 -0.5437 -1.0315
  163SAPE   H5Y18353   0.537   3.876   7.498  0.6805  0.5628 -0.0917
  163SAPE   C3618354   0.612   3.861   7.705 -0.6053  0.2270  0.3842
  163SAPE   H6X18355   0.646   3.967   7.710  1.8355 -0.5240  0.8646
  163SAPE   H6Y18356   0.685   3.799   7.760 -2.0725 -1.3075  0.6915
  163SAPE   C3718357   0.477   3.839   7.776 -0.1993  0.0856  0.2236
  163SAPE   H7X18358   0.436   3.745   7.734 -0.0142 -0.2630  0.8013
  163SAPE   H7Y18359   0.405   3.922   7.766  0.0004  0.2174 -0.1324
  163SAPE   C3818360   0.492   3.808   7.930  0.2003 -0.4203  0.4404
  163SAPE   H8X18361   0.540   3.888   7.991  0.4845  1.9234 -2.5893
  163SAPE   H8Y18362   0.563   3.722   7.931 -2.1763 -2.5064 -0.3574
  163SAPE   C3918363   0.360   3.765   8.000  0.3007  0.3711  0.0968
  163SAPE   H9X18364   0.369   3.696   8.087 -2.9346 -0.2512  0.0512
  163SAPE   H9Y18365   0.299   3.707   7.927  1.2539  0.9561 -1.2073
  163SAPE  C31018366   0.270   3.877   8.047 -0.8643 -0.6100  0.1484
  163SAPE  H10X18367   0.225   3.930   7.960 -1.0561 -0.8057  0.1277
  163SAPE  H10Y18368   0.323   3.958   8.100 -0.5904 -1.0677  0.5878
  163SAPE  C31118369   0.148   3.823   8.132  0.5559  0.2612  0.2133
  163SAPE  H11X18370   0.173   3.780   8.232  0.4767 -0.0671  0.0932
  163SAPE  H11Y18371   0.099   3.741   8.076  0.9554 -1.4696  2.2294
  163SAPE  C31218372   0.040   3.931   8.162  0.8180  0.3998  0.0103
  163SAPE  H12X18373   0.003   3.991   8.076 -2.1250 -1.4162 -0.1047
  163SAPE  H12Y18374   0.086   4.001   8.235  0.7348  0.4483  0.0167
  163SAPE  C31318375  -0.096   3.871   8.210  0.3970 -0.2652  0.7023
  163SAPE  H13X18376  -0.081   3.786   8.280 -1.2671 -0.6753  0.6166
  163SAPE  H13Y18377  -0.134   3.824   8.117 -0.3346  0.0886  0.8097
  163SAPE  C31418378  -0.199   3.973   8.257  0.0078 -0.3564 -0.0079
  163SAPE  H14X18379  -0.293   3.916   8.274  0.3254 -0.5068  1.3613
  163SAPE  H14Y18380  -0.211   4.045   8.173 -0.3609  0.8918  1.0800
  163SAPE  C31518381  -0.156   4.060   8.384 -0.5033  0.3788  0.1776
  163SAPE  H15X18382  -0.061   4.117   8.371 -0.9048  1.0574  0.1955
  163SAPE  H15Y18383  -0.144   3.995   8.474  2.3126  1.8942  1.0422
  163SAPE  C31618384  -0.257   4.164   8.427  0.4654  0.2281 -0.1631
  163SAPE  H16X18385  -0.360   4.123   8.425 -0.1072  1.6376 -1.6382
  163SAPE  H16Y18386  -0.263   4.251   8.359 -2.7123 -0.5904 -1.0914
  163SAPE  C31718387  -0.224   4.228   8.559 -0.0809  0.0142  0.1286
  163SAPE  H17X18388  -0.135   4.294   8.553  0.9257 -1.2707  0.6731
  163SAPE  H17Y18389  -0.204   4.142   8.625 -1.1752 -2.6244 -2.7051
  163SAPE  C31818390  -0.342   4.310   8.621 -0.0080  0.4657  0.6896
  163SAPE  H18X18391  -0.372   4.397   8.560 -1.4894 -1.0580 -0.8475
  163SAPE  H18Y18392  -0.307   4.342   8.722  0.5902  2.4150 -0.0849
  163SAPE  H18Z18393  -0.428   4.242   8.637  0.8721 -0.8519  0.0428
  164SAPE     N18394   3.310   6.078   6.125 -0.0847 -0.8256  0.1468
  164SAPE   HN118395   3.383   6.118   6.187 -0.8728  0.3835  0.3229
  164SAPE   HN218396   3.333   5.978   6.111 -2.8061 -1.4548 -0.4211
  164SAPE   HN318397   3.324   6.116   6.029  1.0174 -1.1717  0.1519
  164SAPE   C1218398   3.173   6.102   6.178  0.2152 -0.4276  0.2760
  164SAPE  H12A18399   3.177   6.189   6.247  1.4689 -2.3475  2.7836
  164SAPE  H12B18400   3.149   6.014   6.241  0.6367  0.3103  1.5341
  164SAPE   C1118401   3.066   6.122   6.073  0.3898 -0.1263 -0.7862
  164SAPE  H11A18402   2.960   6.119   6.106  0.8537 -0.0411  0.7944
  164SAPE  H11B18403   3.077   6.031   6.010 -0.0209  0.3308 -1.5223
  164SAPE     P18404   3.040   6.369   6.023  0.2836 -0.5494 -0.5965
  164SAPE   O1318405   3.151   6.458   6.065  0.1462  0.2395  0.0725
  164SAPE   O1418406   2.953   6.422   5.911  0.2380  0.1569 -0.3004
  164SAPE   O1218407   3.093   6.226   5.977  0.0548 -0.1518 -0.2846
  164SAPE   O1118408   2.947   6.348   6.146 -0.7772  0.2466 -0.1192
  164SAPE    C118409   2.877   6.457   6.209 -0.3353  0.6717 -0.3587
  164SAPE    HA18410   2.946   6.543   6.227 -0.3938  0.6849 -0.1989
  164SAPE    HB18411   2.800   6.503   6.145 -1.2712 -0.0006  0.2559
  164SAPE    C218412   2.816   6.417   6.354 -0.4889 -0.1332 -0.0644
  164SAPE    HS18413   2.778   6.314   6.336 -1.3644  0.2434 -0.4145
  164SAPE   O2118414   2.711   6.510   6.388 -0.0554  0.4555 -0.2588
  164SAPE   C2118415   2.590   6.477   6.361 -0.0804 -0.5673  0.5266
  164SAPE   O2218416   2.551   6.379   6.301 -0.5816 -0.9767  0.1559
  164SAPE   C2218417   2.500   6.577   6.434  0.5125  0.3332 -0.2461
  164SAPE   H2R18418   2.518   6.573   6.544  2.9194 -2.5130 -0.5991
  164SAPE   H2S18419   2.531   6.675   6.392 -2.2815  1.1603 -0.5925
  164SAPE    C318420   2.927   6.424   6.463  0.2370 -0.3279  0.3956
  164SAPE    HX18421   2.997   6.508   6.442  0.3182 -0.4469  0.1855
  164SAPE    HY18422   2.993   6.335   6.455  2.1087  1.0809 -0.5375
  164SAPE   O3118423   2.869   6.440   6.595 -0.3532 -0.0590 -0.5373
  164SAPE   C3118424   2.867   6.567   6.646 -0.1512  0.0001 -0.0989
  164SAPE   O3218425   2.919   6.664   6.597 -0.3937 -0.0644  0.3493
  164SAPE   C3218426   2.772   6.573   6.764  0.2854 -0.0489 -0.1396
  164SAPE   H2X18427   2.753   6.469   6.798 -0.5855 -0.0236 -0.5426
  164SAPE   H2Y18428   2.668   6.598   6.733  0.5119 -1.0896 -1.8020
  164SAPE   C2318429   2.347   6.549   6.406  0.0314 -0.1030 -0.6318
  164SAPE   H3R18430   2.323   6.450   6.449  0.4708 -0.4904 -1.2540
  164SAPE   H3S18431   2.315   6.540   6.300  1.7351 -0.1459 -1.1701
  164SAPE   C2418432   2.249   6.650   6.474 -0.5289 -0.2852 -0.7320
  164SAPE   H4R18433   2.149   6.604   6.457 -0.4203 -0.7649 -0.1094
  164SAPE   H4S18434   2.240   6.746   6.418  0.1059  0.7904  0.9552
  164SAPE   C2518435   2.270   6.695   6.619 -0.7482  0.5369  0.2086
  164SAPE   H5R18436   2.224   6.631   6.696 -0.6436  0.2818  0.0633
  164SAPE   C2618437   2.350   6.801   6.646 -0.1537  0.4263 -1.0179
  164SAPE   H6R18438   2.370   6.813   6.753 -1.8852 -2.1372 -0.3147
  164SAPE   C2718439   2.425   6.897   6.548 -0.2320 -0.5426 -0.2311
  164SAPE   H7R18440   2.360   6.987   6.538 -3.0342 -2.3568  0.6054
  164SAPE   H7S18441   2.417   6.858   6.444  0.0132 -0.2713 -0.3541
  164SAPE   C2818442   2.567   6.918   6.578 -0.1339  1.0282 -0.6152
  164SAPE   H8R18443   2.620   6.823   6.564 -1.8976 -0.3056  1.3495
  164SAPE   C2918444   2.640   7.023   6.619  1.1374 -0.1811 -0.6573
  164SAPE   H9R18445   2.747   7.000   6.626  0.7323 -2.5447 -1.1098
  164SAPE  C21018446   2.576   7.161   6.641  0.4113 -0.0398  0.2199
  164SAPE  H10R18447   2.523   7.146   6.737  1.3269 -1.0040  0.5949
  164SAPE  H10S18448   2.499   7.187   6.565  1.8478  1.7904 -0.6739
  164SAPE  C21118449   2.668   7.280   6.652  0.3443  0.4223 -0.2320
  164SAPE  H11R18450   2.694   7.321   6.553 -0.4185  1.6105  0.0339
  164SAPE  C21218451   2.699   7.352   6.760  0.0311 -0.1273 -0.3797
  164SAPE  H12R18452   2.779   7.427   6.744 -1.3240  1.3209 -0.5927
  164SAPE  C21318453   2.649   7.321   6.899 -0.5116 -0.7569 -0.5574
  164SAPE  H13R18454   2.582   7.234   6.911 -2.8056  0.8345 -1.2587
  164SAPE  H13S18455   2.588   7.410   6.928  0.9815  0.2801 -0.4560
  164SAPE  C21418456   2.767   7.301   6.987 -1.1507 -0.1788 -0.0388
  164SAPE  H14R18457   2.828   7.218   6.947 -0.7665  0.1490 -0.1427
  164SAPE  C21518458   2.806   7.371   7.098  0.0244  0.1027  0.3370
  164SAPE  H15R18459   2.893   7.340   7.157  0.2245 -2.1751 -1.0409
  164SAPE  C21618460   2.730   7.484   7.159 -0.0113  0.2241 -0.7015
  164SAPE  H16R18461   2.635   7.505   7.105 -1.4200 -1.2422  1.0881
  164SAPE  H16S18462   2.786   7.580   7.152 -0.0895  0.1731 -2.7723
  164SAPE  C21718463   2.682   7.470   7.303 -0.3976  0.2072  0.7502
  164SAPE  H17R18464   2.630   7.372   7.313 -1.0701  0.2679 -1.6141
  164SAPE  H17S18465   2.602   7.543   7.326  0.3551  0.9643  1.0078
  164SAPE  C21818466   2.794   7.472   7.408  0.3507  0.4720 -0.3558
  164SAPE  H18R18467   2.839   7.574   7.413 -1.2725  1.2481 -0.9743
  164SAPE  H18S18468   2.873   7.409   7.363  1.4399  1.5384 -0.0052
  164SAPE  C21918469   2.755   7.415   7.544 -0.1709 -0.9304  0.0064
  164SAPE  H19R18470   2.772   7.305   7.535  0.4262 -0.7626 -1.1259
  164SAPE  H19S18471   2.646   7.431   7.563  0.1226  2.3038 -0.5027
  164SAPE  C22018472   2.825   7.495   7.655 -0.1135 -0.4609 -1.1474
  164SAPE  H20R18473   2.822   7.605   7.636  1.0550 -0.2838 -0.3617
  164SAPE  H20S18474   2.933   7.471   7.651 -0.2872 -3.9525  4.2912
  164SAPE  H20T18475   2.775   7.469   7.751  0.4860 -1.3324 -1.0652
  164SAPE   C3318476   2.827   6.648   6.883  0.0764  0.0838 -0.1103
  164SAPE   H3X18477   2.874   6.746   6.861 -0.6568  0.3065 -0.7363
  164SAPE   H3Y18478   2.914   6.582   6.903  0.0070  0.2194  0.6773
  164SAPE   C3418479   2.740   6.669   7.003 -0.1084 -0.2560 -0.2708
  164SAPE   H4X18480   2.642   6.719   6.984  0.3416  0.3307 -1.1058
  164SAPE   H4Y18481   2.798   6.725   7.080 -0.7234 -1.1092  0.8486
  164SAPE   C3518482   2.708   6.537   7.070 -0.1903 -0.3395  0.7426
  164SAPE   H5X18483   2.804   6.483   7.085  0.5026 -1.2959 -4.9215
  164SAPE   H5Y18484   2.658   6.465   7.002 -0.2242 -0.6161  1.0547
  164SAPE   C3618485   2.618   6.550   7.193  0.2268  0.4413 -0.4364
  164SAPE   H6X18486   2.577   6.451   7.222 -0.9042  1.6811  2.5712
  164SAPE   H6Y18487   2.523   6.605   7.174  0.7057  1.0762 -1.0194
  164SAPE   C3718488   2.681   6.604   7.328 -0.0745 -0.0191  0.1670
  164SAPE   H7X18489   2.601   6.624   7.402 -0.0636  0.1145  0.1436
  164SAPE   H7Y18490   2.731   6.703   7.319 -0.0528  0.0537  1.0436
  164SAPE   C3818491   2.762   6.499   7.406 -0.0461  0.5539 -0.0942
  164SAPE   H8X18492   2.829   6.436   7.343  1.9782 -0.4090  2.8224
  164SAPE   H8Y18493   2.702   6.422   7.460 -0.5771  2.9461  2.9683
  164SAPE   C3918494   2.857   6.568   7.504 -0.0777  0.3096 -0.0381
  164SAPE   H9X18495   2.915   6.653   7.462 -1.1165  3.0042  3.4819
  164SAPE   H9Y18496   2.922   6.488   7.546 -1.3946 -0.4312  0.6659
  164SAPE  C31018497   2.788   6.622   7.637  0.2399 -0.7523 -0.1555
  164SAPE  H10X18498   2.755   6.524   7.679  0.4598 -1.7515 -2.1973
  164SAPE  H10Y18499   2.699   6.683   7.612  0.4242 -1.1752 -1.9474
  164SAPE  C31118500   2.877   6.694   7.741  0.0060  0.0807 -0.5032
  164SAPE  H11X18501   2.896   6.802   7.725 -0.9215  0.1991 -0.8834
  164SAPE  H11Y18502   2.970   6.636   7.756 -0.7056 -0.6677  1.2815
  164SAPE  C31218503   2.818   6.678   7.882 -0.7240  1.2938 -0.5092
  164SAPE  H12X18504   2.752   6.589   7.895  1.4776 -0.6190 -1.7221
  164SAPE  H12Y18505   2.739   6.755   7.896 -2.2236 -0.0363 -1.2781
  164SAPE  C31318506   2.919   6.695   7.994  0.1323 -0.3196 -0.3248
  164SAPE  H13X18507   2.972   6.793   7.988 -1.8321  0.9731  1.7376
  164SAPE  H13Y18508   2.986   6.606   7.995 -0.2211 -0.6600 -2.6460
  164SAPE  C31418509   2.846   6.697   8.130  0.0259  0.1134 -0.7219
  164SAPE  H14X18510   2.748   6.645   8.121  0.5611 -1.2698  0.9145
  164SAPE  H14Y18511   2.811   6.799   8.154  0.9122  0.6661 -1.7183
  164SAPE  C31518512   2.916   6.638   8.247 -0.0203  0.8472 -0.4666
  164SAPE  H15X18513   2.988   6.709   8.293  0.4518  0.7901 -1.1000
  164SAPE  H15Y18514   2.969   6.543   8.226 -0.9891  0.3049 -0.4797
  164SAPE  C31618515   2.823   6.596   8.368 -0.0792  0.0204 -0.4634
  164SAPE  H16X18516   2.736   6.536   8.334  0.1520 -0.3258 -0.4561
  164SAPE  H16Y18517   2.778   6.690   8.407 -0.2470  0.4628 -1.6890
  164SAPE  C31718518   2.884   6.510   8.477  0.2316  0.2807  0.2030
  164SAPE  H17X18519   2.952   6.577   8.533 -1.5181  2.4686 -0.1177
  164SAPE  H17Y18520   2.947   6.425   8.443  0.2864 -0.4647  2.0399
  164SAPE  C31818521   2.777   6.449   8.570  0.2628  0.6297  0.1732
  164SAPE  H18X18522   2.831   6.394   8.651  1.7908  0.9659 -0.5791
  164SAPE  H18Y18523   2.721   6.373   8.512  1.4711 -1.7593  1.9314
  164SAPE  H18Z18524   2.719   6.529   8.622 -2.2735 -0.2808 -1.1162
  165SAPE     N18525   2.950   4.039   6.343  0.2787  0.4157  1.1446
  165SAPE   HN118526   2.890   3.968   6.296  0.6377  0.1402  1.0973
  165SAPE   HN218527   3.049   4.008   6.335  0.4094  1.0939 -0.1577
  165SAPE   HN318528   2.932   4.025   6.444  1.8186  0.0896  1.3975
  165SAPE   C1218529   2.924   4.178   6.294 -0.3294  0.0236 -0.3149
  165SAPE  H12A18530   2.822   4.211   6.325  0.7619  0.5807  3.0386
  165SAPE  H12B18531   2.925   4.174   6.183 -1.3356  1.7525 -0.4166
  165SAPE   C1118532   3.023   4.288   6.343  0.1636 -0.1706  0.9926
  165SAPE  H11A18533   3.003   4.314   6.450  1.1531 -2.0562  1.6764
  165SAPE  H11B18534   3.000   4.366   6.268 -0.9299 -0.7048  0.7516
  165SAPE     P18535   3.277   4.329   6.404  0.2308 -0.0979  0.5206
  165SAPE   O1318536   3.375   4.378   6.307 -0.7894  0.5342 -0.3013
  165SAPE   O1418537   3.216   4.428   6.494  0.2153  0.1009  0.5664
  165SAPE   O1218538   3.161   4.238   6.340 -0.0983  0.1162  0.4396
  165SAPE   O1118539   3.350   4.231   6.494  0.3581  0.5801  0.0309
  165SAPE    C118540   3.301   4.177   6.615 -0.3169  1.0795  0.1119
  165SAPE    HA18541   3.190   4.181   6.614 -0.3948 -0.2835 -1.4591
  165SAPE    HB18542   3.335   4.071   6.616  1.0155  1.4780 -0.5712
  165SAPE    C218543   3.348   4.259   6.743  0.0664 -0.3557  0.2362
  165SAPE    HS18544   3.318   4.363   6.715 -1.7331 -1.2788 -1.5650
  165SAPE   O2118545   3.487   4.231   6.774  0.9537  0.2735  0.0182
  165SAPE   C2118546   3.579   4.310   6.725 -0.0281  0.1723  0.3381
  165SAPE   O2218547   3.562   4.408   6.655 -0.3627  0.3820  0.0491
  165SAPE   C2218548   3.711   4.257   6.783 -0.1161 -0.2080  1.3153
  165SAPE   H2R18549   3.703   4.238   6.892  0.9787  0.5637  1.5443
  165SAPE   H2S18550   3.732   4.156   6.742 -2.0734  0.3040 -1.2314
  165SAPE    C318551   3.268   4.213   6.866 -0.1140 -0.2392 -0.0823
  165SAPE    HX18552   3.300   4.111   6.897 -1.1463 -0.7345 -0.5866
  165SAPE    HY18553   3.165   4.209   6.826  0.3556 -0.5005 -1.3149
  165SAPE   O3118554   3.291   4.298   6.980  0.0374 -0.3897 -0.4507
  165SAPE   C3118555   3.226   4.411   6.971  0.1520 -0.8579  0.3007
  165SAPE   O3218556   3.155   4.448   6.880  0.4679 -0.2633  0.0203
  165SAPE   C3218557   3.253   4.494   7.088 -0.3738 -0.8031 -0.5614
  165SAPE   H2X18558   3.227   4.596   7.052 -0.5245 -0.9528 -0.8838
  165SAPE   H2Y18559   3.357   4.481   7.125 -1.3720 -2.2899  2.0121
  165SAPE   C2318560   3.836   4.344   6.740  0.3315 -0.2317  0.3731
  165SAPE   H3R18561   3.804   4.409   6.655  1.2734 -0.9383 -0.5559
  165SAPE   H3S18562   3.907   4.283   6.679 -0.8379  0.4237 -1.7755
  165SAPE   C2418563   3.900   4.429   6.848  0.0931  0.1160  0.0175
  165SAPE   H4R18564   3.823   4.494   6.897 -0.0242 -0.3652  0.4807
  165SAPE   H4S18565   3.967   4.497   6.791 -2.4150  1.7362 -1.2139
  165SAPE   C2518566   3.983   4.357   6.952 -0.2887  0.0952  0.3061
  165SAPE   H5R18567   4.058   4.287   6.912 -2.2402 -0.6524 -2.4067
  165SAPE   C2618568   3.966   4.372   7.087  0.1759 -0.3467 -0.2555
  165SAPE   H6R18569   4.028   4.318   7.160  3.2734  0.2645 -2.2317
  165SAPE   C2718570   3.869   4.458   7.158  0.1270 -0.4051  0.1479
  165SAPE   H7R18571   3.878   4.561   7.118  0.6434 -0.2761  0.5750
  165SAPE   H7S18572   3.894   4.462   7.266  0.3203  0.7314  0.0683
  165SAPE   C2818573   3.724   4.413   7.141 -0.0730 -0.0792 -0.0156
  165SAPE   H8R18574   3.696   4.365   7.046  1.7046 -1.8249  0.2730
  165SAPE   C2918575   3.640   4.427   7.241  0.5215 -0.3135  0.4517
  165SAPE   H9R18576   3.547   4.375   7.214  1.3610 -1.4301 -0.4004
  165SAPE  C21018577   3.633   4.484   7.378  0.2653 -0.8356  0.0511
  165SAPE  H10R18578   3.546   4.552   7.384 -1.1379 -2.6321  1.2287
  165SAPE  H10S18579   3.732   4.533   7.386  0.5426 -1.1163 -1.4151
  165SAPE  C21118580   3.614   4.385   7.490 -0.5487  0.5229  0.2124
  165SAPE  H11R18581   3.544   4.302   7.471  0.6471 -0.2735 -0.8813
  165SAPE  C21218582   3.653   4.403   7.615 -0.6643  0.3221 -0.3610
  165SAPE  H12R18583   3.617   4.336   7.695  0.2678 -0.9299 -0.9493
  165SAPE  C21318584   3.732   4.513   7.671 -0.4548 -0.1570  0.0747
  165SAPE  H13R18585   3.689   4.525   7.773  0.1079 -0.3329  0.3359
  165SAPE  H13S18586   3.717   4.601   7.604  0.0817  0.6177  0.9551
  165SAPE  C21418587   3.873   4.464   7.686  0.1488  0.0179  0.4985
  165SAPE  H14R18588   3.901   4.394   7.606 -1.3737 -0.3267  0.2334
  165SAPE  C21518589   3.963   4.485   7.781  0.5497  1.4686 -0.2847
  165SAPE  H15R18590   4.060   4.437   7.763 -0.5383 -1.3106  0.7944
  165SAPE  C21618591   3.932   4.568   7.900 -0.7504 -0.5876  0.8792
  165SAPE  H16R18592   3.829   4.609   7.894 -1.3984 -2.2295  0.3095
  165SAPE  H16S18593   4.013   4.644   7.901  0.9770 -2.3133 -0.2446
  165SAPE  C21718594   3.947   4.506   8.034 -0.3119  0.3965  0.7597
  165SAPE  H17R18595   3.943   4.574   8.122 -3.2710 -0.9834  1.8291
  165SAPE  H17S18596   4.037   4.442   8.048 -1.6542 -1.3582  1.8451
  165SAPE  C21818597   3.822   4.413   8.057  0.5172 -0.6724 -0.0856
  165SAPE  H18R18598   3.820   4.339   7.975 -1.6960 -1.0981  0.2786
  165SAPE  H18S18599   3.734   4.479   8.042  1.8861  0.5641 -3.5768
  165SAPE  C21918600   3.822   4.346   8.195  0.2378 -0.4730  0.2944
  165SAPE  H19R18601   3.923   4.302   8.211 -0.9654 -3.0115  1.4743
  165SAPE  H19S18602   3.762   4.254   8.188  2.0961 -1.7328  0.2002
  165SAPE  C22018603   3.770   4.433   8.319 -0.3379 -0.5395  0.5228
  165SAPE  H20R18604   3.840   4.513   8.349  0.6045 -1.6957  1.5106
  165SAPE  H20S18605   3.763   4.374   8.413 -0.8095 -2.0184 -0.4062
  165SAPE  H20T18606   3.679   4.488   8.289  0.0735 -0.3521 -0.4003
  165SAPE   C3318607   3.156   4.460   7.211 -0.4125 -0.2711  1.3107
  165SAPE   H3X18608   3.161   4.349   7.211  1.0833 -0.3671 -2.4832
  165SAPE   H3Y18609   3.053   4.497   7.194 -0.5415  0.0788  2.7246
  165SAPE   C3418610   3.217   4.510   7.345  0.3995  0.6312 -0.0953
  165SAPE   H4X18611   3.265   4.609   7.327 -0.8276  1.0887 -0.9436
  165SAPE   H4Y18612   3.293   4.434   7.375  0.2558 -0.0933 -1.4983
  165SAPE   C3518613   3.110   4.515   7.462 -0.0103 -0.2626  0.1739
  165SAPE   H5X18614   3.051   4.423   7.443  0.2838 -1.2983  3.6376
  165SAPE   H5Y18615   3.048   4.608   7.459  0.1307 -0.1734 -0.0025
  165SAPE   C3618616   3.180   4.490   7.595  0.9414  0.0760  0.5518
  165SAPE   H6X18617   3.245   4.578   7.615  0.2538  0.7226  0.0069
  165SAPE   H6Y18618   3.242   4.399   7.581  1.2427  0.4926 -0.9075
  165SAPE   C3718619   3.085   4.480   7.714 -0.0567  0.1100  0.5946
  165SAPE   H7X18620   3.012   4.397   7.710 -0.9584  0.8941  0.2889
  165SAPE   H7Y18621   3.031   4.577   7.707 -0.1283 -0.0479 -1.9802
  165SAPE   C3818622   3.145   4.458   7.854  0.5406 -0.0704  0.1403
  165SAPE   H8X18623   3.251   4.488   7.866  0.5768 -0.2026  0.1553
  165SAPE   H8Y18624   3.163   4.349   7.872  0.0551 -0.2387 -0.3586
  165SAPE   C3918625   3.047   4.509   7.959 -0.1638 -0.5415 -0.4158
  165SAPE   H9X18626   2.949   4.461   7.941 -1.8603  2.2140  0.8438
  165SAPE   H9Y18627   3.029   4.619   7.967  1.0176 -0.2805 -1.0368
  165SAPE  C31018628   3.090   4.460   8.099  0.9338  0.2851 -0.6714
  165SAPE  H10X18629   3.194   4.497   8.110  1.4161 -1.0910 -0.3839
  165SAPE  H10Y18630   3.087   4.350   8.118 -0.7045  0.6314  1.4087
  165SAPE  C31118631   3.014   4.532   8.207 -0.9356  0.0006  0.1405
  165SAPE  H11X18632   3.025   4.642   8.195  2.1838 -0.3455 -0.9940
  165SAPE  H11Y18633   3.068   4.524   8.304  0.5320  0.0230 -0.6539
  165SAPE  C31218634   2.868   4.505   8.218  0.2949 -0.1668 -0.6553
  165SAPE  H12X18635   2.854   4.399   8.250  0.6270  0.4492  1.7125
  165SAPE  H12Y18636   2.818   4.531   8.122 -0.4244  1.6599  0.1656
  165SAPE  C31318637   2.792   4.582   8.325  0.9984  0.6453  1.1540
  165SAPE  H13X18638   2.820   4.689   8.310 -0.0842  0.5613 -2.2326
  165SAPE  H13Y18639   2.829   4.561   8.428  1.8517 -4.3591  0.0782
  165SAPE  C31418640   2.647   4.564   8.310 -0.3302  0.0282  0.4048
  165SAPE  H14X18641   2.608   4.519   8.216  2.2530 -1.3003 -0.1187
  165SAPE  H14Y18642   2.606   4.668   8.303 -0.6199 -0.1855 -2.1156
  165SAPE  C31518643   2.594   4.492   8.435  0.1241 -0.1084 -0.3265
  165SAPE  H15X18644   2.605   4.557   8.524  1.8840  1.2996 -1.5025
  165SAPE  H15Y18645   2.666   4.408   8.446  1.1710  0.7094 -0.6970
  165SAPE  C31618646   2.453   4.440   8.419 -0.1108 -0.1422 -0.9006
  165SAPE  H16X18647   2.438   4.371   8.334  0.1343 -2.1123  0.5787
  165SAPE  H16Y18648   2.392   4.531   8.399  0.1368  0.3875  0.5868
  165SAPE  C31718649   2.396   4.375   8.547 -0.1236 -0.6962 -0.5666
  165SAPE  H17X18650   2.410   4.436   8.638  0.1045 -1.4764 -0.0657
  165SAPE  H17Y18651   2.455   4.281   8.557 -2.3921 -2.1292  0.1138
  165SAPE  C31818652   2.247   4.353   8.526  0.3228 -0.2892 -0.8336
  165SAPE  H18X18653   2.201   4.306   8.614  0.8354  1.6266  0.5330
  165SAPE  H18Y18654   2.226   4.297   8.432 -0.4870  1.8577 -2.0130
  165SAPE  H18Z18655   2.207   4.456   8.516 -0.6043 -0.6489 -0.9233
  166SAPE     N18656   0.160   0.969   6.329 -0.3116  0.6691 -0.0573
  166SAPE   HN118657   0.144   1.000   6.231  0.5066  2.3375  0.2976
  166SAPE   HN218658   0.135   0.869   6.337 -1.7023  0.9970 -0.1373
  166SAPE   HN318659   0.096   1.022   6.391  0.5078  0.0315  1.3754
  166SAPE   C1218660   0.303   0.991   6.369  0.2866  0.6125 -0.3647
  166SAPE  H12A18661   0.367   0.923   6.309  0.7251 -0.7755  1.5974
  166SAPE  H12B18662   0.306   0.965   6.476  0.0783 -0.9170 -0.7158
  166SAPE   C1118663   0.344   1.131   6.332 -0.2519 -0.2667 -0.1544
  166SAPE  H11A18664   0.444   1.160   6.369 -0.8728  1.9021 -0.0667
  166SAPE  H11B18665   0.276   1.209   6.372 -0.2710 -0.2140 -0.2875
  166SAPE     P18666   0.462   1.126   6.099  0.1083 -0.1249 -0.3228
  166SAPE   O1318667   0.432   1.014   6.006 -0.4473  0.4194  0.1681
  166SAPE   O1418668   0.508   1.247   6.031 -0.5664  0.2388  0.0181
  166SAPE   O1218669   0.338   1.145   6.192 -0.7421 -0.3530  0.5477
  166SAPE   O1118670   0.576   1.081   6.199  0.2144 -0.4842  0.2189
  166SAPE    C118671   0.648   0.955   6.175  0.6321 -0.4454 -0.5180
  166SAPE    HA18672   0.571   0.876   6.186 -0.6322  0.8394  0.2489
  166SAPE    HB18673   0.688   0.949   6.071 -0.9358 -2.4670 -1.0779
  166SAPE    C218674   0.772   0.923   6.264 -0.2664 -0.0974  0.8465
  166SAPE    HS18675   0.815   0.821   6.252 -0.0386  0.1912 -1.1336
  166SAPE   O2118676   0.727   0.944   6.398  0.2335  0.1353  0.5644
  166SAPE   C2118677   0.645   0.859   6.441  0.3066  0.1092  0.3214
  166SAPE   O2218678   0.595   0.762   6.384 -0.9868  0.4940  0.2698
  166SAPE   C2218679   0.609   0.897   6.590  1.1623 -0.1178  0.3620
  166SAPE   H2R18680   0.630   1.006   6.595  0.5436 -0.0167  1.0504
  166SAPE   H2S18681   0.501   0.876   6.602  1.2546 -0.6720  0.2394
  166SAPE    C318682   0.895   1.011   6.225  0.2144  0.5525  0.7112
  166SAPE    HX18683   0.860   1.116   6.234 -2.5651 -0.1461 -0.8410
  166SAPE    HY18684   0.918   0.985   6.119 -1.2743 -0.9526  0.7238
  166SAPE   O3118685   1.024   0.975   6.296 -0.0731 -0.5374 -0.4823
  166SAPE   C3118686   1.037   1.038   6.416 -0.3952 -0.1463  0.3315
  166SAPE   O3218687   0.953   1.120   6.452 -0.0306  0.4280 -0.2413
  166SAPE   C3218688   1.169   1.001   6.490 -0.6772 -0.4683  0.3237
  166SAPE   H2X18689   1.250   1.008   6.414 -0.1097 -1.6021  0.8083
  166SAPE   H2Y18690   1.166   0.899   6.533 -1.9699  0.7618  3.4457
  166SAPE   C2318691   0.682   0.832   6.708 -0.3142 -0.3450 -0.2040
  166SAPE   H3R18692   0.689   0.721   6.702  0.7035 -0.3387  0.5392
  166SAPE   H3S18693   0.617   0.857   6.794  0.4175 -0.6045  0.4354
  166SAPE   C2418694   0.826   0.885   6.745 -0.2703 -0.0925  0.2457
  166SAPE   H4R18695   0.850   0.872   6.852 -0.1441  0.5257  0.2993
  166SAPE   H4S18696   0.831   0.993   6.719 -2.8457  0.1163  0.3810
  166SAPE   C2518697   0.924   0.812   6.656  0.4889  0.1824  0.1944
  166SAPE   H5R18698   0.915   0.834   6.549 -3.5927 -1.4256  0.0302
  166SAPE   C2618699   1.003   0.710   6.693  0.4143 -0.3604  0.0533
  166SAPE   H6R18700   1.078   0.661   6.630  0.4189 -0.4599  0.1370
  166SAPE   C2718701   1.015   0.651   6.834 -1.1346 -0.6820  0.1786
  166SAPE   H7R18702   0.937   0.572   6.837 -0.3506 -1.6774 -2.5153
  166SAPE   H7S18703   0.989   0.720   6.917  2.1712  1.6831 -0.5437
  166SAPE   C2818704   1.149   0.584   6.862  0.6400 -0.0997 -0.3038
  166SAPE   H8R18705   1.192   0.501   6.804  5.9062  2.5380 -0.8298
  166SAPE   C2918706   1.226   0.609   6.973 -0.1393  0.1780  0.9134
  166SAPE   H9R18707   1.324   0.558   6.974 -0.0471  0.3227  0.1976
  166SAPE  C21018708   1.215   0.719   7.071  0.1641 -0.0078  0.1901
  166SAPE  H10R18709   1.136   0.789   7.037  0.7548  1.1713  1.1317
  166SAPE  H10S18710   1.311   0.774   7.082 -0.5120  1.0424  0.9700
  166SAPE  C21118711   1.166   0.669   7.203  1.0693  0.0940 -0.0649
  166SAPE  H11R18712   1.064   0.626   7.200  0.8601  0.5715  0.1638
  166SAPE  C21218713   1.228   0.657   7.327  0.3902 -0.0629  1.0808
  166SAPE  H12R18714   1.158   0.626   7.405 -0.8206 -1.1923 -0.3874
  166SAPE  C21318715   1.372   0.686   7.363 -0.1813  0.2821 -0.1091
  166SAPE  H13R18716   1.373   0.775   7.430  3.7562 -1.0135  1.8518
  166SAPE  H13S18717   1.427   0.712   7.270 -0.6537 -2.6058 -1.2970
  166SAPE  C21418718   1.451   0.586   7.451  0.2296 -0.0852  0.2376
  166SAPE  H14R18719   1.510   0.525   7.381 -0.9625  1.4893 -2.3342
  166SAPE  C21518720   1.466   0.577   7.586  0.4377 -0.3476 -0.4883
  166SAPE  H15R18721   1.530   0.499   7.629  0.2291  0.3657  1.2081
  166SAPE  C21618722   1.409   0.664   7.692  0.2021  0.3345 -0.5477
  166SAPE  H16R18723   1.352   0.751   7.653  1.5047  0.8414 -1.3550
  166SAPE  H16S18724   1.491   0.718   7.744 -0.3176  0.5039  0.1091
  166SAPE  C21718725   1.331   0.588   7.803 -0.6998  0.0721 -0.3814
  166SAPE  H17R18726   1.387   0.496   7.832 -2.1671 -0.2156  1.8663
  166SAPE  H17S18727   1.232   0.554   7.766 -0.9233  2.6451 -2.3926
  166SAPE  C21818728   1.323   0.653   7.942  0.2898  0.3804  0.1639
  166SAPE  H18R18729   1.249   0.734   7.923  1.2203  0.4460 -4.1630
  166SAPE  H18S18730   1.418   0.695   7.982  0.5018 -1.0567  1.2387
  166SAPE  C21918731   1.272   0.554   8.052 -0.3463  0.3282  0.0242
  166SAPE  H19R18732   1.349   0.476   8.072  0.6108  1.8476  2.7630
  166SAPE  H19S18733   1.181   0.496   8.025 -0.1790 -0.6357  1.4444
  166SAPE  C22018734   1.252   0.639   8.179  0.3853  0.7120  1.0097
  166SAPE  H20R18735   1.182   0.722   8.156  1.4792  1.1414 -1.0866
  166SAPE  H20S18736   1.350   0.683   8.206  0.8255  3.0253 -3.3454
  166SAPE  H20T18737   1.207   0.583   8.263  1.5036 -0.3734  0.9160
  166SAPE   C3318738   1.185   1.094   6.606  0.3920  0.3834 -0.1422
  166SAPE   H3X18739   1.091   1.083   6.665  1.3045  0.0963  1.3196
  166SAPE   H3Y18740   1.190   1.200   6.574 -1.9030  0.0801 -1.7807
  166SAPE   C3418741   1.294   1.054   6.705 -0.9098 -0.6406 -0.5181
  166SAPE   H4X18742   1.392   1.074   6.656 -1.6230 -0.6465 -2.0165
  166SAPE   H4Y18743   1.289   0.948   6.738 -1.0882 -0.6557 -0.5925
  166SAPE   C3518744   1.285   1.148   6.835  0.0655 -0.6600  0.0992
  166SAPE   H5X18745   1.178   1.147   6.863  0.3252 -1.5505  1.1238
  166SAPE   H5Y18746   1.323   1.251   6.814 -2.3184  0.1890 -0.4238
  166SAPE   C3618747   1.354   1.080   6.957 -0.2731 -1.0320 -0.0609
  166SAPE   H6X18748   1.463   1.071   6.938  0.0136  2.3764 -0.7962
  166SAPE   H6Y18749   1.310   0.978   6.958 -0.1437 -1.0830  0.6525
  166SAPE   C3718750   1.345   1.145   7.096 -0.1097 -0.4028 -0.3403
  166SAPE   H7X18751   1.237   1.165   7.113 -0.0974 -1.1077  0.6727
  166SAPE   H7Y18752   1.400   1.241   7.097 -1.6518  0.5245 -0.0299
  166SAPE   C3818753   1.392   1.070   7.220 -0.4031 -0.5489 -0.7055
  166SAPE   H8X18754   1.493   1.101   7.251 -0.1721 -3.5544  2.0255
  166SAPE   H8Y18755   1.400   0.959   7.214 -2.9609 -0.8292 -0.2145
  166SAPE   C3918756   1.295   1.115   7.332  0.3687  0.4083 -0.4316
  166SAPE   H9X18757   1.202   1.057   7.315 -0.2505  1.2591 -0.0544
  166SAPE   H9Y18758   1.265   1.221   7.320  0.2067  0.0777 -3.7504
  166SAPE  C31018759   1.361   1.090   7.471 -0.5429 -0.1524 -0.3029
  166SAPE  H10X18760   1.433   1.174   7.483 -0.5684 -0.3158  1.2087
  166SAPE  H10Y18761   1.402   0.987   7.481 -2.6823 -1.0938 -0.6942
  166SAPE  C31118762   1.269   1.104   7.586  0.2670 -0.0327  0.1252
  166SAPE  H11X18763   1.187   1.029   7.585  1.2378 -1.1668 -2.3018
  166SAPE  H11Y18764   1.216   1.202   7.589 -1.2082 -0.8029  3.2477
  166SAPE  C31218765   1.355   1.082   7.722 -0.4065  0.4541 -0.2091
  166SAPE  H12X18766   1.440   1.152   7.707  0.1820 -0.3141 -0.5105
  166SAPE  H12Y18767   1.396   0.979   7.720  0.9259  0.9791 -1.6315
  166SAPE  C31318768   1.271   1.113   7.839 -0.3562 -0.9788  0.1395
  166SAPE  H13X18769   1.196   1.032   7.853 -0.2003 -1.4142 -1.3842
  166SAPE  H13Y18770   1.221   1.210   7.821  1.2918 -0.5743 -3.0016
  166SAPE  C31418771   1.364   1.123   7.966 -0.1321  0.4975  0.2728
  166SAPE  H14X18772   1.446   1.192   7.938  0.7653 -0.7155 -0.1919
  166SAPE  H14Y18773   1.406   1.024   7.997  1.8910  1.4690  0.8237
  166SAPE  C31518774   1.301   1.175   8.095  0.2649 -0.9278  0.6950
  166SAPE  H15X18775   1.237   1.264   8.076 -0.2585 -1.0892  1.6486
  166SAPE  H15Y18776   1.389   1.211   8.151 -0.1704  0.5205  0.4839
  166SAPE  C31618777   1.225   1.060   8.166  0.0574 -0.6122  0.0469
  166SAPE  H16X18778   1.295   0.978   8.190  0.7855  0.2780  1.0378
  166SAPE  H16Y18779   1.146   1.022   8.097  0.6505 -1.9741  0.0959
  166SAPE  C31718780   1.169   1.109   8.298 -0.0930 -0.7840 -0.0161
  166SAPE  H17X18781   1.087   1.179   8.270  2.4641  2.5947  0.2850
  166SAPE  H17Y18782   1.246   1.169   8.352 -1.3935 -0.6655  1.8213
  166SAPE  C31818783   1.125   0.992   8.376  0.7252 -0.0020 -0.0060
  166SAPE  H18X18784   1.211   0.937   8.421  2.2099  1.0818 -1.3788
  166SAPE  H18Y18785   1.072   0.925   8.306 -0.0029  1.3588 -0.7946
  166SAPE  H18Z18786   1.056   1.015   8.460 -1.2535  0.5673 -1.7195
  167SAPE     N18787   4.126   6.075   6.343 -0.1960 -0.0918 -0.1630
  167SAPE   HN118788   4.052   6.144   6.368  0.0952  0.0783  0.2555
  167SAPE   HN218789   4.178   6.118   6.263  0.2715  0.8979  0.6368
  167SAPE   HN318790   4.090   5.983   6.311 -0.4743  0.2939 -0.9830
  167SAPE   C1218791   4.224   6.076   6.459  0.2234 -0.7094  0.2941
  167SAPE  H12A18792   4.311   6.014   6.426  1.9119  0.8165  1.6363
  167SAPE  H12B18793   4.166   6.027   6.540 -1.0203 -1.3338 -0.9418
  167SAPE   C1118794   4.265   6.221   6.492  0.1200  0.2332  0.0437
  167SAPE  H11A18795   4.332   6.225   6.581  3.7753 -0.6649 -2.4313
  167SAPE  H11B18796   4.174   6.271   6.532  0.2363  0.1485  0.4134
  167SAPE     P18797   4.463   6.324   6.333  0.2352 -0.0388 -0.1764
  167SAPE   O1318798   4.503   6.236   6.224  0.6229  0.0371 -0.4354
  167SAPE   O1418799   4.454   6.468   6.309 -0.6200  0.1248  0.1008
  167SAPE   O1218800   4.315   6.288   6.376  0.4440 -0.3609  0.2562
  167SAPE   O1118801   4.541   6.278   6.463 -0.1628 -0.2437 -0.0128
  167SAPE    C118802   4.576   6.393   6.549  0.4540 -0.2439 -0.7438
  167SAPE    HA18803   4.646   6.466   6.502  0.4943  1.3168  1.6117
  167SAPE    HB18804   4.484   6.439   6.592 -0.2587  0.7064 -3.1128
  167SAPE    C218805   4.643   6.335   6.678  0.1082 -1.0210 -0.1673
  167SAPE    HS18806   4.750   6.308   6.667  0.2663 -1.1691  1.4539
  167SAPE   O2118807   4.564   6.227   6.719 -0.4835 -0.3151  0.2363
  167SAPE   C2118808   4.615   6.134   6.783  0.5090  0.8185  0.2772
  167SAPE   O2218809   4.732   6.122   6.811  0.3869  0.0778  0.7758
  167SAPE   C2218810   4.498   6.040   6.824 -0.2068  0.1509 -0.1170
  167SAPE   H2R18811   4.445   6.104   6.897  0.0403 -1.8962  1.9740
  167SAPE   H2S18812   4.431   6.017   6.739 -1.2752  0.7876  0.5341
  167SAPE    C318813   4.648   6.444   6.789  0.0574  0.0998  0.3407
  167SAPE    HX18814   4.548   6.492   6.792  0.0866  0.1697  3.0648
  167SAPE    HY18815   4.714   6.528   6.758  0.1581  0.1245  0.6185
  167SAPE   O3118816   4.676   6.396   6.916 -0.0448 -0.4590 -0.4927
  167SAPE   C3118817   4.802   6.367   6.951  0.2607 -0.3031 -0.3910
  167SAPE   O3218818   4.901   6.393   6.888 -0.6697 -0.7980  0.2013
  167SAPE   C3218819   4.799   6.302   7.091  0.2264 -0.0302 -0.2223
  167SAPE   H2X18820   4.723   6.220   7.096  1.7400 -1.4671  0.2400
  167SAPE   H2Y18821   4.763   6.381   7.160 -0.1597  1.3301 -1.9353
  167SAPE   C2318822   4.539   5.917   6.898  0.5337  0.1585 -0.3172
  167SAPE   H3R18823   4.629   5.867   6.855  0.6967  0.9666 -0.9486
  167SAPE   H3S18824   4.444   5.860   6.896 -0.0070  1.0121  0.1198
  167SAPE   C2418825   4.569   5.956   7.047 -0.6798 -0.5510  0.3491
  167SAPE   H4R18826   4.486   6.013   7.094 -1.1408 -0.6635 -0.3306
  167SAPE   H4S18827   4.660   6.020   7.047 -0.5698 -0.5861 -2.5335
  167SAPE   C2518828   4.591   5.833   7.133 -0.7129  0.6489  0.2818
  167SAPE   H5R18829   4.610   5.744   7.071  1.8697  1.4433 -0.1959
  167SAPE   C2618830   4.590   5.829   7.267  0.5156  0.9535  0.1332
  167SAPE   H6R18831   4.583   5.733   7.321  0.8330  0.5957 -0.4568
  167SAPE   C2718832   4.572   5.953   7.352  0.0212  0.5168  0.0643
  167SAPE   H7R18833   4.499   6.027   7.312  1.0604  2.5239  1.6551
  167SAPE   H7S18834   4.664   6.014   7.345  0.2651  0.0656 -0.6797
  167SAPE   C2818835   4.520   5.932   7.494  0.3541 -0.0258 -0.4778
  167SAPE   H8R18836   4.536   5.828   7.527  2.3659  0.3109 -0.2702
  167SAPE   C2918837   4.452   6.026   7.572  0.0562 -0.7050  0.9306
  167SAPE   H9R18838   4.413   5.993   7.669 -2.5072 -0.0064  0.2003
  167SAPE  C21018839   4.413   6.167   7.540  0.3534  0.6295  0.3287
  167SAPE  H10R18840   4.324   6.206   7.593  2.1206 -0.1741  4.2289
  167SAPE  H10S18841   4.387   6.169   7.432  2.5623 -0.0731 -0.2684
  167SAPE  C21118842   4.525   6.274   7.562 -0.2162  0.3288 -0.0438
  167SAPE  H11R18843   4.598   6.260   7.643  2.2273  1.4838 -1.9146
  167SAPE  C21218844   4.545   6.384   7.482  0.6927 -1.3045 -1.1343
  167SAPE  H12R18845   4.611   6.468   7.510 -1.8241  1.2437 -2.3634
  167SAPE  C21318846   4.471   6.441   7.365  0.0967  0.7006  0.3176
  167SAPE  H13R18847   4.511   6.541   7.340  1.5317  0.4616  1.4752
  167SAPE  H13S18848   4.366   6.468   7.386 -1.0388 -2.6727 -0.3391
  167SAPE  C21418849   4.482   6.345   7.251 -0.4190 -0.1478 -0.3037
  167SAPE  H14R18850   4.563   6.273   7.269 -0.4129  0.3308  1.8154
  167SAPE  C21518851   4.402   6.337   7.147 -0.1569  0.2983 -0.2009
  167SAPE  H15R18852   4.421   6.255   7.075 -1.5585  0.2604 -0.5638
  167SAPE  C21618853   4.291   6.426   7.107  0.4817  1.2310  0.2293
  167SAPE  H16R18854   4.293   6.515   7.173  3.4644  2.6525 -1.5572
  167SAPE  H16S18855   4.196   6.370   7.116  1.7291 -1.3318 -1.4313
  167SAPE  C21718856   4.301   6.466   6.961 -0.0062 -0.0732 -0.0497
  167SAPE  H17R18857   4.292   6.375   6.898 -4.2076 -1.3188  2.0117
  167SAPE  H17S18858   4.397   6.520   6.942  0.9349 -1.3422  0.9248
  167SAPE  C21818859   4.199   6.564   6.913  0.4249 -0.2574  0.3139
  167SAPE  H18R18860   4.179   6.637   6.994  0.2956 -0.3155  0.3351
  167SAPE  H18S18861   4.104   6.511   6.889  1.0154 -0.3061 -2.2348
  167SAPE  C21918862   4.246   6.638   6.789 -0.3481 -0.0091  0.8175
  167SAPE  H19R18863   4.315   6.572   6.733  0.0082  0.2488  0.9469
  167SAPE  H19S18864   4.295   6.728   6.832  0.0157 -0.7836  2.0782
  167SAPE  C22018865   4.135   6.693   6.700  0.4686 -0.6305  0.7676
  167SAPE  H20R18866   4.080   6.777   6.746 -0.3258  0.1116 -1.3968
  167SAPE  H20S18867   4.060   6.615   6.673 -1.5182  1.6836 -0.7668
  167SAPE  H20T18868   4.184   6.745   6.615  1.5296 -0.1747  1.6365
  167SAPE   C3318869   4.937   6.259   7.148 -0.1029 -0.4656 -0.0749
  167SAPE   H3X18870   4.992   6.352   7.176 -1.7874 -0.0266  2.0681
  167SAPE   H3Y18871   5.004   6.205   7.078 -0.1128 -1.5717  0.7605
  167SAPE   C3418872   4.930   6.163   7.266 -0.5067  0.3776 -0.4640
  167SAPE   H4X18873   5.032   6.135   7.299  0.2244  1.8730 -1.3840
  167SAPE   H4Y18874   4.875   6.070   7.237 -0.2211 -0.3490  1.1885
  167SAPE   C3518875   4.875   6.230   7.400  0.5202  0.2566  0.0911
  167SAPE   H5X18876   4.765   6.241   7.386  0.4378 -1.4810 -1.0293
  167SAPE   H5Y18877   4.931   6.326   7.393  1.0081 -0.1416 -2.4822
  167SAPE   C3618878   4.909   6.159   7.531 -0.1956  0.1826  0.1337
  167SAPE   H6X18879   5.009   6.115   7.512  0.6051  3.0652 -3.2538
  167SAPE   H6Y18880   4.850   6.068   7.554 -2.3649  0.7653 -2.6732
  167SAPE   C3718881   4.920   6.258   7.647  0.8428 -0.2636  0.8213
  167SAPE   H7X18882   4.824   6.315   7.642  0.2171 -1.4162 -0.8706
  167SAPE   H7Y18883   5.010   6.323   7.638  1.0844 -0.8850 -2.3684
  167SAPE   C3818884   4.913   6.175   7.784 -0.4363 -0.3446  0.7897
  167SAPE   H8X18885   5.006   6.114   7.789 -2.0711 -3.0150  0.3959
  167SAPE   H8Y18886   4.839   6.092   7.787  0.5748 -1.3574 -0.6123
  167SAPE   C3918887   4.905   6.251   7.913 -0.0368  0.6456  0.7962
  167SAPE   H9X18888   4.804   6.299   7.911  0.6641  2.1721  0.7982
  167SAPE   H9Y18889   4.974   6.338   7.913  0.6535  0.2103 -2.5587
  167SAPE  C31018890   4.942   6.157   8.027 -0.0655  0.3636  0.0676
  167SAPE  H10X18891   5.028   6.087   8.016 -1.5580 -1.5516  0.1299
  167SAPE  H10Y18892   4.851   6.093   8.028  0.3364 -0.3422 -2.1657
  167SAPE  C31118893   4.970   6.215   8.166  0.3234 -0.6627 -0.5147
  167SAPE  H11X18894   4.897   6.296   8.185  3.0804  2.3011 -1.7257
  167SAPE  H11Y18895   5.061   6.278   8.165  0.5158 -0.9369 -0.6739
  167SAPE  C31218896   4.976   6.106   8.273  0.4605 -0.1673  0.3944
  167SAPE  H12X18897   5.061   6.039   8.249 -0.0845 -1.0464  0.8529
  167SAPE  H12Y18898   4.882   6.047   8.264 -0.3226  1.2220 -0.9577
  167SAPE  C31318899   4.983   6.143   8.421 -0.7287 -0.1384 -0.2402
  167SAPE  H13X18900   5.087   6.153   8.459 -0.1274 -0.2695 -1.8041
  167SAPE  H13Y18901   4.953   6.055   8.481 -2.3232  0.8428  0.4675
  167SAPE  C31418902   4.903   6.260   8.466  0.3660 -0.1850 -0.0447
  167SAPE  H14X18903   4.807   6.266   8.411 -0.1221 -1.2879  0.6619
  167SAPE  H14Y18904   4.958   6.351   8.433  0.9542 -0.3022  0.5897
  167SAPE  C31518905   4.889   6.268   8.613  1.1667  0.4334 -0.0889
  167SAPE  H15X18906   4.979   6.224   8.660  1.8570  0.3549 -1.4348
  167SAPE  H15Y18907   4.811   6.201   8.655  0.7193  0.0696 -1.4383
  167SAPE  C31618908   4.859   6.412   8.670  0.4888 -0.2988  0.1283
  167SAPE  H16X18909   4.886   6.494   8.601 -0.5689 -1.3515 -1.5914
  167SAPE  H16Y18910   4.918   6.420   8.764 -0.5817 -1.8007  0.9706
  167SAPE  C31718911   4.710   6.437   8.698 -0.6377  0.4990 -0.0438
  167SAPE  H17X18912   4.658   6.368   8.768  0.4511 -1.9883 -1.5232
  167SAPE  H17Y18913   4.664   6.414   8.599 -0.4528 -0.5706  0.1018
  167SAPE  C31818914   4.674   6.585   8.738 -0.3377 -0.3291 -0.5933
  167SAPE  H18X18915   4.731   6.655   8.672 -0.5179  0.0251 -0.3740
  167SAPE  H18Y18916   4.702   6.599   8.844 -1.9161 -1.3787 -0.0088
  167SAPE  H18Z18917   4.566   6.608   8.725  0.0070  1.4946 -0.6133
  168SAPE     N18918   3.633   2.087   6.456  0.1660  0.1405  0.3511
  168SAPE   HN118919   3.596   1.990   6.460  0.1097  0.2037  2.5232
  168SAPE   HN218920   3.558   2.156   6.433 -1.0380 -1.6632 -1.4166
  168SAPE   HN318921   3.712   2.097   6.389  1.4733  0.8839  1.9135
  168SAPE   C1218922   3.691   2.102   6.599 -0.2092  0.1602  0.1394
  168SAPE  H12A18923   3.611   2.076   6.671 -0.2431  0.8462  0.3610
  168SAPE  H12B18924   3.706   2.212   6.610 -0.6225  0.1806  0.5216
  168SAPE   C1118925   3.827   2.026   6.615  0.2797  0.1136 -0.4792
  168SAPE  H11A18926   3.843   2.016   6.725  0.0570 -0.1404 -0.4679
  168SAPE  H11B18927   3.909   2.079   6.563 -1.0929  0.6288 -2.1898
  168SAPE     P18928   3.906   1.788   6.505  0.0459 -0.4867 -0.2770
  168SAPE   O1318929   3.863   1.728   6.372 -0.2588 -0.2463 -0.0103
  168SAPE   O1418930   4.039   1.851   6.497  0.4633 -0.0175 -0.5618
  168SAPE   O1218931   3.806   1.896   6.552 -0.5063  0.4330 -0.2468
  168SAPE   O1118932   3.895   1.681   6.615  0.1020 -0.2295 -0.0662
  168SAPE    C118933   3.766   1.632   6.659 -0.0635  0.4442 -0.3100
  168SAPE    HA18934   3.693   1.621   6.577  0.7363 -1.3127 -0.8237
  168SAPE    HB18935   3.794   1.532   6.698  2.9419  1.7816  1.3550
  168SAPE    C218936   3.702   1.719   6.771  0.5681  0.2685  0.2819
  168SAPE    HS18937   3.667   1.813   6.724 -0.4772 -0.6247 -0.7998
  168SAPE   O2118938   3.799   1.736   6.875  0.1517 -0.3885 -0.3967
  168SAPE   C2118939   3.788   1.839   6.953  0.7474 -0.1343 -0.1222
  168SAPE   O2218940   3.695   1.921   6.950 -0.2695  0.5800 -0.3043
  168SAPE   C2218941   3.909   1.855   7.039  0.1298 -1.0668 -0.2771
  168SAPE   H2R18942   4.003   1.858   6.980 -0.5454  1.5957 -1.3611
  168SAPE   H2S18943   3.904   1.950   7.096  2.1655  0.8343 -2.9813
  168SAPE    C318944   3.584   1.643   6.824  0.3432  0.6008 -0.3692
  168SAPE    HX18945   3.507   1.620   6.747  1.9280 -4.2954 -0.8134
  168SAPE    HY18946   3.540   1.709   6.902 -0.6449  0.2059 -0.5738
  168SAPE   O3118947   3.620   1.511   6.866 -0.8421  0.1480  0.5280
  168SAPE   C3118948   3.645   1.496   7.003 -0.6924 -0.0881  0.0649
  168SAPE   O3218949   3.647   1.592   7.083 -0.1719  0.4679  0.0083
  168SAPE   C3218950   3.666   1.354   7.040 -0.4122  0.7582 -0.5861
  168SAPE   H2X18951   3.682   1.295   6.947 -0.7197  0.5124 -0.4864
  168SAPE   H2Y18952   3.571   1.305   7.071 -0.5868 -1.0695 -3.5767
  168SAPE   C2318953   3.933   1.729   7.129 -0.2355  0.0681 -0.4698
  168SAPE   H3R18954   3.954   1.644   7.061  2.4005 -0.1674  0.5257
  168SAPE   H3S18955   3.845   1.711   7.195  0.2632  0.2920  0.2695
  168SAPE   C2418956   4.059   1.757   7.218 -0.4969  0.4203  0.2765
  168SAPE   H4R18957   4.033   1.836   7.291 -0.0290  0.2952  0.5854
  168SAPE   H4S18958   4.146   1.788   7.156 -1.6912  1.7358 -0.7826
  168SAPE   C2518959   4.099   1.630   7.284  0.3688 -0.6288 -0.3650
  168SAPE   H5R18960   4.123   1.550   7.213  2.5042  0.6685 -1.1907
  168SAPE   C2618961   4.112   1.602   7.417  0.3079  0.0223 -0.8298
  168SAPE   H6R18962   4.129   1.500   7.454 -0.1532  0.0139 -0.6384
  168SAPE   C2718963   4.090   1.710   7.523 -0.0446 -1.0321  0.5658
  168SAPE   H7R18964   3.982   1.736   7.528  0.2201 -0.0620  1.7486
  168SAPE   H7S18965   4.144   1.804   7.500 -2.2916  1.2666  3.6942
  168SAPE   C2818966   4.139   1.654   7.651 -0.4862 -0.7191 -0.0603
  168SAPE   H8R18967   4.225   1.587   7.637  2.1655  2.0240  1.8836
  168SAPE   C2918968   4.085   1.659   7.772 -0.6660 -0.2909 -0.2537
  168SAPE   H9R18969   4.154   1.611   7.843 -0.3118  1.5821  0.7566
  168SAPE  C21018970   3.961   1.732   7.824  0.3612  0.0168  0.8091
  168SAPE  H10R18971   3.908   1.644   7.866  1.7178 -1.8427 -1.1369
  168SAPE  H10S18972   3.892   1.760   7.741  0.3307 -0.5714  0.6277
  168SAPE  C21118973   3.985   1.852   7.915 -0.6582 -0.3972 -0.0583
  168SAPE  H11R18974   3.985   1.948   7.860 -1.4530 -0.7833 -0.7598
  168SAPE  C21218975   4.005   1.848   8.044 -0.2440 -0.7185 -0.3804
  168SAPE  H12R18976   4.016   1.942   8.101 -0.2904 -0.6466 -0.4894
  168SAPE  C21318977   3.997   1.721   8.114  0.1639  0.4588  0.0211
  168SAPE  H13R18978   4.067   1.650   8.066  1.1351  1.5095 -0.1570
  168SAPE  H13S18979   3.902   1.666   8.094  1.2011 -0.4923 -2.5990
  168SAPE  C21418980   4.033   1.739   8.262 -0.1167 -0.0524  0.6111
  168SAPE  H14R18981   4.093   1.826   8.290  2.0210 -1.3666  0.2944
  168SAPE  C21518982   3.992   1.651   8.357 -0.0870  0.1061 -0.2929
  168SAPE  H15R18983   4.029   1.679   8.457  0.0261  1.6354 -0.7412
  168SAPE  C21618984   3.902   1.530   8.352  0.2352  0.5643 -0.9172
  168SAPE  H16R18985   3.968   1.441   8.339 -0.8257 -0.4994  0.7529
  168SAPE  H16S18986   3.841   1.543   8.260  1.3764 -0.5056 -1.8788
  168SAPE  C21718987   3.815   1.508   8.481 -0.2915  0.0323 -0.9431
  168SAPE  H17R18988   3.730   1.579   8.491 -1.0573 -0.9927  0.0277
  168SAPE  H17S18989   3.882   1.525   8.569 -1.2956  0.1230 -0.1798
  168SAPE  C21818990   3.767   1.352   8.491 -0.3455  0.4437  0.6158
  168SAPE  H18R18991   3.859   1.292   8.510 -0.6762 -0.7907 -1.4273
  168SAPE  H18S18992   3.720   1.325   8.394 -3.4988 -1.1977  2.4287
  168SAPE  C21918993   3.657   1.320   8.607 -0.1324  0.9647  0.8426
  168SAPE  H19R18994   3.577   1.397   8.614 -0.6251  0.5195  0.2124
  168SAPE  H19S18995   3.713   1.324   8.703 -0.8573  0.8279  1.2802
  168SAPE  C22018996   3.610   1.179   8.592  0.7961  0.1511 -0.4297
  168SAPE  H20R18997   3.553   1.132   8.675 -0.9200 -2.9197 -3.1325
  168SAPE  H20S18998   3.694   1.113   8.565 -1.4238 -2.5760 -1.1020
  168SAPE  H20T18999   3.538   1.166   8.508 -0.0127 -0.3816  0.3347
  168SAPE   C3319000   3.793   1.321   7.126  0.4326 -0.4668 -0.6614
  168SAPE   H3X19001   3.887   1.332   7.068  1.3981  0.9481  1.0887
  168SAPE   H3Y19002   3.791   1.211   7.143  0.8308 -0.6661 -1.7832
  168SAPE   C3419003   3.815   1.387   7.262  0.2682 -0.1139  0.4929
  168SAPE   H4X19004   3.788   1.495   7.250  1.3316 -0.0247 -1.6610
  168SAPE   H4Y19005   3.922   1.389   7.290  0.0135  0.7422  1.4956
  168SAPE   C3519006   3.741   1.322   7.380  0.1610  0.2720 -0.1003
  168SAPE   H5X19007   3.753   1.212   7.391 -0.3354  0.3158  0.9911
  168SAPE   H5Y19008   3.637   1.344   7.350 -0.6958 -0.3367  2.2291
  168SAPE   C3619009   3.783   1.385   7.514 -0.0304 -0.7541  0.8192
  168SAPE   H6X19010   3.765   1.493   7.494 -0.8347 -0.7951  1.2675
  168SAPE   H6Y19011   3.892   1.376   7.534 -0.4562 -1.3648  3.1594
  168SAPE   C3719012   3.704   1.332   7.630  0.0266  0.4298  0.4315
  168SAPE   H7X19013   3.735   1.226   7.641  1.6445  0.9131  0.8877
  168SAPE   H7Y19014   3.594   1.338   7.614  0.0171 -1.1741 -0.2336
  168SAPE   C3819015   3.739   1.404   7.754 -0.9063 -0.5391  0.6845
  168SAPE   H8X19016   3.717   1.511   7.736 -0.1404 -0.4375  0.3266
  168SAPE   H8Y19017   3.849   1.411   7.763 -0.6109 -1.7904 -1.1991
  168SAPE   C3919018   3.684   1.343   7.883 -0.3009  0.0820 -0.3127
  168SAPE   H9X19019   3.732   1.245   7.903  0.7069  0.8098  0.9342
  168SAPE   H9Y19020   3.576   1.319   7.871  0.0517 -1.3883 -0.7643
  168SAPE  C31019021   3.714   1.433   8.000 -0.1845  0.4528  0.4789
  168SAPE  H10X19022   3.813   1.485   7.995  0.1796 -0.1653  1.1575
  168SAPE  H10Y19023   3.705   1.366   8.088  0.6377 -0.0441  0.1916
  168SAPE  C31119024   3.608   1.545   8.017 -0.5123 -0.1570 -0.3379
  168SAPE  H11X19025   3.600   1.613   7.931  0.4799 -0.8421 -0.9934
  168SAPE  H11Y19026   3.648   1.605   8.102 -1.9315 -0.1559  0.3666
  168SAPE  C31219027   3.467   1.494   8.060  0.0394 -0.4917  0.2646
  168SAPE  H12X19028   3.460   1.413   8.136 -0.4670 -1.7347 -1.0799
  168SAPE  H12Y19029   3.431   1.459   7.961  1.5045 -0.8571 -0.1672
  168SAPE  C31319030   3.380   1.624   8.088 -0.2740  0.1003 -0.7391
  168SAPE  H13X19031   3.272   1.598   8.087  0.3751 -3.3432  1.2366
  168SAPE  H13Y19032   3.402   1.707   8.017  0.4110  0.2374 -0.3755
  168SAPE  C31419033   3.409   1.680   8.229 -0.5557 -0.2929 -0.7723
  168SAPE  H14X19034   3.337   1.763   8.247  0.6673  1.2716 -2.6518
  168SAPE  H14Y19035   3.505   1.734   8.217 -0.6640 -0.0592 -0.6043
  168SAPE  C31519036   3.403   1.585   8.348 -0.0961  0.3927 -0.1096
  168SAPE  H15X19037   3.500   1.531   8.341 -0.5821 -0.5810  0.4439
  168SAPE  H15Y19038   3.312   1.522   8.343 -1.0134  1.6845 -0.0177
  168SAPE  C31619039   3.400   1.663   8.487  0.1987  0.4638 -0.4013
  168SAPE  H16X19040   3.476   1.744   8.488  0.0855  0.6037 -1.8083
  168SAPE  H16Y19041   3.425   1.592   8.569  0.6286  1.4177  0.3223
  168SAPE  C31719042   3.257   1.723   8.511 -0.5031 -0.6950 -0.7024
  168SAPE  H17X19043   3.228   1.783   8.423 -1.6780  0.1799  0.2513
  168SAPE  H17Y19044   3.268   1.790   8.599  0.0918  0.5210 -1.6749
  168SAPE  C31819045   3.152   1.609   8.535 -0.8780 -0.4425 -0.5248
  168SAPE  H18X19046   3.133   1.560   8.437  0.4586  1.4667 -1.8100
  168SAPE  H18Y19047   3.057   1.646   8.579 -0.7989  2.1830 -2.3042
  168SAPE  H18Z19048   3.194   1.540   8.611 -1.5719  0.9437  1.1798
  169SAPE     N19049   5.811   2.837   6.277 -0.4018 -0.4804  0.5646
  169SAPE   HN119050   5.885   2.794   6.335 -0.2802  0.3139  1.0216
  169SAPE   HN219051   5.760   2.759   6.231  0.6212 -0.1133 -1.2721
  169SAPE   HN319052   5.861   2.897   6.208  1.1127 -2.1778  0.1291
  169SAPE   C1219053   5.717   2.926   6.358  0.4944  0.3790  0.4370
  169SAPE  H12A19054   5.666   2.862   6.433 -1.4709  1.9965  0.5814
  169SAPE  H12B19055   5.626   2.946   6.297  0.6934  2.3048  0.6981
  169SAPE   C1119056   5.784   3.047   6.417 -0.2753 -0.2959  0.4158
  169SAPE  H11A19057   5.881   3.024   6.466 -0.3869 -1.0943  0.2897
  169SAPE  H11B19058   5.713   3.086   6.494  0.2493 -2.3601  2.0500
  169SAPE     P19059   5.907   3.265   6.347 -0.4032  0.1529 -0.1873
  169SAPE   O1319060   6.034   3.225   6.273 -0.6744 -0.4880  0.4065
  169SAPE   O1419061   5.850   3.399   6.313  0.8872  0.3041  0.3092
  169SAPE   O1219062   5.799   3.151   6.322 -0.1205  0.3355  0.0822
  169SAPE   O1119063   5.928   3.248   6.508 -0.3995 -0.6865  0.1978
  169SAPE    C119064   5.841   3.304   6.606 -0.0683  0.1720  0.3411
  169SAPE    HA19065   5.854   3.414   6.611 -1.1463  0.3097  0.4267
  169SAPE    HB19066   5.735   3.290   6.575 -0.7529  0.2203  2.4475
  169SAPE    C219067   5.853   3.227   6.740 -0.0613  0.0238  0.0529
  169SAPE    HS19068   5.948   3.261   6.787 -1.1043  3.5089 -0.0857
  169SAPE   O2119069   5.836   3.087   6.715 -0.0021  0.4070 -0.5810
  169SAPE   C2119070   5.944   3.012   6.718 -0.1999  0.3739 -0.0646
  169SAPE   O2219071   6.059   3.055   6.725  0.4851  0.4514  0.2054
  169SAPE   C2219072   5.918   2.861   6.729  0.0109  0.8929  0.4608
  169SAPE   H2R19073   5.815   2.836   6.696 -0.1143  0.1324  1.3694
  169SAPE   H2S19074   5.987   2.822   6.651  1.7399  0.0698  2.3075
  169SAPE    C319075   5.743   3.282   6.830 -0.4498  0.8561 -0.3166
  169SAPE    HX19076   5.651   3.264   6.770 -1.2939  0.7528  0.9689
  169SAPE    HY19077   5.752   3.391   6.851 -0.4964  1.0494 -1.2607
  169SAPE   O3119078   5.714   3.199   6.946 -0.3192  0.2438  0.1849
  169SAPE   C3119079   5.814   3.194   7.034  0.1861 -0.9502  0.7507
  169SAPE   O3219080   5.911   3.266   7.030 -0.2339 -0.3045  0.0536
  169SAPE   C3219081   5.777   3.103   7.146 -0.0732 -0.3683 -0.1659
  169SAPE   H2X19082   5.844   3.014   7.138 -0.5916 -0.6137 -2.4353
  169SAPE   H2Y19083   5.679   3.054   7.124 -0.4158  0.6854 -1.0365
  169SAPE   C2319084   5.950   2.796   6.866 -0.2254 -0.4182  0.6356
  169SAPE   H3R19085   5.912   2.857   6.951 -0.3886 -1.7426  1.5494
  169SAPE   H3S19086   6.061   2.795   6.877  0.2135 -0.2134 -2.6869
  169SAPE   C2419087   5.901   2.648   6.870 -0.1134 -0.1296  0.2160
  169SAPE   H4R19088   5.933   2.606   6.772 -0.3343 -0.7188  0.3871
  169SAPE   H4S19089   5.790   2.645   6.873 -0.2086 -0.0300 -1.6015
  169SAPE   C2519090   5.959   2.580   6.990  0.1337  0.6924 -0.4074
  169SAPE   H5R19091   6.040   2.512   6.959  0.1451  0.5608 -0.0860
  169SAPE   C2619092   5.931   2.598   7.121 -0.0495 -0.0139  0.9413
  169SAPE   H6R19093   5.973   2.534   7.199 -0.4915 -1.3737  0.1073
  169SAPE   C2719094   5.828   2.698   7.166  0.2457  0.5904 -0.7669
  169SAPE   H7R19095   5.733   2.644   7.187  1.5476 -2.2345 -1.6489
  169SAPE   H7S19096   5.786   2.778   7.102 -1.1310  0.2059 -0.3755
  169SAPE   C2819097   5.867   2.762   7.299 -0.6104 -0.8098  0.1574
  169SAPE   H8R19098   5.889   2.869   7.287 -1.9701 -0.6323 -1.0033
  169SAPE   C2919099   5.853   2.708   7.429  0.1029  0.6088  0.1670
  169SAPE   H9R19100   5.871   2.779   7.511 -3.8186  0.1497  1.6089
  169SAPE  C21019101   5.798   2.570   7.460  0.7460 -0.1035  0.7860
  169SAPE  H10R19102   5.770   2.502   7.377  0.8871 -1.2897  1.6911
  169SAPE  H10S19103   5.709   2.567   7.527  1.6531  0.2344  2.0446
  169SAPE  C21119104   5.920   2.495   7.510 -0.6351 -0.8534 -0.9680
  169SAPE  H11R19105   5.975   2.457   7.423  0.0015  1.1874 -1.5307
  169SAPE  C21219106   5.966   2.475   7.640 -0.5015 -0.0542 -0.1182
  169SAPE  H12R19107   6.056   2.416   7.663  0.0960  1.0739  0.5219
  169SAPE  C21319108   5.891   2.539   7.755  0.3838 -0.3496  0.6319
  169SAPE  H13R19109   5.813   2.600   7.705  1.4888  0.0058 -0.7465
  169SAPE  H13S19110   5.957   2.615   7.802 -1.7624  1.0772  1.4714
  169SAPE  C21419111   5.824   2.441   7.850 -0.2002  0.1316  0.2901
  169SAPE  H14R19112   5.720   2.426   7.817  0.4946 -0.9857 -1.5468
  169SAPE  C21519113   5.877   2.373   7.956  1.0700  0.0536 -0.6745
  169SAPE  H15R19114   5.818   2.298   8.010  2.1308 -2.0977 -2.3755
  169SAPE  C21619115   6.017   2.385   7.997 -0.0546  0.6303  0.4309
  169SAPE  H16R19116   6.057   2.488   7.985 -0.5889  0.7206 -0.7615
  169SAPE  H16S19117   6.069   2.311   7.931 -2.2292 -0.4808 -0.1322
  169SAPE  C21719118   6.044   2.352   8.151  0.1695 -0.0132  0.2035
  169SAPE  H17R19119   6.155   2.345   8.155  0.1012 -0.8490  0.9110
  169SAPE  H17S19120   6.008   2.250   8.178  0.9272 -0.3381  0.0268
  169SAPE  C21819121   6.001   2.450   8.252  0.0096  0.2508  0.1778
  169SAPE  H18R19122   6.007   2.413   8.357 -0.0554 -1.9158 -0.5337
  169SAPE  H18S19123   5.892   2.466   8.235 -0.5486 -1.9675  1.1908
  169SAPE  C21919124   6.083   2.577   8.240  0.3117 -0.0429 -0.3720
  169SAPE  H19R19125   6.042   2.641   8.158  0.4552  1.3621  0.6212
  169SAPE  H19S19126   6.186   2.555   8.204  0.5839 -1.0357  0.9423
  169SAPE  C22019127   6.083   2.663   8.365 -0.1805 -0.1449 -0.6477
  169SAPE  H20R19128   6.073   2.768   8.330 -1.9847  0.6681  2.0199
  169SAPE  H20S19129   6.180   2.636   8.413  0.1490 -0.3425 -1.3995
  169SAPE  H20T19130   6.001   2.645   8.438  1.5180  1.5494  1.8312
  169SAPE   C3319131   5.787   3.168   7.280  0.5249 -0.3536  0.1537
  169SAPE   H3X19132   5.891   3.202   7.303 -0.4209  0.8991  3.1394
  169SAPE   H3Y19133   5.772   3.101   7.367 -0.6093  1.3320  1.3195
  169SAPE   C3419134   5.692   3.280   7.306  0.8332 -0.7960  0.1687
  169SAPE   H4X19135   5.595   3.235   7.334  0.6810  0.3990  1.7261
  169SAPE   H4Y19136   5.674   3.341   7.215  0.0440 -2.9839 -1.2240
  169SAPE   C3519137   5.725   3.372   7.417 -1.1888 -0.2555  0.0871
  169SAPE   H5X19138   5.659   3.462   7.418  0.6923  1.1753  0.5586
  169SAPE   H5Y19139   5.819   3.427   7.394  0.0454 -1.0950  2.7112
  169SAPE   C3619140   5.737   3.312   7.562 -0.5416 -0.0207  0.4391
  169SAPE   H6X19141   5.841   3.274   7.570  0.7736  3.0743 -0.4028
  169SAPE   H6Y19142   5.670   3.224   7.576 -0.9409 -0.1391 -1.8898
  169SAPE   C3719143   5.717   3.416   7.669 -0.1354  0.6200 -0.1896
  169SAPE   H7X19144   5.616   3.460   7.667  0.2766  1.5838 -0.5745
  169SAPE   H7Y19145   5.780   3.500   7.632  0.5742 -0.5330 -1.6917
  169SAPE   C3819146   5.759   3.362   7.803  0.0312  0.6334 -0.8310
  169SAPE   H8X19147   5.863   3.324   7.806 -0.7506 -1.5779  1.0921
  169SAPE   H8Y19148   5.690   3.278   7.822  1.1720 -0.7561 -2.5094
  169SAPE   C3919149   5.740   3.467   7.916  0.7465  0.6770  0.1084
  169SAPE   H9X19150   5.635   3.502   7.922  1.6261  3.3505  3.1351
  169SAPE   H9Y19151   5.811   3.551   7.901 -1.2019  2.2099 -0.9519
  169SAPE  C31019152   5.774   3.408   8.054 -0.1290  0.2203 -0.5715
  169SAPE  H10X19153   5.885   3.415   8.057  0.0079 -1.6733 -0.4235
  169SAPE  H10Y19154   5.744   3.301   8.056 -0.9745  0.4393  1.5178
  169SAPE  C31119155   5.707   3.475   8.169 -0.2334  0.8248 -0.1991
  169SAPE  H11X19156   5.606   3.430   8.171  0.4332 -0.7218  1.6673
  169SAPE  H11Y19157   5.700   3.583   8.144 -1.8185  0.2916 -2.3694
  169SAPE  C31219158   5.778   3.457   8.308  0.6521 -0.4379 -0.0690
  169SAPE  H12X19159   5.884   3.482   8.288  1.0418 -0.8243  1.4012
  169SAPE  H12Y19160   5.778   3.350   8.336  0.6554 -0.0542  1.5482
  169SAPE  C31319161   5.712   3.541   8.421  0.0193 -0.4451 -0.0076
  169SAPE  H13X19162   5.624   3.481   8.454 -0.1906 -1.3011 -1.9879
  169SAPE  H13Y19163   5.679   3.633   8.369  0.2046 -0.4002 -0.0476
  169SAPE  C31419164   5.817   3.577   8.525 -0.5059  0.4158  0.6172
  169SAPE  H14X19165   5.770   3.654   8.590 -0.5819  1.2538 -0.4044
  169SAPE  H14Y19166   5.907   3.631   8.488 -1.6738  1.1583 -1.2855
  169SAPE  C31519167   5.870   3.453   8.609  0.3642 -0.0583 -0.1740
  169SAPE  H15X19168   5.926   3.389   8.538  0.7053  0.2504 -0.1843
  169SAPE  H15Y19169   5.787   3.388   8.644  0.9985 -0.4921  0.5571
  169SAPE  C31619170   5.957   3.494   8.729  0.1805  0.4332 -0.6416
  169SAPE  H16X19171   5.926   3.593   8.770 -0.0807  0.2003 -0.2708
  169SAPE  H16Y19172   6.060   3.505   8.688  0.5948 -1.1763 -0.1173
  169SAPE  C31719173   5.968   3.400   8.845  0.1325 -0.2418  0.8258
  169SAPE  H17X19174   5.976   3.295   8.809 -1.1354  0.0214 -0.3301
  169SAPE  H17Y19175   5.871   3.389   8.898 -0.1733 -0.6755  0.1964
  169SAPE  C31819176   6.080   3.434   8.939 -0.4744  0.1321  0.1958
  169SAPE  H18X19177   6.068   3.392   9.041 -1.2142  0.6003  0.3103
  169SAPE  H18Y19178   6.092   3.543   8.958 -0.5607  0.0865  0.5216
  169SAPE  H18Z19179   6.175   3.399   8.893 -0.8775  0.4378 -0.9060
  170SAPE     N19180   3.809   1.486   6.280  0.0532 -0.1056 -0.0326
  170SAPE   HN119181   3.717   1.484   6.232 -0.3729 -1.8422  0.7947
  170SAPE   HN219182   3.816   1.574   6.335  2.3106 -1.2882  1.7522
  170SAPE   HN319183   3.893   1.496   6.219  0.6609 -0.2378  0.7621
  170SAPE   C1219184   3.828   1.354   6.354 -0.1716  0.2273  0.6447
  170SAPE  H12A19185   3.815   1.270   6.282  2.0215 -0.1349  0.5986
  170SAPE  H12B19186   3.740   1.348   6.421 -1.5693 -3.2117 -1.2357
  170SAPE   C1119187   3.970   1.349   6.421  0.5228  0.0711 -0.3622
  170SAPE  H11A19188   3.972   1.243   6.456 -0.1453  0.3116  0.4545
  170SAPE  H11B19189   3.967   1.407   6.515  0.9168 -0.1630 -0.2035
  170SAPE     P19190   4.133   1.299   6.217 -0.1100  0.0708 -0.0428
  170SAPE   O1319191   4.023   1.222   6.152  0.4013  0.2497  0.5356
  170SAPE   O1419192   4.219   1.383   6.130  0.0262  0.2780 -0.2013
  170SAPE   O1219193   4.081   1.376   6.342 -0.4264  0.0660 -0.6006
  170SAPE   O1119194   4.225   1.198   6.295 -0.9852  0.0358  0.0523
  170SAPE    C119195   4.332   1.228   6.380  0.0214 -0.1372 -0.2395
  170SAPE    HA19196   4.409   1.149   6.360  0.2712 -0.0325  0.3076
  170SAPE    HB19197   4.371   1.329   6.355  0.3664  0.0021  0.8134
  170SAPE    C219198   4.305   1.220   6.534 -0.3173 -0.3467 -1.0073
  170SAPE    HS19199   4.231   1.301   6.553 -2.2867 -2.0287 -1.0114
  170SAPE   O2119200   4.419   1.224   6.617  0.1988 -0.3643  0.2807
  170SAPE   C2119201   4.470   1.346   6.633 -0.4562  0.1601 -0.9253
  170SAPE   O2219202   4.433   1.449   6.581 -0.4378 -0.4553 -0.7795
  170SAPE   C2219203   4.582   1.341   6.737 -0.1339 -1.0383 -0.0760
  170SAPE   H2R19204   4.663   1.281   6.690  2.1090  0.3319  1.8707
  170SAPE   H2S19205   4.627   1.441   6.752  0.0735 -0.9212 -1.4109
  170SAPE    C319206   4.231   1.084   6.566 -0.2537  0.4619 -0.3488
  170SAPE    HX19207   4.306   1.008   6.535  0.4874  0.2475  1.7630
  170SAPE    HY19208   4.140   1.079   6.504  0.4878  0.9933 -1.5077
  170SAPE   O3119209   4.194   1.070   6.706 -0.1824  0.0778 -1.3152
  170SAPE   C3119210   4.152   0.949   6.740  0.0485 -0.3531 -0.9128
  170SAPE   O3219211   4.167   0.850   6.669  0.4923 -0.2500 -0.7655
  170SAPE   C3219212   4.094   0.941   6.887  0.2595 -0.5696  0.2454
  170SAPE   H2X19213   4.092   0.838   6.929 -0.3064  0.0807  1.9075
  170SAPE   H2Y19214   3.988   0.973   6.873  0.7433  1.3894  0.7597
  170SAPE   C2319215   4.538   1.277   6.866 -0.5580  0.0894  0.5609
  170SAPE   H3R19216   4.620   1.287   6.941 -0.0729  1.7923 -0.1508
  170SAPE   H3S19217   4.534   1.167   6.852  1.0382  0.2471 -1.8724
  170SAPE   C2419218   4.416   1.324   6.939  0.0084  0.0606  0.8900
  170SAPE   H4R19219   4.399   1.254   7.024 -2.3108 -0.6905 -0.0928
  170SAPE   H4S19220   4.335   1.296   6.868  0.8696  1.7887 -0.8569
  170SAPE   C2519221   4.405   1.465   6.992 -0.4081  0.5896  0.4085
  170SAPE   H5R19222   4.379   1.540   6.916 -0.4925  0.4899  0.3386
  170SAPE   C2619223   4.434   1.495   7.120 -0.4690  0.1534  0.1768
  170SAPE   H6R19224   4.415   1.599   7.150 -0.3985 -0.5811  3.0246
  170SAPE   C2719225   4.476   1.401   7.233 -0.3385 -0.7822  0.3879
  170SAPE   H7R19226   4.474   1.292   7.212  0.7213 -0.7337 -0.0169
  170SAPE   H7S19227   4.409   1.415   7.321  0.8127  2.3089  0.9096
  170SAPE   C2819228   4.620   1.435   7.262  0.4628  0.5486  0.0923
  170SAPE   H8R19229   4.694   1.412   7.184 -0.4004  0.2397 -0.6646
  170SAPE   C2919230   4.672   1.472   7.378 -0.1457  0.1104 -0.5772
  170SAPE   H9R19231   4.779   1.492   7.391 -0.6720  1.4964  2.2871
  170SAPE  C21019232   4.596   1.481   7.510  0.0316  1.0277 -0.2829
  170SAPE  H10R19233   4.504   1.419   7.504  0.6998  0.1149 -1.5579
  170SAPE  H10S19234   4.577   1.587   7.537  1.4083  1.1601  0.2280
  170SAPE  C21119235   4.674   1.411   7.618 -0.2564  0.3516 -0.5974
  170SAPE  H11R19236   4.703   1.307   7.597 -1.0342 -0.6965  2.8886
  170SAPE  C21219237   4.681   1.449   7.745 -0.5750  0.6672 -0.0171
  170SAPE  H12R19238   4.728   1.383   7.820 -2.2000 -0.6105 -0.0830
  170SAPE  C21319239   4.606   1.569   7.799 -0.2844 -0.7304 -0.2725
  170SAPE  H13R19240   4.610   1.660   7.736  2.1081  0.2661  1.1673
  170SAPE  H13S19241   4.666   1.606   7.885 -2.3062  1.1184  0.4522
  170SAPE  C21419242   4.469   1.535   7.847  0.9445 -0.1509 -0.0675
  170SAPE  H14R19243   4.404   1.487   7.773 -0.5392 -0.5330  1.4325
  170SAPE  C21519244   4.407   1.570   7.967  0.5042 -0.0274  0.1806
  170SAPE  H15R19245   4.303   1.546   7.992  1.0270 -0.0370  2.5557
  170SAPE  C21619246   4.473   1.647   8.077 -0.3259  0.9071 -0.4434
  170SAPE  H16R19247   4.409   1.731   8.112  2.1519  2.1665  1.3449
  170SAPE  H16S19248   4.568   1.696   8.047  0.9915 -0.6691  0.9604
  170SAPE  C21719249   4.525   1.555   8.191 -0.6334 -0.7588  0.1045
  170SAPE  H17R19250   4.610   1.489   8.163 -0.1099 -0.6991  1.5008
  170SAPE  H17S19251   4.432   1.508   8.227  0.6692 -1.9984  2.0465
  170SAPE  C21819252   4.575   1.636   8.306 -0.4969  0.2015  0.0441
  170SAPE  H18R19253   4.501   1.717   8.328  0.1789  0.3116  2.1147
  170SAPE  H18S19254   4.665   1.698   8.285 -1.3506  1.0084 -1.3875
  170SAPE  C21919255   4.598   1.549   8.432 -1.2063 -0.0563 -0.1411
  170SAPE  H19R19256   4.685   1.485   8.404 -2.4628 -1.8122 -0.1527
  170SAPE  H19S19257   4.514   1.478   8.449  0.4395 -1.7786  1.2830
  170SAPE  C22019258   4.652   1.631   8.558  0.1191 -0.1401  0.1121
  170SAPE  H20R19259   4.746   1.671   8.514 -0.5163  0.1097 -1.0309
  170SAPE  H20S19260   4.653   1.573   8.653 -1.7777  1.5231  1.2225
  170SAPE  H20T19261   4.577   1.711   8.573 -0.9753 -1.3473  1.4393
  170SAPE   C3319262   4.168   1.039   6.983 -0.6781  0.2052  0.1686
  170SAPE   H3X19263   4.119   1.136   6.961 -1.0648 -0.4597 -2.1941
  170SAPE   H3Y19264   4.279   1.044   6.982 -0.6306  0.8349  2.8589
  170SAPE   C3419265   4.142   0.991   7.129  0.2469  0.9527 -0.3958
  170SAPE   H4X19266   4.193   0.894   7.150  0.0744  1.1139  0.8522
  170SAPE   H4Y19267   4.033   0.971   7.138 -0.0068  1.4143 -2.2036
  170SAPE   C3519268   4.193   1.097   7.216 -0.0865 -0.5804 -1.4980
  170SAPE   H5X19269   4.136   1.191   7.201 -0.4196 -0.4126  0.4644
  170SAPE   H5Y19270   4.301   1.113   7.199 -0.0191  0.4356 -0.3033
  170SAPE   C3619271   4.175   1.062   7.362 -0.6734 -0.5937 -0.3288
  170SAPE   H6X19272   4.245   0.981   7.391  0.1650 -0.2728 -1.4147
  170SAPE   H6Y19273   4.072   1.029   7.390 -1.2360  0.8580 -0.6029
  170SAPE   C3719274   4.208   1.186   7.454 -0.3432 -0.7973  0.8648
  170SAPE   H7X19275   4.122   1.254   7.437  0.4234 -0.2369 -1.0869
  170SAPE   H7Y19276   4.289   1.245   7.406 -0.0282 -1.7153  0.2214
  170SAPE   C3819277   4.227   1.160   7.604  0.0359  0.2330  0.4575
  170SAPE   H8X19278   4.320   1.100   7.613 -1.0263 -1.3235  1.7212
  170SAPE   H8Y19279   4.149   1.083   7.625  1.1573 -0.6376  1.6253
  170SAPE   C3919280   4.215   1.286   7.688 -0.2686 -0.0710  0.3077
  170SAPE   H9X19281   4.128   1.343   7.649  0.7111  0.1208 -1.7106
  170SAPE   H9Y19282   4.308   1.345   7.679 -0.1620 -0.5740 -3.9562
  170SAPE  C31019283   4.206   1.254   7.832  0.3091  0.6475  0.2615
  170SAPE  H10X19284   4.225   1.348   7.889  1.6167  1.8454 -2.0065
  170SAPE  H10Y19285   4.299   1.201   7.862 -0.6351  0.3565  2.9600
  170SAPE  C31119286   4.084   1.179   7.873 -0.0701  0.9178 -0.3809
  170SAPE  H11X19287   4.088   1.082   7.818  0.1810  1.3276 -1.1066
  170SAPE  H11Y19288   3.993   1.235   7.842 -0.4457 -0.8023 -2.6895
  170SAPE  C31219289   4.082   1.163   8.025 -0.8228  0.6851 -0.0612
  170SAPE  H12X19290   4.113   1.253   8.082  5.4153 -1.4048  0.6378
  170SAPE  H12Y19291   4.168   1.099   8.053 -2.0583 -0.7597  0.5989
  170SAPE  C31319292   3.963   1.080   8.081 -0.6809 -0.2950  0.3286
  170SAPE  H13X19293   3.945   0.986   8.025 -0.6947 -1.0154  1.4902
  170SAPE  H13Y19294   3.872   1.143   8.089  0.7661  1.9317  0.2055
  170SAPE  C31419295   4.000   1.029   8.221 -0.8340 -0.4758  0.2010
  170SAPE  H14X19296   4.014   1.109   8.297  0.2093  0.0628 -0.5309
  170SAPE  H14Y19297   4.093   0.968   8.219 -1.7605 -1.9773  1.1088
  170SAPE  C31519298   3.900   0.932   8.276 -0.2001  0.7718 -0.5472
  170SAPE  H15X19299   3.953   0.900   8.369  1.2663 -0.6437 -1.8022
  170SAPE  H15Y19300   3.875   0.852   8.203  2.4003  1.1510 -1.9815
  170SAPE  C31619301   3.768   0.998   8.317 -0.7579 -0.3846  0.5381
  170SAPE  H16X19302   3.718   1.054   8.236 -2.5800  0.3769  2.1078
  170SAPE  H16Y19303   3.808   1.068   8.395  1.5511 -0.4306 -0.5121
  170SAPE  C31719304   3.657   0.898   8.382 -0.1448 -0.1793  0.5258
  170SAPE  H17X19305   3.634   0.816   8.311 -0.4601 -0.6320  1.1314
  170SAPE  H17Y19306   3.555   0.941   8.393 -0.3143 -1.1408  3.7225
  170SAPE  C31819307   3.702   0.830   8.512 -0.6096  0.2198 -0.3593
  170SAPE  H18X19308   3.745   0.902   8.586  1.1557  0.0818 -1.1872
  170SAPE  H18Y19309   3.797   0.774   8.495 -1.0306 -0.7684  0.4497
  170SAPE  H18Z19310   3.628   0.761   8.556  0.2200  0.2948  1.2598
  171SAPE     N19311   5.722   0.907   6.187 -0.5537 -0.7218 -0.3399
  171SAPE   HN119312   5.790   0.986   6.195  0.2496 -1.5618  1.9553
  171SAPE   HN219313   5.770   0.836   6.128  2.5031  0.9280 -0.0530
  171SAPE   HN319314   5.649   0.953   6.130  1.8494  1.1213 -2.1594
  171SAPE   C1219315   5.690   0.853   6.319  0.0646 -0.2335 -0.5729
  171SAPE  H12A19316   5.614   0.772   6.315  1.8256 -2.2074  2.1792
  171SAPE  H12B19317   5.649   0.927   6.391 -1.4763  0.5131 -2.1484
  171SAPE   C1119318   5.822   0.803   6.383  0.2495  0.0542  0.1249
  171SAPE  H11A19319   5.853   0.705   6.343 -2.2021 -1.1033  0.8656
  171SAPE  H11B19320   5.796   0.784   6.490  2.8141 -0.2510  0.7481
  171SAPE     P19321   6.073   0.872   6.323 -0.2346  0.0874  0.5645
  171SAPE   O1319322   6.072   0.749   6.246 -0.2265  0.2048 -0.3567
  171SAPE   O1419323   6.106   1.002   6.250  0.2342  0.1617  0.1128
  171SAPE   O1219324   5.926   0.902   6.377  0.1736  0.2117  0.1420
  171SAPE   O1119325   6.155   0.858   6.450 -0.3305  0.1236  0.3938
  171SAPE    C119326   6.179   0.729   6.514  0.5124 -0.4413  0.0243
  171SAPE    HA19327   6.088   0.676   6.548  2.3375 -3.2985  0.8371
  171SAPE    HB19328   6.214   0.662   6.432  0.0621  1.2130 -1.5919
  171SAPE    C219329   6.285   0.720   6.632 -0.5858  0.5135  0.1943
  171SAPE    HS19330   6.291   0.622   6.684  1.2553  0.2247 -0.4791
  171SAPE   O2119331   6.259   0.819   6.722  0.1153  0.5165  0.6679
  171SAPE   C2119332   6.165   0.798   6.818  0.2898  0.5841  0.4185
  171SAPE   O2219333   6.105   0.692   6.836 -0.4001  0.2121 -0.0020
  171SAPE   C2219334   6.171   0.916   6.921  0.2099 -0.2175  0.8468
  171SAPE   H2R19335   6.271   0.965   6.911 -0.3286  0.5964 -0.8787
  171SAPE   H2S19336   6.104   0.993   6.877  0.2832 -0.3954  0.4240
  171SAPE    C319337   6.431   0.737   6.569 -0.1233  0.4053  0.0409
  171SAPE    HX19338   6.423   0.838   6.524  0.3630  0.1916 -0.5285
  171SAPE    HY19339   6.433   0.662   6.487 -0.0857 -0.2800  0.6533
  171SAPE   O3119340   6.533   0.722   6.672  0.2730 -0.2384 -0.3768
  171SAPE   C3119341   6.566   0.829   6.739  0.3543  0.0942 -0.1719
  171SAPE   O3219342   6.510   0.936   6.736 -0.5371  0.3060  0.2857
  171SAPE   C3219343   6.683   0.793   6.834  0.2456 -0.0605  0.0445
  171SAPE   H2X19344   6.731   0.889   6.864 -0.9581  0.8139 -0.7154
  171SAPE   H2Y19345   6.757   0.745   6.768  0.3156  1.2497 -0.8783
  171SAPE   C2319346   6.119   0.855   7.051  0.1874 -0.0181  0.3787
  171SAPE   H3R19347   6.031   0.789   7.043  0.6996 -0.5403 -1.3849
  171SAPE   H3S19348   6.097   0.938   7.123 -0.8612 -1.1061  1.3481
  171SAPE   C2419349   6.230   0.782   7.123 -0.1049 -0.1570 -0.1304
  171SAPE   H4R19350   6.305   0.851   7.168  1.6437 -1.9061 -0.2320
  171SAPE   H4S19351   6.283   0.714   7.052  0.6198 -0.9298  1.1160
  171SAPE   C2519352   6.160   0.708   7.233 -0.2254  0.3714  0.0111
  171SAPE   H5R19353   6.085   0.636   7.197  0.3739 -0.3566  0.1722
  171SAPE   C2619354   6.175   0.717   7.366  0.0542 -0.5462  0.6328
  171SAPE   H6R19355   6.121   0.648   7.433  0.8200 -1.6282  0.1591
  171SAPE   C2719356   6.271   0.804   7.438 -0.2843 -0.0454 -0.1517
  171SAPE   H7R19357   6.369   0.789   7.389  0.1412 -0.1536  0.7107
  171SAPE   H7S19358   6.304   0.764   7.536  1.0631 -1.0739 -0.9803
  171SAPE   C2819359   6.229   0.944   7.459 -0.0808 -0.6798  0.8133
  171SAPE   H8R19360   6.222   0.998   7.364  3.4590  0.0117  0.8256
  171SAPE   C2919361   6.211   1.008   7.574 -0.0071 -0.1605 -0.5817
  171SAPE   H9R19362   6.192   1.117   7.571 -0.7536 -0.2768 -0.4796
  171SAPE  C21019363   6.225   0.968   7.717 -0.1453  0.4771 -0.4358
  171SAPE  H10R19364   6.215   1.060   7.779  1.3731  0.3731  0.0253
  171SAPE  H10S19365   6.324   0.921   7.738 -0.6816  0.2911  1.9947
  171SAPE  C21119366   6.113   0.874   7.755 -0.4907 -0.9703 -0.3843
  171SAPE  H11R19367   6.024   0.867   7.690 -2.0238 -3.2952  1.7678
  171SAPE  C21219368   6.105   0.805   7.868 -0.0586  0.2245  0.1480
  171SAPE  H12R19369   6.014   0.747   7.888  0.2617  0.3588  2.1453
  171SAPE  C21319370   6.213   0.792   7.974 -0.1703 -0.2606  0.0930
  171SAPE  H13R19371   6.312   0.791   7.923 -0.1977 -1.9356  0.0108
  171SAPE  H13S19372   6.223   0.695   8.027 -2.4743 -0.0758  0.9874
  171SAPE  C21419373   6.188   0.899   8.077  0.0241 -1.1610 -0.0671
  171SAPE  H14R19374   6.178   1.004   8.044  1.8447 -0.5780  1.0485
  171SAPE  C21519375   6.199   0.884   8.205  0.1389 -0.1770  0.1203
  171SAPE  H15R19376   6.192   0.972   8.272  1.2417  0.1811 -0.2217
  171SAPE  C21619377   6.237   0.763   8.287  0.1190 -0.2693 -0.2842
  171SAPE  H16R19378   6.300   0.694   8.227 -0.9832  0.5426 -2.4703
  171SAPE  H16S19379   6.148   0.708   8.324  0.5406 -0.2648  0.7782
  171SAPE  C21719380   6.326   0.804   8.405  0.0391 -0.2751 -0.0526
  171SAPE  H17R19381   6.283   0.888   8.465  0.1881 -0.6080  0.5311
  171SAPE  H17S19382   6.418   0.846   8.358 -0.4890 -0.7339 -1.5548
  171SAPE  C21819383   6.358   0.692   8.503 -0.1639 -0.1507  0.4733
  171SAPE  H18R19384   6.380   0.595   8.453  0.3289 -0.0726  0.5342
  171SAPE  H18S19385   6.285   0.682   8.586  0.3909 -0.2145  0.9604
  171SAPE  C21919386   6.496   0.711   8.577  0.4374  0.1305 -0.0463
  171SAPE  H19R19387   6.568   0.716   8.493  0.6646  2.6128  0.2173
  171SAPE  H19S19388   6.522   0.622   8.637 -0.6627 -1.0809 -1.3179
  171SAPE  C22019389   6.508   0.843   8.652  0.0890  0.4247 -0.0279
  171SAPE  H20R19390   6.606   0.845   8.705  1.0920  1.5636 -1.8189
  171SAPE  H20S19391   6.425   0.837   8.725 -2.2377 -0.0269 -2.5272
  171SAPE  H20T19392   6.494   0.932   8.588 -0.4143  0.7108  0.4755
  171SAPE   C3319393   6.631   0.701   6.949  0.3647  0.3172 -0.1683
  171SAPE   H3X19394   6.598   0.609   6.896 -0.6588  1.6557 -1.9848
  171SAPE   H3Y19395   6.540   0.741   7.000  0.4416  0.2336  0.0317
  171SAPE   C3419396   6.730   0.674   7.061 -0.1930 -0.6695 -0.1661
  171SAPE   H4X19397   6.778   0.769   7.094 -1.1452 -0.1641 -0.2009
  171SAPE   H4Y19398   6.815   0.619   7.016 -0.6129 -0.4769 -1.2247
  171SAPE   C3519399   6.681   0.592   7.176 -0.2725 -0.7279  0.2941
  171SAPE   H5X19400   6.689   0.487   7.140  1.1195 -1.9452  3.7129
  171SAPE   H5Y19401   6.574   0.612   7.200  0.2375  2.3629  0.3803
  171SAPE   C3619402   6.762   0.621   7.307  0.3451 -0.8025  0.8682
  171SAPE   H6X19403   6.741   0.725   7.342 -1.4829 -0.9379  0.2594
  171SAPE   H6Y19404   6.871   0.603   7.293  0.5157 -0.5517  1.8099
  171SAPE   C3719405   6.715   0.521   7.413 -0.2571  0.0528 -0.4381
  171SAPE   H7X19406   6.746   0.420   7.378 -0.0161  0.0374 -0.1918
  171SAPE   H7Y19407   6.605   0.527   7.422 -0.5887 -2.1103 -2.1545
  171SAPE   C3819408   6.803   0.543   7.545  0.0237 -0.5739 -0.3540
  171SAPE   H8X19409   6.799   0.648   7.581 -1.2896 -0.8199  0.2697
  171SAPE   H8Y19410   6.907   0.524   7.510  0.2617  1.7332 -1.1132
  171SAPE   C3919411   6.764   0.451   7.659 -0.0923 -0.4784 -0.0525
  171SAPE   H9X19412   6.768   0.348   7.618  2.3930  0.8224 -3.6019
  171SAPE   H9Y19413   6.665   0.479   7.701 -0.5428  0.0364 -1.3991
  171SAPE  C31019414   6.868   0.449   7.777 -0.9582  0.8423  0.3517
  171SAPE  H10X19415   6.885   0.555   7.804 -0.5998  0.9409 -0.2370
  171SAPE  H10Y19416   6.957   0.401   7.732 -0.6214  0.6869  1.1823
  171SAPE  C31119417   6.833   0.356   7.901 -0.4358 -0.4845 -0.0241
  171SAPE  H11X19418   6.855   0.251   7.870 -2.5786 -1.1402  0.5431
  171SAPE  H11Y19419   6.723   0.362   7.911 -0.2328  0.3874  2.2105
  171SAPE  C31219420   6.889   0.400   8.035 -0.1885 -0.0317  0.2834
  171SAPE  H12X19421   6.860   0.506   8.047 -1.1758 -0.3581  0.9330
  171SAPE  H12Y19422   7.000   0.398   8.021 -0.4824  0.3535 -2.5869
  171SAPE  C31319423   6.832   0.332   8.166  0.2443  0.5627  0.0420
  171SAPE  H13X19424   6.722   0.343   8.178  0.4151  2.9258 -0.1068
  171SAPE  H13Y19425   6.874   0.377   8.258  0.4447 -1.2624  0.8770
  171SAPE  C31419426   6.867   0.186   8.172  0.2299  0.2383  0.5867
  171SAPE  H14X19427   6.971   0.168   8.137  0.6363  1.3847  1.1722
  171SAPE  H14Y19428   6.795   0.127   8.111  1.4850 -1.9829  1.1238
  171SAPE  C31519429   6.849   0.130   8.317 -0.2307  0.3226 -0.1719
  171SAPE  H15X19430   6.742   0.143   8.342 -0.6460 -0.3715 -1.4715
  171SAPE  H15Y19431   6.910   0.187   8.389  0.7998  0.1905 -0.9137
  171SAPE  C31619432   6.888  -0.018   8.318 -0.4356  0.2751  0.5369
  171SAPE  H16X19433   6.983  -0.024   8.261 -1.2630  1.3435 -1.0236
  171SAPE  H16Y19434   6.816  -0.079   8.260  1.5345 -1.7719  0.0984
  171SAPE  C31719435   6.892  -0.085   8.450 -0.2205 -0.3144  0.2349
  171SAPE  H17X19436   6.964  -0.036   8.519 -0.0931 -3.1312  2.2907
  171SAPE  H17Y19437   6.938  -0.185   8.433  3.1412  0.5771  2.9847
  171SAPE  C31819438   6.756  -0.100   8.514 -0.1942  0.4431 -0.4863
  171SAPE  H18X19439   6.734  -0.015   8.583 -0.7217 -0.7511  0.8763
  171SAPE  H18Y19440   6.761  -0.187   8.583 -0.1636  1.5621  0.9886
  171SAPE  H18Z19441   6.667  -0.113   8.449  0.3776  1.1759 -1.4346
  172SAPE     N19442   5.629   6.038   6.687  0.3229  0.1961  0.6027
  172SAPE   HN119443   5.567   5.979   6.746  0.7472 -0.9974 -0.0894
  172SAPE   HN219444   5.603   6.005   6.592  0.9533  1.4561 -0.0261
  172SAPE   HN319445   5.728   6.013   6.707  0.5450  0.2615 -0.3609
  172SAPE   C1219446   5.609   6.185   6.705 -0.3724 -0.2398 -0.3701
  172SAPE  H12A19447   5.626   6.214   6.812  0.9510  0.5579 -0.7604
  172SAPE  H12B19448   5.505   6.208   6.674 -0.0192  0.2234 -1.2440
  172SAPE   C1119449   5.717   6.260   6.621  0.5549  0.1340  0.7654
  172SAPE  H11A19450   5.815   6.208   6.609 -0.0294 -0.3101 -3.1009
  172SAPE  H11B19451   5.726   6.364   6.660 -1.1367 -0.6985  3.7098
  172SAPE     P19452   5.741   6.384   6.388  0.1927  0.1024 -0.5829
  172SAPE   O1319453   5.888   6.377   6.408 -0.0244 -0.0112 -0.1475
  172SAPE   O1419454   5.679   6.366   6.258  0.9934  0.6837  0.1019
  172SAPE   O1219455   5.675   6.270   6.487  0.8180 -0.0515  0.2975
  172SAPE   O1119456   5.698   6.523   6.443  0.3789  0.3549  0.3506
  172SAPE    C119457   5.583   6.563   6.516 -0.5496  0.2871 -0.3171
  172SAPE    HA19458   5.492   6.600   6.464 -1.7786 -0.6651  1.0725
  172SAPE    HB19459   5.559   6.475   6.579  2.0542 -0.8133 -0.7414
  172SAPE    C219460   5.623   6.673   6.630  0.2608 -0.2746  0.6378
  172SAPE    HS19461   5.646   6.770   6.582  2.1377 -0.7088  0.6134
  172SAPE   O2119462   5.742   6.637   6.709 -0.1512 -0.2319  0.0049
  172SAPE   C2119463   5.780   6.733   6.794  0.7681  0.0411  0.5444
  172SAPE   O2219464   5.721   6.838   6.812 -0.4861 -0.7908 -0.2316
  172SAPE   C2219465   5.905   6.690   6.875  0.2332  0.0678 -1.4504
  172SAPE   H2R19466   5.893   6.582   6.898 -2.0458  0.5931  0.1882
  172SAPE   H2S19467   5.988   6.712   6.804 -1.1230  1.9132 -2.5391
  172SAPE    C319468   5.489   6.689   6.713  0.1630  0.9238 -0.0332
  172SAPE    HX19469   5.422   6.725   6.632  0.8939 -0.0629 -1.1074
  172SAPE    HY19470   5.491   6.780   6.776 -0.9504  1.6839 -1.0537
  172SAPE   O3119471   5.428   6.573   6.778 -0.0034  0.1101  0.0619
  172SAPE   C3119472   5.489   6.528   6.887  0.3284  0.4446  0.5474
  172SAPE   O3219473   5.584   6.579   6.946  0.6258  0.1581  0.8917
  172SAPE   C3219474   5.413   6.407   6.943 -0.1266 -0.6072 -0.1982
  172SAPE   H2X19475   5.477   6.364   7.023 -1.2572  2.3811  2.5406
  172SAPE   H2Y19476   5.392   6.339   6.857 -0.1748 -0.4752 -0.2910
  172SAPE   C2319477   5.915   6.774   7.004 -0.1657 -0.3664  0.0235
  172SAPE   H3R19478   5.825   6.762   7.068 -1.3724  4.7756 -0.2547
  172SAPE   H3S19479   5.915   6.884   6.986 -1.7310  0.1339  2.5763
  172SAPE   C2419480   6.042   6.740   7.090 -0.4312 -0.0069 -0.8074
  172SAPE   H4R19481   6.035   6.815   7.172  1.6296  1.0824 -1.5654
  172SAPE   H4S19482   6.137   6.779   7.049 -0.1028  2.7840  2.1424
  172SAPE   C2519483   6.045   6.599   7.152 -0.1988 -0.0054 -0.5686
  172SAPE   H5R19484   6.033   6.521   7.075 -0.2061 -0.4595 -0.1122
  172SAPE   C2619485   6.047   6.549   7.279 -0.2016 -0.4854  1.2332
  172SAPE   H6R19486   6.045   6.440   7.292 -0.1302 -0.4597  1.4530
  172SAPE   C2719487   6.054   6.631   7.401  0.1317 -0.4091  0.0654
  172SAPE   H7R19488   6.137   6.702   7.382  1.4595 -1.5513  1.3237
  172SAPE   H7S19489   6.085   6.567   7.487  1.7673  2.3063  1.6385
  172SAPE   C2819490   5.948   6.732   7.445 -0.7184  0.4977  0.1511
  172SAPE   H8R19491   5.885   6.762   7.360 -1.5057 -3.0595 -0.6692
  172SAPE   C2919492   5.939   6.791   7.566 -0.2719  0.3075 -0.0926
  172SAPE   H9R19493   5.856   6.853   7.602 -0.2087 -0.4685  1.4744
  172SAPE  C21019494   6.046   6.768   7.671 -0.1594  0.3665  0.2461
  172SAPE  H10R19495   6.144   6.768   7.618 -0.1654  0.0922  0.2302
  172SAPE  H10S19496   6.032   6.669   7.719 -2.2582  1.0873  1.2485
  172SAPE  C21119497   6.043   6.880   7.768 -0.0873 -0.0819 -0.5019
  172SAPE  H11R19498   6.121   6.953   7.740  0.4181 -1.4682 -2.9862
  172SAPE  C21219499   5.968   6.897   7.883 -0.8874  0.8526  0.2775
  172SAPE  H12R19500   5.985   6.980   7.953 -0.7739  0.3670  0.8411
  172SAPE  C21319501   5.866   6.793   7.930  0.1525  1.0478 -0.9830
  172SAPE  H13R19502   5.829   6.726   7.849  0.6161  0.6377 -0.8610
  172SAPE  H13S19503   5.775   6.845   7.968  0.2330 -1.8166  4.1176
  172SAPE  C21419504   5.928   6.705   8.040  0.4243  0.0599  0.3470
  172SAPE  H14R19505   6.031   6.678   8.015 -0.1547 -1.9026 -0.0848
  172SAPE  C21519506   5.895   6.706   8.167  0.2017  0.2906 -0.6395
  172SAPE  H15R19507   5.937   6.636   8.241 -2.0644 -1.0969 -0.5529
  172SAPE  C21619508   5.760   6.779   8.205  0.3784 -0.0176 -0.2262
  172SAPE  H16R19509   5.671   6.749   8.145  0.1145  3.2063 -1.6314
  172SAPE  H16S19510   5.765   6.888   8.186 -2.5874  0.4887  1.3434
  172SAPE  C21719511   5.729   6.765   8.362 -0.1310  0.1848 -0.0378
  172SAPE  H17R19512   5.662   6.850   8.387 -0.4632 -0.5021  1.5674
  172SAPE  H17S19513   5.827   6.783   8.412 -0.8083  1.6368  0.8251
  172SAPE  C21819514   5.672   6.625   8.407  0.1067 -0.2091  0.1265
  172SAPE  H18R19515   5.746   6.548   8.378  3.2483  2.6819 -0.1514
  172SAPE  H18S19516   5.579   6.606   8.349 -0.4217  0.5296  0.7116
  172SAPE  C21919517   5.649   6.604   8.559 -0.3013  0.2694 -0.0402
  172SAPE  H19R19518   5.605   6.503   8.572 -2.9928  0.9316 -2.8411
  172SAPE  H19S19519   5.561   6.662   8.594  0.5216  1.4021  0.2159
  172SAPE  C22019520   5.770   6.629   8.650  0.3249  0.5324  0.2312
  172SAPE  H20R19521   5.848   6.558   8.619 -0.2505 -0.4875  1.0463
  172SAPE  H20S19522   5.745   6.602   8.755  1.0501 -0.5730  0.1397
  172SAPE  H20T19523   5.811   6.732   8.645  2.5595 -0.3792 -2.1662
  172SAPE   C3319524   5.278   6.440   7.012  0.2983  0.1380 -0.3538
  172SAPE   H3X19525   5.233   6.349   7.057 -1.0558 -0.0608 -1.9759
  172SAPE   H3Y19526   5.212   6.489   6.936  0.7291  1.7444  0.2618
  172SAPE   C3419527   5.288   6.530   7.137  0.0210  0.5424 -0.4271
  172SAPE   H4X19528   5.184   6.569   7.140  0.2782  1.1897  0.2953
  172SAPE   H4Y19529   5.366   6.609   7.134 -1.1699  1.8452  0.9007
  172SAPE   C3519530   5.302   6.454   7.273 -0.6341  0.0717 -0.4528
  172SAPE   H5X19531   5.392   6.390   7.270 -0.5835  0.1177  0.0014
  172SAPE   H5Y19532   5.211   6.392   7.287 -0.2249 -0.7401 -1.3381
  172SAPE   C3619533   5.303   6.556   7.389  0.1002  0.5707 -0.5941
  172SAPE   H6X19534   5.210   6.616   7.383 -0.3493 -0.0687 -0.1695
  172SAPE   H6Y19535   5.396   6.614   7.372  0.8870 -0.6677 -0.6942
  172SAPE   C3719536   5.312   6.476   7.526  0.3843  0.4292 -0.0641
  172SAPE   H7X19537   5.409   6.421   7.527  0.9061  1.2883 -0.9847
  172SAPE   H7Y19538   5.232   6.399   7.522 -0.3738  1.1801  0.2874
  172SAPE   C3819539   5.295   6.569   7.646 -0.2067 -0.2712 -0.4834
  172SAPE   H8X19540   5.197   6.618   7.631 -0.2910 -0.9174 -2.2257
  172SAPE   H8Y19541   5.377   6.644   7.657 -1.6687  1.2798  0.4014
  172SAPE   C3919542   5.293   6.470   7.768 -0.0989  0.1821  1.1156
  172SAPE   H9X19543   5.387   6.411   7.767 -0.2809 -0.1214  1.8065
  172SAPE   H9Y19544   5.206   6.402   7.752 -0.2039  0.1846  1.6772
  172SAPE  C31019545   5.262   6.542   7.897  0.0303  0.6089  0.0727
  172SAPE  H10X19546   5.155   6.568   7.905 -0.2012  0.1353 -1.2121
  172SAPE  H10Y19547   5.320   6.636   7.896 -1.2126  1.4087  0.8286
  172SAPE  C31119548   5.304   6.452   8.017 -1.1228 -0.0655 -0.1445
  172SAPE  H11X19549   5.407   6.423   7.986 -1.0231 -0.1467  0.2662
  172SAPE  H11Y19550   5.236   6.366   8.035 -1.8965  0.0068 -2.3691
  172SAPE  C31219551   5.316   6.523   8.152 -0.3440  0.0939 -0.1605
  172SAPE  H12X19552   5.404   6.591   8.144 -0.4540  0.1260 -1.3286
  172SAPE  H12Y19553   5.333   6.447   8.231  0.0654 -0.7840 -1.0752
  172SAPE  C31319554   5.204   6.617   8.189 -0.1641  0.2490  0.1745
  172SAPE  H13X19555   5.121   6.592   8.120 -1.4286  1.0732  1.3370
  172SAPE  H13Y19556   5.224   6.723   8.161 -0.2822  0.3048  0.2987
  172SAPE  C31419557   5.164   6.600   8.335  0.0100  0.4524 -0.4027
  172SAPE  H14X19558   5.125   6.498   8.357  0.4093  0.1676 -0.9823
  172SAPE  H14Y19559   5.081   6.673   8.346  0.4420  0.9471 -0.4145
  172SAPE  C31519560   5.272   6.636   8.439  0.5671 -0.9795 -0.8558
  172SAPE  H15X19561   5.307   6.739   8.418 -0.9891 -0.3281 -0.3187
  172SAPE  H15Y19562   5.359   6.566   8.439  1.9568  0.5942  1.7134
  172SAPE  C31619563   5.211   6.652   8.580  0.8059  0.5783  0.2448
  172SAPE  H16X19564   5.103   6.654   8.554  1.1535 -3.0628 -2.2581
  172SAPE  H16Y19565   5.245   6.736   8.644 -0.9386  0.7091  1.0799
  172SAPE  C31719566   5.228   6.530   8.668  0.0735  0.5226 -0.4839
  172SAPE  H17X19567   5.336   6.503   8.661  0.4846  1.7645  0.6699
  172SAPE  H17Y19568   5.155   6.453   8.634 -0.0536  0.6742 -0.5529
  172SAPE  C31819569   5.196   6.556   8.815  0.0003  0.0975  0.7338
  172SAPE  H18X19570   5.087   6.553   8.834 -0.2143 -1.1711 -0.5082
  172SAPE  H18Y19571   5.244   6.652   8.843  2.3869 -0.9938  0.6234
  172SAPE  H18Z19572   5.232   6.469   8.873  1.6403  0.6208  0.5523
  173SOPE     N19573   0.355   4.613  11.050  0.7290  0.7817 -0.5487
  173SOPE   HN119574   0.262   4.569  11.065  0.7032  0.6952 -0.9543
  173SOPE   HN219575   0.423   4.542  11.085 -0.7684 -0.3366  0.1750
  173SOPE   HN319576   0.352   4.702  11.104 -0.9049 -0.3377  1.3316
  173SOPE   C1219577   0.365   4.630  10.901  1.1687  0.6070  0.1348
  173SOPE  H12A19578   0.390   4.531  10.857  3.1302  0.7615  0.8039
  173SOPE  H12B19579   0.454   4.694  10.885  2.0273 -0.1053  1.7419
  173SOPE   C1119580   0.232   4.678  10.848 -0.5777  0.5074  0.8660
  173SOPE  H11A19581   0.251   4.702  10.741 -3.1820  2.0177  0.6692
  173SOPE  H11B19582   0.196   4.772  10.894  1.2929  1.1366  1.1307
  173SOPE     P19583   0.019   4.584  10.965  0.0780 -0.3534  0.2215
  173SOPE   O1319584   0.080   4.556  11.099  0.4461 -0.0115  0.2486
  173SOPE   O1419585  -0.083   4.487  10.913  0.0709  0.6181  0.0468
  173SOPE   O1219586   0.136   4.579  10.864  0.0036 -0.0931 -0.4449
  173SOPE   O1119587  -0.039   4.733  10.960  0.5289 -0.3961 -0.1453
  173SOPE    C119588  -0.149   4.780  10.875 -0.9676  0.2310 -0.2413
  173SOPE    HA19589  -0.158   4.891  10.884  0.6596  0.3929 -0.2644
  173SOPE    HB19590  -0.243   4.731  10.908  0.2456 -1.9491  0.1645
  173SOPE    C219591  -0.150   4.749  10.726 -0.2381 -0.9178  0.2281
  173SOPE    HS19592  -0.172   4.640  10.725  1.1162 -1.2685  2.1302
  173SOPE   O2119593  -0.017   4.785  10.666  0.3463 -0.4330 -0.3559
  173SOPE   C2119594   0.020   4.704  10.566  0.4386 -0.1883 -0.0718
  173SOPE   O2219595  -0.029   4.599  10.539  0.2079 -0.1154  0.6566
  173SOPE   C2219596   0.131   4.770  10.491  0.1415  0.7485 -0.2635
  173SOPE   H2R19597   0.211   4.786  10.566  0.3213  2.2387 -0.7229
  173SOPE   H2S19598   0.097   4.868  10.449  0.3437  1.1404  0.4708
  173SOPE    C319599  -0.254   4.822  10.640 -0.2120  1.1295  0.2754
  173SOPE    HX19600  -0.229   4.929  10.625 -0.4803  1.2376  0.5852
  173SOPE    HY19601  -0.343   4.814  10.706 -0.9026 -4.9189 -0.8209
  173SOPE   O3119602  -0.274   4.758  10.517 -0.0679  0.4531  0.4117
  173SOPE   C3119603  -0.326   4.639  10.520 -0.1088 -0.2713  1.6412
  173SOPE   O3219604  -0.376   4.582  10.613 -0.1964 -0.2519 -0.2682
  173SOPE   C3219605  -0.318   4.587  10.374  0.2501 -1.3915  0.0521
  173SOPE   H2X19606  -0.212   4.601  10.342  0.4392  0.7494  1.4272
  173SOPE   H2Y19607  -0.372   4.653  10.303  1.1966 -2.5630 -1.8471
  173SOPE   C2319608   0.188   4.688  10.374 -0.2125 -0.1197 -0.4308
  173SOPE   H3R19609   0.213   4.585  10.407 -1.1829 -0.0563  0.5456
  173SOPE   H3S19610   0.284   4.742  10.360 -0.4459  0.2952 -0.4449
  173SOPE   C2419611   0.103   4.700  10.249  0.0664  0.2172  0.5592
  173SOPE   H4R19612   0.005   4.651  10.268 -1.0221  1.9240 -0.4083
  173SOPE   H4S19613   0.067   4.803  10.228  1.5951 -0.0229 -4.5626
  173SOPE   C2519614   0.154   4.635  10.124  0.0221 -0.0017  0.2934
  173SOPE   H5R19615   0.258   4.674  10.119  0.0378 -0.0258  0.4506
  173SOPE   H5S19616   0.169   4.525  10.115 -1.6067 -0.3120  1.0108
  173SOPE   C2619617   0.067   4.669  10.001 -0.6889  0.1525  0.0487
  173SOPE   H6R19618  -0.040   4.652  10.024 -0.2259 -1.0799  1.4652
  173SOPE   H6S19619   0.080   4.775   9.970  0.1393  0.5446  1.6159
  173SOPE   C2719620   0.104   4.589   9.870  0.5441  0.1163  0.6760
  173SOPE   H7R19621   0.214   4.589   9.855  0.4423 -2.2530 -0.5720
  173SOPE   H7S19622   0.092   4.480   9.892  1.5475 -0.1978 -0.2382
  173SOPE   C2819623   0.014   4.640   9.748 -0.1576  0.5300  0.0772
  173SOPE   H8R19624  -0.095   4.647   9.771 -0.3748 -1.3439 -0.2363
  173SOPE   H8S19625   0.047   4.745   9.734 -0.0987  0.6537  1.0427
  173SOPE   C2919626   0.033   4.546   9.628  0.2479  0.1405 -0.6783
  173SOPE   H9119627  -0.038   4.462   9.625 -0.7366  0.9771 -1.0578
  173SOPE  C21019628   0.125   4.541   9.534  0.2279  0.1599 -0.3812
  173SOPE  H10119629   0.110   4.465   9.456 -1.5929  1.6696 -1.6096
  173SOPE  C21119630   0.242   4.626   9.502 -0.0002  0.9048 -0.3498
  173SOPE  H11R19631   0.325   4.563   9.463  0.3955  0.1186  1.5925
  173SOPE  H11S19632   0.279   4.667   9.599 -0.6000  2.2987 -0.6919
  173SOPE  C21219633   0.224   4.753   9.410  0.4073  0.3771 -0.0736
  173SOPE  H12R19634   0.308   4.823   9.427  0.8495 -0.3671  0.9397
  173SOPE  H12S19635   0.124   4.791   9.441 -1.5062 -4.4760  0.6985
  173SOPE  C21319636   0.226   4.716   9.255 -0.1418 -1.1860  0.2541
  173SOPE  H13R19637   0.209   4.607   9.244  1.0967 -1.4959  1.1562
  173SOPE  H13S19638   0.327   4.715   9.209 -0.5250 -5.0791 -0.8256
  173SOPE  C21419639   0.145   4.812   9.161  0.1612 -0.0560 -0.2814
  173SOPE  H14R19640   0.151   4.919   9.190  0.5042 -0.5255  1.5320
  173SOPE  H14S19641   0.038   4.784   9.180  0.3438 -1.3095 -0.9841
  173SOPE  C21519642   0.177   4.799   9.010 -0.8051  0.7686 -0.1255
  173SOPE  H15R19643   0.148   4.697   8.976  2.0063 -0.5118  0.9916
  173SOPE  H15S19644   0.287   4.807   8.999 -0.8699 -0.1459 -1.6631
  173SOPE  C21619645   0.119   4.907   8.928  0.0308  0.6615 -0.2807
  173SOPE  H16R19646   0.172   4.996   8.968  0.2991 -0.2774  1.5504
  173SOPE  H16S19647   0.011   4.911   8.954  0.3732  1.8505  1.0679
  173SOPE  C21719648   0.148   4.885   8.778  0.0385 -0.3849 -0.0075
  173SOPE  H17R19649   0.251   4.848   8.762 -0.5813 -1.6749 -1.3144
  173SOPE  H17S19650   0.148   4.986   8.732 -0.4953  0.0944  1.0049
  173SOPE  C21819651   0.049   4.812   8.684 -0.4743 -0.0735 -0.7813
  173SOPE  H18R19652  -0.055   4.849   8.693 -0.3599 -0.0178  0.4101
  173SOPE  H18S19653   0.040   4.703   8.705 -0.1476 -0.2854 -1.6797
  173SOPE  H18T19654   0.072   4.834   8.577  0.1752  0.9631 -0.4474
  173SOPE   C3319655  -0.368   4.437  10.358 -0.1351 -0.3301  0.1606
  173SOPE   H3X19656  -0.479   4.433  10.355 -0.1176 -0.4707 -0.6983
  173SOPE   H3Y19657  -0.344   4.371  10.444 -0.7823  0.2762  0.8104
  173SOPE   C3419658  -0.315   4.357  10.240  0.2916 -0.6175 -0.0096
  173SOPE   H4X19659  -0.358   4.256  10.252  1.6321 -1.0592  1.5736
  173SOPE   H4Y19660  -0.205   4.353  10.228  0.2735 -1.0694 -0.0130
  173SOPE   C3519661  -0.358   4.428  10.113 -0.0705 -0.0655  0.3699
  173SOPE   H5X19662  -0.328   4.535  10.109 -0.3576 -0.0114 -0.8899
  173SOPE   H5Y19663  -0.469   4.429  10.102 -0.0443 -0.1491  0.0984
  173SOPE   C3619664  -0.296   4.353   9.990  0.0295 -0.0297  0.0708
  173SOPE   H6X19665  -0.343   4.252   9.986 -2.2038  0.9920 -1.8744
  173SOPE   H6Y19666  -0.185   4.353   9.992  0.0435 -0.0327 -0.4709
  173SOPE   C3719667  -0.338   4.416   9.853  0.7731  0.4092 -0.3940
  173SOPE   H7X19668  -0.285   4.513   9.862  1.7274 -0.1870  0.7774
  173SOPE   H7Y19669  -0.448   4.433   9.852  0.4723 -1.1831  0.4305
  173SOPE   C3819670  -0.303   4.342   9.728  0.0169 -0.6444  0.1407
  173SOPE   H8X19671  -0.372   4.258   9.704  0.4087 -0.8790 -0.1923
  173SOPE   H8Y19672  -0.198   4.305   9.728 -0.4810 -2.1172  0.5278
  173SOPE   C3919673  -0.337   4.436   9.607 -0.6524 -0.8490 -0.7020
  173SOPE   H9X19674  -0.285   4.529   9.638  0.7881 -1.6714 -0.5415
  173SOPE   H9Y19675  -0.443   4.467   9.603 -0.0219  1.5500 -0.1773
  173SOPE  C31019676  -0.292   4.379   9.475 -0.4564  0.0875 -0.6015
  173SOPE  H10X19677  -0.341   4.282   9.454 -0.6141 -0.6981  2.8726
  173SOPE  H10Y19678  -0.182   4.368   9.483 -0.1957  2.2650 -0.4881
  173SOPE  C31119679  -0.309   4.460   9.341  0.0141 -0.0197 -0.1621
  173SOPE  H11X19680  -0.339   4.566   9.359  0.5012 -0.0706  1.0169
  173SOPE  H11Y19681  -0.388   4.410   9.281  1.2722 -1.3089 -0.7750
  173SOPE  C31219682  -0.185   4.460   9.243  0.3586  0.3480 -0.0364
  173SOPE  H12X19683  -0.151   4.354   9.247 -0.6285 -0.0349 -1.1535
  173SOPE  H12Y19684  -0.108   4.521   9.294  2.6703 -1.5455 -1.0458
  173SOPE  C31319685  -0.203   4.506   9.096 -0.0628  0.8784 -0.6030
  173SOPE  H13X19686  -0.240   4.611   9.095 -1.0602  0.5490  0.1225
  173SOPE  H13Y19687  -0.274   4.432   9.054  0.7389  0.6870 -1.6573
  173SOPE  C31419688  -0.071   4.493   9.007 -0.0019 -0.0699 -0.2851
  173SOPE  H14X19689   0.005   4.569   9.034 -0.1992  0.5918 -1.5366
  173SOPE  H14Y19690  -0.101   4.526   8.906 -1.1814 -0.7911 -0.1949
  173SOPE  C31519691   0.003   4.357   9.001  0.2942  0.4049  0.8013
  173SOPE  H15X19692   0.035   4.328   9.103 -2.0661 -2.3367  0.8624
  173SOPE  H15Y19693   0.087   4.378   8.931  1.1315  2.5256  2.3358
  173SOPE  C31619694  -0.077   4.236   8.955  0.4423 -0.4217  0.4471
  173SOPE  H16X19695  -0.106   4.240   8.848  3.3508 -0.9845 -0.4655
  173SOPE  H16Y19696  -0.169   4.239   9.017  0.2203  1.1621  0.0787
  173SOPE  C31719697  -0.007   4.103   8.980  0.5669  0.5245 -0.5330
  173SOPE  H17X19698   0.062   4.108   9.068  1.8987 -0.5884 -1.4737
  173SOPE  H17Y19699   0.052   4.082   8.888  0.8349 -1.9974  0.1556
  173SOPE  C31819700  -0.108   3.993   8.992 -0.4576  0.1100 -0.6479
  173SOPE  H18X19701  -0.151   3.994   9.095  0.2541  1.4431 -0.3333
  173SOPE  H18Y19702  -0.052   3.901   8.966  1.8073  1.4096 -0.6670
  173SOPE  H18Z19703  -0.190   3.999   8.919 -1.5397 -0.8828  0.4471
  174SOPE     N19704   5.981   3.053  10.708 -0.6279  1.2346  0.6126
  174SOPE   HN119705   5.918   3.018  10.782  0.1649 -2.5606 -0.3122
  174SOPE   HN219706   5.959   3.011  10.615  1.5230 -0.4625  0.7937
  174SOPE   HN319707   6.076   3.035  10.747  0.5253  3.0362 -1.1045
  174SOPE   C1219708   5.945   3.193  10.711 -0.2310  0.2229  0.2091
  174SOPE  H12A19709   5.957   3.227  10.816  1.4154  2.6644 -0.6751
  174SOPE  H12B19710   5.838   3.191  10.684  0.3015 -1.2286 -2.0931
  174SOPE   C1119711   6.027   3.282  10.609 -0.3607  1.1366  0.1370
  174SOPE  H11A19712   5.972   3.379  10.605  0.4204  1.8372  3.5498
  174SOPE  H11B19713   6.034   3.233  10.510  0.7523  0.2100  0.6550
  174SOPE     P19714   6.220   3.413  10.739  0.1737 -0.2665  0.0700
  174SOPE   O1319715   6.323   3.341  10.816 -0.0937 -0.6817  0.2717
  174SOPE   O1419716   6.116   3.485  10.823  0.1306  0.1108  0.0386
  174SOPE   O1219717   6.161   3.305  10.647 -0.2905  0.1215  0.2211
  174SOPE   O1119718   6.294   3.514  10.644  0.1794 -0.2725  0.1633
  174SOPE    C119719   6.240   3.639  10.596 -0.0223 -0.4958  0.1634
  174SOPE    HA19720   6.295   3.720  10.647 -2.0458  0.8829  0.2566
  174SOPE    HB19721   6.131   3.655  10.611  0.0718 -0.1485  0.4773
  174SOPE    C219722   6.268   3.663  10.445  0.6150  0.1982  0.2185
  174SOPE    HS19723   6.246   3.771  10.430  2.7564  0.7842  0.9031
  174SOPE   O2119724   6.183   3.572  10.370 -0.0088 -0.0762 -0.2787
  174SOPE   C2119725   6.061   3.608  10.359  0.3110 -0.1599  0.4201
  174SOPE   O2219726   6.013   3.719  10.387 -0.6257  0.2013 -0.1512
  174SOPE   C2219727   5.979   3.488  10.318 -0.3744  0.3181 -0.2826
  174SOPE   H2R19728   5.899   3.471  10.393 -1.2869 -1.4838 -1.5953
  174SOPE   H2S19729   6.045   3.399  10.312  1.4186  1.6099 -0.5230
  174SOPE    C319730   6.416   3.651  10.399  0.1652 -0.1950  0.7861
  174SOPE    HX19731   6.453   3.546  10.410 -0.5841 -0.2948  2.6852
  174SOPE    HY19732   6.479   3.713  10.465  2.4929  1.0307 -2.3245
  174SOPE   O3119733   6.429   3.702  10.262 -0.2518  0.1084 -0.1237
  174SOPE   C3119734   6.424   3.836  10.249 -1.1767  0.2330 -0.4253
  174SOPE   O3219735   6.429   3.916  10.341  0.1690 -0.2841  0.2401
  174SOPE   C3219736   6.427   3.877  10.107  0.1421 -0.1148 -0.4774
  174SOPE   H2X19737   6.526   3.849  10.066  0.8579 -0.0862  1.1483
  174SOPE   H2Y19738   6.399   3.983  10.091 -0.0529 -0.5052 -3.1471
  174SOPE   C2319739   5.904   3.504  10.186  0.1666 -1.0100 -0.2836
  174SOPE   H3R19740   5.834   3.590  10.198  1.7975  0.0202  3.6416
  174SOPE   H3S19741   5.833   3.421  10.164  0.3931 -1.6089  1.0971
  174SOPE   C2419742   6.002   3.520  10.074  0.0874  0.0261  0.8337
  174SOPE   H4R19743   6.052   3.620  10.077  1.4466 -0.5365 -1.2541
  174SOPE   H4S19744   6.088   3.451  10.074  0.3701  0.3729  0.8231
  174SOPE   C2519745   5.926   3.520   9.939  0.7150  0.5642 -0.6474
  174SOPE   H5R19746   5.932   3.416   9.900  0.3763  0.0724  0.5714
  174SOPE   H5S19747   5.820   3.550   9.947  0.9172  0.9755  0.6978
  174SOPE   C2619748   5.995   3.615   9.837  0.1180 -0.4414  0.0823
  174SOPE   H6R19749   6.018   3.707   9.894 -1.0083  2.1763 -3.3520
  174SOPE   H6S19750   6.085   3.571   9.788  0.4512  0.3793 -0.0531
  174SOPE   C2719751   5.902   3.676   9.730  0.1879  0.1626 -0.4340
  174SOPE   H7R19752   5.847   3.585   9.697  1.1698 -1.6146  2.3910
  174SOPE   H7S19753   5.830   3.747   9.776  0.6899  2.4229 -2.8697
  174SOPE   C2819754   5.975   3.741   9.612 -0.0954 -0.8940  0.2430
  174SOPE   H8R19755   5.908   3.796   9.543  1.4215  1.0993  0.2404
  174SOPE   H8S19756   6.042   3.823   9.648  1.2862 -1.3464 -1.1684
  174SOPE   C2919757   6.059   3.641   9.538  0.2184  0.4047  0.3121
  174SOPE   H9119758   6.166   3.644   9.562 -0.1189 -2.1591  2.5723
  174SOPE  C21019759   6.018   3.540   9.454  0.5987  0.4537 -0.3101
  174SOPE  H10119760   6.094   3.474   9.409 -0.0339  0.5091 -1.4826
  174SOPE  C21119761   5.874   3.512   9.407  0.3679  0.6694 -0.5833
  174SOPE  H11R19762   5.801   3.566   9.471  1.1203  1.0726 -0.0498
  174SOPE  H11S19763   5.856   3.403   9.419  2.0891  0.1088 -2.5264
  174SOPE  C21219764   5.850   3.543   9.262  0.9692  0.9338  0.5160
  174SOPE  H12R19765   5.912   3.462   9.219 -0.2318 -2.1402  4.0301
  174SOPE  H12S19766   5.888   3.642   9.230 -0.2062  1.3644  0.3992
  174SOPE  C21319767   5.701   3.538   9.216 -0.6483 -0.2223 -0.5914
  174SOPE  H13R19768   5.651   3.628   9.257  1.2485  0.9761 -0.7812
  174SOPE  H13S19769   5.639   3.450   9.243 -0.7687 -0.8523 -2.7253
  174SOPE  C21419770   5.679   3.554   9.061 -0.4827  0.8469  0.1511
  174SOPE  H14R19771   5.713   3.462   9.008 -0.6376  0.8929 -0.0308
  174SOPE  H14S19772   5.751   3.630   9.026  1.9386 -2.4771 -2.7495
  174SOPE  C21519773   5.534   3.585   9.023  0.7788 -0.7063  0.3048
  174SOPE  H15R19774   5.502   3.677   9.075  0.3018 -1.0816  0.6861
  174SOPE  H15S19775   5.476   3.496   9.059  0.9968 -1.0635 -0.2126
  174SOPE  C21619776   5.520   3.593   8.874 -0.2831 -0.3202 -0.0008
  174SOPE  H16R19777   5.524   3.492   8.827  1.7285  0.2682 -1.1889
  174SOPE  H16S19778   5.606   3.654   8.841 -0.2401 -0.1625  0.4012
  174SOPE  C21719779   5.394   3.664   8.823 -0.1420  0.3732 -0.0861
  174SOPE  H17R19780   5.390   3.763   8.871 -0.4439 -0.6205  2.0233
  174SOPE  H17S19781   5.311   3.603   8.864 -0.8302 -1.4376 -3.7332
  174SOPE  C21819782   5.388   3.656   8.670 -0.1717 -0.4259  0.2382
  174SOPE  H18R19783   5.284   3.661   8.631  0.0058  0.0427 -0.1838
  174SOPE  H18S19784   5.431   3.560   8.634  0.4375 -0.0219 -0.1267
  174SOPE  H18T19785   5.442   3.739   8.621 -0.0371 -0.3225  0.5629
  174SOPE   C3319786   6.318   3.800  10.025 -0.5839  0.0786  0.0124
  174SOPE   H3X19787   6.222   3.830  10.073 -0.2179 -1.7250  2.0536
  174SOPE   H3Y19788   6.333   3.690  10.027 -0.7543  0.0282 -1.1460
  174SOPE   C3419789   6.305   3.862   9.885  0.1982  0.4326 -0.3439
  174SOPE   H4X19790   6.317   3.972   9.894  1.9650  0.2540 -0.1482
  174SOPE   H4Y19791   6.206   3.837   9.843  0.9787 -2.1405 -0.8608
  174SOPE   C3519792   6.418   3.811   9.791 -0.5310 -1.2510 -0.0574
  174SOPE   H5X19793   6.406   3.701   9.785  0.1997 -1.2870 -1.1840
  174SOPE   H5Y19794   6.520   3.829   9.832  0.1675  1.2429 -2.5135
  174SOPE   C3619795   6.408   3.875   9.649 -0.9496  0.2908  0.0547
  174SOPE   H6X19796   6.410   3.983   9.673  0.0988 -0.1788  2.3822
  174SOPE   H6Y19797   6.308   3.853   9.607 -0.9087  1.6227 -0.7928
  174SOPE   C3719798   6.514   3.836   9.545  0.2747  0.2463 -0.2092
  174SOPE   H7X19799   6.507   3.727   9.525  4.1603  0.0050 -1.0160
  174SOPE   H7Y19800   6.612   3.849   9.595  0.5279 -0.2353 -0.5785
  174SOPE   C3819801   6.510   3.908   9.415  0.1091 -0.1403  0.1384
  174SOPE   H8X19802   6.601   3.874   9.361 -0.2031  0.9713 -1.1322
  174SOPE   H8Y19803   6.526   4.012   9.452 -0.0871 -0.9931  2.8997
  174SOPE   C3919804   6.391   3.892   9.322 -0.4275 -0.5793  0.6721
  174SOPE   H9X19805   6.406   3.946   9.226  0.6383 -1.4798  0.3132
  174SOPE   H9Y19806   6.290   3.913   9.362 -0.0452  1.7952  0.4944
  174SOPE  C31019807   6.383   3.744   9.259 -0.5283 -0.5978  0.0212
  174SOPE  H10X19808   6.384   3.661   9.333 -3.4333 -1.0962 -0.3775
  174SOPE  H10Y19809   6.475   3.733   9.198 -0.3572  0.3201  0.1037
  174SOPE  C31119810   6.257   3.733   9.166  0.1918  0.1119 -0.3651
  174SOPE  H11X19811   6.158   3.716   9.216 -0.9430  4.4707 -0.7482
  174SOPE  H11Y19812   6.270   3.640   9.107 -1.0355  0.0538 -0.5879
  174SOPE  C31219813   6.226   3.846   9.068 -0.2508  0.4369 -0.4986
  174SOPE  H12X19814   6.217   3.940   9.127 -1.5852  0.0768 -0.0950
  174SOPE  H12Y19815   6.124   3.831   9.027  0.3639  0.3383 -2.0556
  174SOPE  C31319816   6.336   3.860   8.964  0.0331 -0.2045  0.1206
  174SOPE  H13X19817   6.357   3.763   8.913 -2.4076 -0.1362 -1.1435
  174SOPE  H13Y19818   6.430   3.887   9.017  0.8320 -2.0948 -0.2178
  174SOPE  C31419819   6.303   3.963   8.850 -0.0385  0.5845 -0.1400
  174SOPE  H14X19820   6.323   4.059   8.901 -1.0673  0.0189  1.3957
  174SOPE  H14Y19821   6.197   3.945   8.820  0.3274 -2.4861  0.0202
  174SOPE  C31519822   6.387   3.930   8.721 -0.1057 -0.1151 -0.6741
  174SOPE  H15X19823   6.494   3.937   8.752 -0.4283  0.5823  0.3426
  174SOPE  H15Y19824   6.364   4.024   8.667  1.5105  1.0103  0.5005
  174SOPE  C31619825   6.348   3.802   8.639  0.3589 -0.4432  0.0415
  174SOPE  H16X19826   6.373   3.712   8.698 -0.4787  0.7821  2.4160
  174SOPE  H16Y19827   6.405   3.790   8.545  1.1981  1.4963  0.2583
  174SOPE  C31719828   6.199   3.797   8.599 -0.1546  0.1659 -0.8809
  174SOPE  H17X19829   6.156   3.771   8.698 -0.4831  1.1025 -0.7713
  174SOPE  H17Y19830   6.180   3.714   8.528  0.7573 -0.2328 -0.6759
  174SOPE  C31819831   6.132   3.922   8.539  0.0843  0.1076  0.5381
  174SOPE  H18X19832   6.024   3.908   8.516 -0.0173  0.8166  0.5622
  174SOPE  H18Y19833   6.185   3.955   8.447 -0.3273 -1.2615 -0.2242
  174SOPE  H18Z19834   6.136   4.005   8.612 -0.8631 -0.6282  1.4584
  175SOPE     N19835   1.951   5.621  10.854  0.4441 -0.3813 -0.6094
  175SOPE   HN119836   1.954   5.517  10.862  0.0627 -0.4242 -0.9722
  175SOPE   HN219837   1.895   5.653  10.935  1.7029 -2.3308  1.1326
  175SOPE   HN319838   1.913   5.654  10.763  2.2614  1.1383 -0.8892
  175SOPE   C1219839   2.083   5.678  10.867 -0.0595  0.1775 -0.5877
  175SOPE  H12A19840   2.143   5.645  10.779  0.6779  1.1032 -0.4450
  175SOPE  H12B19841   2.131   5.643  10.960  2.6179 -1.8122 -2.5377
  175SOPE   C1119842   2.069   5.826  10.851 -0.1026  0.1261  0.2807
  175SOPE  H11A19843   2.164   5.872  10.885 -1.2807  0.7734  3.0399
  175SOPE  H11B19844   1.999   5.881  10.918 -0.6557  0.8838 -0.8890
  175SOPE     P19845   2.043   6.005  10.672 -0.1964  0.3071  0.4180
  175SOPE   O1319846   2.185   6.052  10.684  0.1073  0.4881 -0.7495
  175SOPE   O1419847   1.940   6.087  10.736  0.1802 -0.1474  0.0635
  175SOPE   O1219848   2.042   5.849  10.714 -0.3012 -0.2590 -0.0865
  175SOPE   O1119849   2.011   5.980  10.515  0.0476  0.5585 -0.4006
  175SOPE    C119850   1.925   5.880  10.461 -0.2261  0.4969 -0.7278
  175SOPE    HA19851   1.865   5.839  10.545  0.4641  2.9247  1.0827
  175SOPE    HB19852   1.978   5.791  10.422  0.4307  0.2178  0.7576
  175SOPE    C219853   1.821   5.935  10.357 -0.4051  0.8906 -0.3795
  175SOPE    HS19854   1.737   5.862  10.355 -0.5825  1.0974 -2.0385
  175SOPE   O2119855   1.876   5.933  10.228 -1.0366  0.7018 -0.0503
  175SOPE   C2119856   1.853   5.826  10.143  0.6515 -0.0893 -0.9120
  175SOPE   O2219857   1.783   5.731  10.173  0.2410 -0.4422  0.8668
  175SOPE   C2219858   1.914   5.850  10.011 -0.1192  0.0570 -0.1005
  175SOPE   H2R19859   2.019   5.880  10.032 -0.7336  2.2592  0.0556
  175SOPE   H2S19860   1.864   5.929   9.951  2.6529  0.1259 -2.5285
  175SOPE    C319861   1.759   6.069  10.408  0.0273  0.3184 -0.3756
  175SOPE    HX19862   1.838   6.147  10.407 -1.5783  2.0511  1.3488
  175SOPE    HY19863   1.728   6.048  10.512 -0.9563 -2.3932 -1.1397
  175SOPE   O3119864   1.650   6.115  10.328 -0.2321 -0.2251  0.8862
  175SOPE   C3119865   1.539   6.049  10.332 -0.0370  0.1501 -0.2855
  175SOPE   O3219866   1.509   5.959  10.416  0.1981 -0.6026  0.4855
  175SOPE   C3219867   1.449   6.105  10.220 -0.5537  0.1094  0.4756
  175SOPE   H2X19868   1.513   6.104  10.129 -0.9359  0.4507  0.1964
  175SOPE   H2Y19869   1.441   6.212  10.247  0.9724  1.1945 -2.8113
  175SOPE   C2319870   1.912   5.720   9.923 -0.5165  0.2510 -0.2396
  175SOPE   H3R19871   1.808   5.682   9.923 -1.1745  1.8835  1.6455
  175SOPE   H3S19872   1.980   5.645   9.968  0.6447  1.1526 -0.4180
  175SOPE   C2419873   1.958   5.751   9.777 -0.4170  0.3987 -0.1703
  175SOPE   H4R19874   1.950   5.661   9.713  1.3174  0.5974 -0.7123
  175SOPE   H4S19875   1.876   5.820   9.746 -2.1510 -1.5755 -0.2473
  175SOPE   C2519876   2.096   5.811   9.762  0.1352 -0.4799  1.1147
  175SOPE   H5R19877   2.105   5.837   9.655 -0.1868  0.6243  1.3380
  175SOPE   H5S19878   2.111   5.906   9.819  0.2499  0.5320 -0.5472
  175SOPE   C2619879   2.212   5.710   9.792 -0.0715 -0.4204 -0.4097
  175SOPE   H6R19880   2.311   5.756   9.814  0.4755 -1.6179 -0.2985
  175SOPE   H6S19881   2.174   5.681   9.892 -0.4745 -0.2311 -0.5038
  175SOPE   C2719882   2.227   5.597   9.686  0.5685  0.4659  0.4317
  175SOPE   H7R19883   2.315   5.533   9.711  0.6255  0.3642 -0.0163
  175SOPE   H7S19884   2.136   5.535   9.701  1.0941 -0.4557 -0.0537
  175SOPE   C2819885   2.242   5.616   9.536  0.2070 -0.3854 -0.7580
  175SOPE   H8R19886   2.208   5.522   9.488  1.0403 -1.1630  0.1120
  175SOPE   H8S19887   2.161   5.689   9.516 -0.3707 -0.5246  0.9332
  175SOPE   C2919888   2.377   5.663   9.481  0.3102 -0.2184 -0.3028
  175SOPE   H9119889   2.417   5.758   9.520 -0.6666  0.4532 -0.8942
  175SOPE  C21019890   2.447   5.598   9.392 -0.7635  1.3403  0.1616
  175SOPE  H10119891   2.536   5.642   9.347  0.0317  0.8339  1.2008
  175SOPE  C21119892   2.401   5.468   9.317  0.5025 -0.1644  0.5826
  175SOPE  H11R19893   2.305   5.487   9.264  1.4092  0.5015 -0.8941
  175SOPE  H11S19894   2.391   5.379   9.383 -0.1643 -1.6270 -1.3760
  175SOPE  C21219895   2.494   5.429   9.195  0.6003 -0.2120 -0.8307
  175SOPE  H12R19896   2.450   5.331   9.166 -1.2855  0.2935  0.2118
  175SOPE  H12S19897   2.597   5.417   9.235  0.1373  1.2374  0.8882
  175SOPE  C21319898   2.483   5.530   9.082  0.0881 -0.2420  0.6852
  175SOPE  H13R19899   2.519   5.628   9.120 -0.0345  0.0062  0.1771
  175SOPE  H13S19900   2.373   5.516   9.067  0.0865 -0.1726  0.6277
  175SOPE  C21419901   2.564   5.481   8.960  0.9600 -0.3006  0.0443
  175SOPE  H14R19902   2.543   5.372   8.951 -1.3447  0.0642  0.2712
  175SOPE  H14S19903   2.673   5.497   8.975  1.4586 -0.6410 -2.6363
  175SOPE  C21519904   2.501   5.556   8.839  0.5927  0.2587  0.4559
  175SOPE  H15R19905   2.472   5.662   8.860 -1.8354 -0.5538  1.5593
  175SOPE  H15S19906   2.404   5.508   8.812  0.1846 -0.5680  3.0946
  175SOPE  C21619907   2.601   5.570   8.724 -0.2790 -0.1518 -0.4177
  175SOPE  H16R19908   2.625   5.465   8.698  1.2436  0.1015 -0.1862
  175SOPE  H16S19909   2.697   5.615   8.759 -0.7719 -0.7114  1.7965
  175SOPE  C21719910   2.538   5.646   8.609  0.4500  0.6640 -0.1063
  175SOPE  H17R19911   2.479   5.735   8.640 -0.9445 -0.7368  1.4073
  175SOPE  H17S19912   2.458   5.588   8.559  0.6132  2.8006 -3.1354
  175SOPE  C21819913   2.639   5.683   8.499 -0.0816 -0.8563 -0.2245
  175SOPE  H18R19914   2.712   5.758   8.537  0.0645 -1.0343 -0.1532
  175SOPE  H18S19915   2.589   5.714   8.405 -0.5570 -3.5313 -0.9338
  175SOPE  H18T19916   2.698   5.589   8.489  0.8861 -0.4725  1.4775
  175SOPE   C3319917   1.309   6.037  10.209 -0.6097 -0.0006 -0.2790
  175SOPE   H3X19918   1.256   6.014  10.304 -0.0733 -1.3947 -0.2992
  175SOPE   H3Y19919   1.331   5.944  10.154  0.2121  0.0211 -0.0068
  175SOPE   C3419920   1.224   6.117  10.113  0.4896 -1.0345  0.2528
  175SOPE   H4X19921   1.205   6.222  10.146  0.4803 -1.5368  1.8922
  175SOPE   H4Y19922   1.134   6.052  10.112  0.4573 -0.9994  0.6992
  175SOPE   C3519923   1.283   6.145   9.968 -0.2377 -0.1921 -0.7145
  175SOPE   H5X19924   1.357   6.224   9.994 -0.3447 -0.7048  1.2765
  175SOPE   H5Y19925   1.204   6.195   9.908 -0.2302  0.5545 -0.1174
  175SOPE   C3619926   1.327   6.024   9.892  0.1237  0.5164  0.4899
  175SOPE   H6X19927   1.252   5.944   9.909 -0.6190  1.5074  2.1268
  175SOPE   H6Y19928   1.428   5.993   9.926  0.6250  2.7255  1.1679
  175SOPE   C3719929   1.345   6.052   9.747 -0.7663 -0.4411  0.5854
  175SOPE   H7X19930   1.439   6.111   9.739 -0.3317 -1.1294  0.5137
  175SOPE   H7Y19931   1.257   6.107   9.707  0.1679 -0.0797 -1.0898
  175SOPE   C3819932   1.374   5.928   9.657  0.2995  0.8280  0.6740
  175SOPE   H8X19933   1.288   5.859   9.669  0.9114 -0.8939 -3.2364
  175SOPE   H8Y19934   1.463   5.870   9.688 -0.0640 -0.8816 -1.2850
  175SOPE   C3919935   1.400   5.960   9.506 -0.0765 -0.2819 -0.2366
  175SOPE   H9X19936   1.498   6.009   9.484 -0.0912 -0.6111 -1.0727
  175SOPE   H9Y19937   1.327   6.038   9.476  1.4117  0.9077 -0.9482
  175SOPE  C31019938   1.402   5.835   9.418  0.6761  0.3117 -0.3540
  175SOPE  H10X19939   1.297   5.799   9.426 -0.2843  2.6348 -1.4883
  175SOPE  H10Y19940   1.467   5.755   9.460  0.0732 -0.6238 -1.1488
  175SOPE  C31119941   1.435   5.855   9.272 -0.9307  0.2741  0.4061
  175SOPE  H11X19942   1.529   5.914   9.262 -0.2903 -1.0964 -2.7959
  175SOPE  H11Y19943   1.346   5.910   9.234 -2.2599 -2.1657 -0.2443
  175SOPE  C31219944   1.454   5.719   9.201  0.2467 -0.3503  0.1053
  175SOPE  H12X19945   1.379   5.650   9.245  1.0793 -0.6958  1.0328
  175SOPE  H12Y19946   1.551   5.680   9.238 -0.0600 -1.8543 -0.5993
  175SOPE  C31319947   1.455   5.722   9.049 -1.2576 -0.5296  0.4426
  175SOPE  H13X19948   1.392   5.805   9.011  0.1465  0.1092 -0.5550
  175SOPE  H13Y19949   1.442   5.621   9.006 -1.2811 -0.9897  1.4904
  175SOPE  C31419950   1.592   5.783   9.000  0.6463 -0.2589 -0.7716
  175SOPE  H14X19951   1.678   5.720   9.029 -0.1204 -1.7544 -1.6666
  175SOPE  H14Y19952   1.606   5.878   9.058 -1.6193 -0.3143 -0.0422
  175SOPE  C31519953   1.596   5.809   8.849 -0.1949  0.6584  0.0351
  175SOPE  H15X19954   1.695   5.849   8.817  0.7682  0.6366  2.6658
  175SOPE  H15Y19955   1.518   5.884   8.825 -0.5329  0.7111  1.2275
  175SOPE  C31619956   1.563   5.685   8.760  0.2554  0.4191  0.0289
  175SOPE  H16X19957   1.567   5.711   8.652  3.0577  0.3585  0.0512
  175SOPE  H16Y19958   1.461   5.650   8.788  0.8164 -0.9962  0.3851
  175SOPE  C31719959   1.654   5.566   8.786 -0.3419 -0.8248  0.7204
  175SOPE  H17X19960   1.620   5.506   8.874 -0.5255 -2.3755 -0.3618
  175SOPE  H17Y19961   1.756   5.606   8.806 -0.5952  1.1623 -1.5695
  175SOPE  C31819962   1.686   5.457   8.670  0.9676  0.1891 -0.2307
  175SOPE  H18X19963   1.779   5.401   8.695 -1.1349 -1.6787  4.4649
  175SOPE  H18Y19964   1.710   5.511   8.575 -1.0703  2.7450  0.6050
  175SOPE  H18Z19965   1.599   5.388   8.663  0.3629  0.5056  2.7924
  176SOPE     N19966   1.710   6.129  10.925 -0.2380 -0.0785 -0.4985
  176SOPE   HN119967   1.692   6.232  10.928  0.7263  0.0942 -0.2998
  176SOPE   HN219968   1.681   6.089  11.016 -0.6214 -0.9089 -0.9785
  176SOPE   HN319969   1.809   6.108  10.902  0.4328  1.7841  0.4939
  176SOPE   C1219970   1.624   6.048  10.834 -0.0202 -0.0194  0.1381
  176SOPE  H12A19971   1.627   6.074  10.726 -0.6968 -1.0084 -0.1433
  176SOPE  H12B19972   1.519   6.061  10.867 -0.6885 -2.1475 -0.9326
  176SOPE   C1119973   1.673   5.901  10.852  0.3010  0.2813  0.0317
  176SOPE  H11A19974   1.764   5.876  10.793 -0.0607  1.2956 -0.9884
  176SOPE  H11B19975   1.592   5.850  10.795 -0.7529  1.1683  0.7134
  176SOPE     P19976   1.646   5.736  11.058  0.3155  0.1687  0.7084
  176SOPE   O1319977   1.587   5.753  11.188 -0.5190 -0.0001  0.3315
  176SOPE   O1419978   1.768   5.648  11.057  1.2668 -0.0496  0.1185
  176SOPE   O1219979   1.683   5.872  10.990 -0.3574  0.4049 -0.0521
  176SOPE   O1119980   1.551   5.660  10.955  0.8636  0.4193 -0.0082
  176SOPE    C119981   1.544   5.517  10.963 -0.0507  0.1538  0.1095
  176SOPE    HA19982   1.437   5.491  10.973 -0.0565  0.6715  1.6932
  176SOPE    HB19983   1.591   5.472  11.053 -0.7679 -0.0324  0.3977
  176SOPE    C219984   1.593   5.439  10.832  0.3838  0.7510 -0.2832
  176SOPE    HS19985   1.704   5.435  10.833  0.4597  2.3353  0.1461
  176SOPE   O2119986   1.537   5.518  10.715  0.4845  0.6106  0.1789
  176SOPE   C2119987   1.618   5.600  10.651  0.1929 -0.1395  0.6441
  176SOPE   O2219988   1.733   5.628  10.679 -0.8616 -0.5106  0.1357
  176SOPE   C2219989   1.535   5.670  10.541 -1.2660  0.2246 -0.3465
  176SOPE   H2R19990   1.600   5.686  10.453 -1.1411 -2.9613 -0.9530
  176SOPE   H2S19991   1.513   5.768  10.589  2.4745  1.3116 -0.5678
  176SOPE    C319992   1.527   5.294  10.841 -0.0490  0.2565 -0.1621
  176SOPE    HX19993   1.416   5.302  10.842 -0.2066 -0.0374  4.4501
  176SOPE    HY19994   1.556   5.249  10.938 -2.7791  1.1011  1.1492
  176SOPE   O3119995   1.578   5.223  10.728  0.4757  0.5310 -1.1322
  176SOPE   C3119996   1.531   5.097  10.725 -0.6294 -0.4690 -0.1603
  176SOPE   O3219997   1.456   5.048  10.808 -0.4695  0.1806  0.9716
  176SOPE   C3219998   1.602   5.017  10.612  0.3939 -0.7811 -0.6320
  176SOPE   H2X19999   1.688   4.960  10.652  1.7851  0.7358 -1.3593
  176SOPE   H2Y20000   1.652   5.088  10.544 -1.1521 -3.1551 -4.5981
  176SOPE   C2320001   1.398   5.611  10.503 -0.2731  0.3727  0.7461
  176SOPE   H3R20002   1.330   5.699  10.497  0.2246  0.7694  0.7986
  176SOPE   H3S20003   1.353   5.555  10.588 -1.6356  2.9524  1.8527
  176SOPE   C2420004   1.391   5.525  10.369  0.0641  0.3375 -0.0409
  176SOPE   H4R20005   1.458   5.436  10.373 -0.8728 -0.3809  0.0277
  176SOPE   H4S20006   1.287   5.492  10.347 -0.4111  0.2952  2.1178
  176SOPE   C2520007   1.422   5.614  10.255 -0.2300 -0.3322 -0.3739
  176SOPE   H5R20008   1.345   5.694  10.250  1.3697  1.2696 -0.5100
  176SOPE   H5S20009   1.521   5.662  10.269 -1.1747  0.9226  3.0931
  176SOPE   C2620010   1.411   5.535  10.120  0.3759  0.1700  0.3752
  176SOPE   H6R20011   1.477   5.445  10.123 -0.0290 -0.2885 -2.2440
  176SOPE   H6S20012   1.310   5.495  10.097  1.3712 -0.6859 -3.1446
  176SOPE   C2720013   1.445   5.626  10.001 -0.5856  0.0677 -0.0213
  176SOPE   H7R20014   1.396   5.726  10.004  0.3709  0.5517 -0.3041
  176SOPE   H7S20015   1.552   5.651   9.989 -0.7803 -0.5145 -4.8789
  176SOPE   C2820016   1.391   5.566   9.870 -0.2368 -0.2499 -0.2950
  176SOPE   H8R20017   1.288   5.526   9.879  0.0654 -0.9530  0.1799
  176SOPE   H8S20018   1.396   5.652   9.800 -0.4189  0.7186  0.8470
  176SOPE   C2920019   1.468   5.443   9.829 -0.0297 -0.6524 -0.2913
  176SOPE   H9120020   1.457   5.362   9.903  0.8581  0.3832  1.0359
  176SOPE  C21020021   1.541   5.419   9.718 -0.1916  0.1366 -0.1171
  176SOPE  H10120022   1.608   5.332   9.719 -0.1904  0.1299  1.0863
  176SOPE  C21120023   1.570   5.514   9.607  0.0152  0.9309 -0.0055
  176SOPE  H11R20024   1.680   5.528   9.599  0.7551 -2.1767  2.5955
  176SOPE  H11S20025   1.533   5.618   9.618 -1.0338  0.5610  0.0690
  176SOPE  C21220026   1.541   5.475   9.464 -0.4870 -0.1367 -0.1874
  176SOPE  H12R20027   1.601   5.535   9.393 -0.8967  0.3640 -0.1125
  176SOPE  H12S20028   1.432   5.484   9.446 -1.0808 -1.3442  2.2772
  176SOPE  C21320029   1.583   5.328   9.425 -0.1953 -0.6800  0.3704
  176SOPE  H13R20030   1.544   5.261   9.505 -1.2891  0.8325  1.1549
  176SOPE  H13S20031   1.693   5.313   9.421  0.1567  0.4273  3.3559
  176SOPE  C21420032   1.517   5.279   9.294  0.1017 -0.0509  0.0501
  176SOPE  H14R20033   1.408   5.297   9.304  0.2798 -0.0728  2.7316
  176SOPE  H14S20034   1.529   5.170   9.274  0.8346 -0.0404  0.3803
  176SOPE  C21520035   1.575   5.352   9.171  0.6138  0.0267 -0.1683
  176SOPE  H15R20036   1.686   5.344   9.168  0.5242 -1.3747 -0.5431
  176SOPE  H15S20037   1.545   5.458   9.176  1.9284  0.3907  0.7764
  176SOPE  C21620038   1.501   5.291   9.046  0.0068 -0.2956  0.7713
  176SOPE  H16R20039   1.466   5.376   8.984 -0.9645 -0.4652  1.0679
  176SOPE  H16S20040   1.414   5.233   9.084 -1.6063  1.4816 -0.0296
  176SOPE  C21720041   1.602   5.201   8.963 -0.2096 -0.3997 -0.4666
  176SOPE  H17R20042   1.636   5.109   9.015 -1.0744 -1.6210 -1.9533
  176SOPE  H17S20043   1.686   5.264   8.928 -1.2872  1.1931 -0.2883
  176SOPE  C21820044   1.531   5.140   8.836 -0.1065  0.4834 -0.1212
  176SOPE  H18R20045   1.586   5.061   8.780 -0.0445  0.6242 -0.2604
  176SOPE  H18S20046   1.509   5.215   8.757 -0.4748 -0.6553 -1.1224
  176SOPE  H18T20047   1.435   5.099   8.875 -0.8347  1.6188 -0.6704
  176SOPE   C3320048   1.501   4.935  10.523  0.0319 -0.0708 -0.6810
  176SOPE   H3X20049   1.410   4.930  10.586  1.5426  1.4857  1.8000
  176SOPE   H3Y20050   1.538   4.831  10.507  0.1782 -0.2949  0.9848
  176SOPE   C3420051   1.479   5.009  10.392 -0.1399 -0.2964 -0.3274
  176SOPE   H4X20052   1.478   5.119  10.407 -0.4118 -0.2278 -0.8175
  176SOPE   H4Y20053   1.384   4.968  10.351 -0.4575  1.0926 -1.0258
  176SOPE   C3520054   1.581   4.983  10.284 -0.2074  0.1959 -0.0161
  176SOPE   H5X20055   1.582   4.873  10.266 -2.2173  0.3548 -1.4566
  176SOPE   H5Y20056   1.677   5.027  10.318  0.1321  0.9253 -1.8333
  176SOPE   C3620057   1.551   5.042  10.148  0.1067 -0.5771 -0.0673
  176SOPE   H6X20058   1.546   5.152  10.161 -2.2077 -0.8747  2.3927
  176SOPE   H6Y20059   1.449   5.009  10.116 -0.4047  0.7475  0.1532
  176SOPE   C3720060   1.662   4.983  10.059 -0.2041  0.0074 -0.0062
  176SOPE   H7X20061   1.654   4.872  10.058  0.6588 -0.0868  1.7695
  176SOPE   H7Y20062   1.767   4.997  10.092 -0.5817  0.7485  0.9148
  176SOPE   C3820063   1.644   5.025   9.907  0.1337  0.0029 -0.4268
  176SOPE   H8X20064   1.671   5.129   9.880  0.7145 -0.3131 -1.0907
  176SOPE   H8Y20065   1.539   5.005   9.874  0.2141  1.0481 -1.3759
  176SOPE   C3920066   1.726   4.942   9.808  0.0422 -0.3611 -0.2965
  176SOPE   H9X20067   1.700   4.835   9.823  0.5516 -0.3360  0.8792
  176SOPE   H9Y20068   1.833   4.947   9.840 -0.1554  0.5993  0.2331
  176SOPE  C31020069   1.700   4.990   9.665  0.5646  0.3700 -0.1500
  176SOPE  H10X20070   1.716   5.100   9.662 -1.9590  0.8082  0.5651
  176SOPE  H10Y20071   1.597   4.966   9.633  0.4139  2.8477 -1.8496
  176SOPE  C31120072   1.792   4.910   9.571 -0.0853  0.9433  1.0759
  176SOPE  H11X20073   1.773   4.801   9.580 -1.1875  1.0592  0.4506
  176SOPE  H11Y20074   1.898   4.938   9.587  0.7803 -1.4643  0.0873
  176SOPE  C31220075   1.753   4.947   9.429 -0.2883  0.8145  0.2855
  176SOPE  H12X20076   1.761   5.058   9.429  1.6598  0.8992  5.1871
  176SOPE  H12Y20077   1.647   4.915   9.420 -0.4097  1.5554 -1.3873
  176SOPE  C31320078   1.840   4.879   9.320  0.6878  0.4096 -0.1811
  176SOPE  H13X20079   1.832   4.768   9.323  0.2077  0.4410 -0.3368
  176SOPE  H13Y20080   1.945   4.908   9.343  0.5854 -0.1723  1.0877
  176SOPE  C31420081   1.801   4.927   9.175 -0.3291  0.2567  0.1323
  176SOPE  H14X20082   1.829   5.033   9.157 -0.1737  0.4699  1.5414
  176SOPE  H14Y20083   1.694   4.920   9.146 -0.3220  1.4519 -0.2412
  176SOPE  C31520084   1.865   4.845   9.059 -0.1803  0.3994  0.3397
  176SOPE  H15X20085   1.861   4.740   9.097  2.3323  0.0987 -0.0498
  176SOPE  H15Y20086   1.973   4.870   9.049  0.6794 -1.9921  2.3620
  176SOPE  C31620087   1.797   4.861   8.925 -0.5256  0.3776  0.1256
  176SOPE  H16X20088   1.759   4.964   8.909 -0.4194  0.2857 -0.7537
  176SOPE  H16Y20089   1.709   4.794   8.932 -0.8192  0.8526  1.1605
  176SOPE  C31720090   1.883   4.824   8.804 -0.4150 -0.1251 -1.5327
  176SOPE  H17X20091   1.919   4.722   8.828 -0.8217  0.4107  1.7431
  176SOPE  H17Y20092   1.976   4.884   8.797 -1.6168  2.2527  1.0982
  176SOPE  C31820093   1.818   4.838   8.665 -1.0486 -0.3235 -0.0631
  176SOPE  H18X20094   1.710   4.815   8.658 -0.9278 -0.4004 -2.4341
  176SOPE  H18Y20095   1.874   4.773   8.594 -0.1378  1.0940 -0.6804
  176SOPE  H18Z20096   1.842   4.943   8.637  2.0820 -1.1612 -1.0024
  177SOPE     N20097   0.438   3.730  10.920  0.6982 -0.0737 -0.1225
  177SOPE   HN120098   0.481   3.720  10.826 -1.3145  0.1821 -1.1337
  177SOPE   HN220099   0.358   3.796  10.925  0.2092 -0.6068 -0.6310
  177SOPE   HN320100   0.501   3.749  11.000 -0.3820 -3.0167  1.5964
  177SOPE   C1220101   0.370   3.598  10.955  0.5365 -0.4352 -0.1612
  177SOPE  H12A20102   0.333   3.618  11.057  2.4560  1.3459  0.2590
  177SOPE  H12B20103   0.453   3.524  10.960  2.3605  1.5596  1.0243
  177SOPE   C1120104   0.248   3.570  10.861 -0.6910 -0.2440  0.3780
  177SOPE  H11A20105   0.282   3.542  10.759  1.6746 -1.2248  1.3750
  177SOPE  H11B20106   0.188   3.663  10.848 -0.7110 -0.6223 -3.1430
  177SOPE     P20107   0.048   3.475  10.998 -0.0021 -0.4745 -0.2001
  177SOPE   O1320108   0.087   3.574  11.102  0.3035 -0.3189 -0.5134
  177SOPE   O1420109   0.006   3.343  11.045  0.0415  0.5398  0.3022
  177SOPE   O1220110   0.174   3.457  10.902 -0.1707  0.0292 -0.0516
  177SOPE   O1120111  -0.063   3.542  10.908 -0.0281  0.1391  0.2377
  177SOPE    C120112  -0.129   3.465  10.809 -0.3141  0.3478  0.5258
  177SOPE    HA20113  -0.213   3.527  10.772  0.6148  2.8532  2.3655
  177SOPE    HB20114  -0.178   3.373  10.850  1.4541 -0.0637  1.8354
  177SOPE    C220115  -0.053   3.427  10.674 -0.5758  0.4825 -0.5854
  177SOPE    HS20116   0.041   3.372  10.696 -0.3720  0.9153 -0.3645
  177SOPE   O2120117  -0.022   3.549  10.608 -0.6969 -0.0539 -0.2414
  177SOPE   C2120118   0.088   3.555  10.538  0.1509  0.2886  0.0080
  177SOPE   O2220119   0.173   3.469  10.528  0.4118 -0.0702 -0.1672
  177SOPE   C2220120   0.104   3.694  10.478  0.3926 -0.0933  0.6159
  177SOPE   H2R20121   0.213   3.712  10.463  0.2613  0.4701  0.3082
  177SOPE   H2S20122   0.073   3.762  10.561 -1.9018 -1.6496  1.1066
  177SOPE    C320123  -0.150   3.342  10.587  0.9066 -0.3764 -0.1285
  177SOPE    HX20124  -0.243   3.400  10.571 -0.3734 -2.8379 -2.3855
  177SOPE    HY20125  -0.180   3.256  10.652 -0.1345  0.0909  0.0246
  177SOPE   O3120126  -0.082   3.306  10.460  0.3186 -0.0938  0.7070
  177SOPE   C3120127  -0.047   3.184  10.452 -0.4675  0.1361  1.0130
  177SOPE   O3220128  -0.062   3.097  10.541 -0.1862  0.3679  0.1089
  177SOPE   C3220129   0.023   3.156  10.323  0.3124  0.5592  0.0874
  177SOPE   H2X20130   0.128   3.192  10.336 -0.3772  2.1717  1.5236
  177SOPE   H2Y20131  -0.018   3.225  10.246  0.1172 -0.7124 -0.9898
  177SOPE   C2320132   0.029   3.710  10.345 -0.0715  0.2229  0.3732
  177SOPE   H3R20133   0.003   3.812  10.308 -0.7161 -0.4930 -1.2213
  177SOPE   H3S20134  -0.070   3.662  10.357  0.5207 -1.1395  0.0001
  177SOPE   C2420135   0.107   3.637  10.229 -0.2127 -0.0966 -0.3189
  177SOPE   H4R20136   0.201   3.690  10.203  0.8530 -0.9607  1.5623
  177SOPE   H4S20137   0.140   3.536  10.261  1.4500  0.1553 -1.1389
  177SOPE   C2520138   0.015   3.617  10.114  0.9957  0.5086  0.6918
  177SOPE   H5R20139  -0.075   3.565  10.152 -0.0057  0.4102 -1.6411
  177SOPE   H5S20140  -0.021   3.718  10.083  1.7057 -0.3227 -3.4940
  177SOPE   C2620141   0.080   3.532  10.008  0.6276 -0.4207  0.1301
  177SOPE   H6R20142   0.185   3.558   9.980  0.8013 -0.8557  0.3596
  177SOPE   H6S20143   0.080   3.428  10.049 -1.5575 -0.4814  0.0807
  177SOPE   C2720144   0.005   3.541   9.877  0.4544 -0.0310 -0.8339
  177SOPE   H7R20145  -0.099   3.517   9.905  1.0397 -0.7107  0.8572
  177SOPE   H7S20146  -0.002   3.648   9.846  0.1370  0.3054  0.3560
  177SOPE   C2820147   0.047   3.443   9.765  0.5790  0.3770  0.0881
  177SOPE   H8R20148   0.149   3.481   9.742 -0.5530  2.4130 -1.9365
  177SOPE   H8S20149   0.074   3.349   9.818  1.6109  1.0399  0.7927
  177SOPE   C2920150  -0.053   3.420   9.657  0.0875  0.2383 -0.5140
  177SOPE   H9120151  -0.157   3.396   9.685 -0.1572 -0.8752 -2.2254
  177SOPE  C21020152  -0.034   3.440   9.521  0.4874  0.3861  0.8249
  177SOPE  H10120153  -0.128   3.423   9.468  0.0474 -1.4667  2.0889
  177SOPE  C21120154   0.093   3.488   9.451 -0.0612  0.1629  0.3266
  177SOPE  H11R20155   0.133   3.397   9.401 -1.5556 -1.4070  1.8106
  177SOPE  H11S20156   0.177   3.533   9.509 -0.5593  0.4585  0.8334
  177SOPE  C21220157   0.049   3.590   9.348  0.7331 -0.0475 -1.2513
  177SOPE  H12R20158  -0.006   3.671   9.400  1.4733 -0.3321  0.0282
  177SOPE  H12S20159  -0.026   3.545   9.280  0.5110 -1.7134  0.0168
  177SOPE  C21320160   0.171   3.635   9.265  0.2630 -0.8072 -0.1629
  177SOPE  H13R20161   0.200   3.540   9.217 -0.5378 -1.2463  0.2052
  177SOPE  H13S20162   0.251   3.668   9.334  1.1112 -1.6818 -0.7084
  177SOPE  C21420163   0.145   3.752   9.165  0.1609  0.3696 -0.1680
  177SOPE  H14R20164   0.099   3.835   9.223 -2.1886  0.1125 -1.5467
  177SOPE  H14S20165   0.063   3.723   9.097  0.0053 -2.5384  1.1175
  177SOPE  C21520166   0.271   3.806   9.089  0.6522 -0.4885  0.1285
  177SOPE  H15R20167   0.368   3.795   9.143 -0.3997 -1.1457  1.9437
  177SOPE  H15S20168   0.259   3.913   9.063  1.4059 -0.0335  1.5537
  177SOPE  C21620169   0.285   3.741   8.946  0.5769 -0.9446  0.5927
  177SOPE  H16R20170   0.191   3.763   8.892 -0.1136 -0.0357  2.0958
  177SOPE  H16S20171   0.307   3.633   8.958  2.8738 -0.7363 -1.0823
  177SOPE  C21720172   0.397   3.800   8.866 -0.2341 -0.3659  0.3674
  177SOPE  H17R20173   0.424   3.728   8.786 -0.3037 -1.5726  1.3980
  177SOPE  H17S20174   0.490   3.821   8.923  0.1373  0.1315 -0.4099
  177SOPE  C21820175   0.355   3.925   8.785  0.0846  0.5371 -0.3806
  177SOPE  H18R20176   0.311   3.904   8.685  1.9925 -2.6366 -0.6935
  177SOPE  H18S20177   0.447   3.981   8.760  0.5021  0.5794  1.1469
  177SOPE  H18T20178   0.292   3.995   8.844 -0.8781 -0.1956 -0.5121
  177SOPE   C3320179   0.017   3.007  10.293 -0.4638 -0.2267  0.2899
  177SOPE   H3X20180  -0.092   2.988  10.286 -0.1559 -1.8320 -0.4591
  177SOPE   H3Y20181   0.063   2.956  10.380 -3.7163 -0.2353  2.1818
  177SOPE   C3420182   0.086   2.968  10.164  0.0658  0.1240 -0.6288
  177SOPE   H4X20183   0.105   2.859  10.159  0.5109  0.0343  1.8208
  177SOPE   H4Y20184   0.191   3.004  10.167 -0.2647  1.1227 -0.5053
  177SOPE   C3520185   0.016   3.005  10.034  0.4225 -0.1072  0.4408
  177SOPE   H5X20186  -0.008   3.113  10.024  0.5382 -0.1613 -0.5370
  177SOPE   H5Y20187  -0.082   2.963  10.003  0.3100  1.5527 -1.6999
  177SOPE   C3620188   0.097   2.967   9.910 -0.1077 -0.0556 -0.5920
  177SOPE   H6X20189   0.116   2.857   9.906  3.2213  0.3221  1.1895
  177SOPE   H6Y20190   0.193   3.013   9.940  0.6598 -0.9407 -1.6308
  177SOPE   C3720191   0.034   3.020   9.783  0.1812  0.1475 -0.3324
  177SOPE   H7X20192   0.033   3.131   9.784 -0.4879  0.1652  2.0321
  177SOPE   H7Y20193  -0.065   2.976   9.760  1.1909 -0.9886 -2.9265
  177SOPE   C3820194   0.120   2.977   9.656 -0.1462 -0.6811  0.3082
  177SOPE   H8X20195   0.123   2.866   9.657 -0.1691 -0.7006 -0.8749
  177SOPE   H8Y20196   0.226   3.008   9.651 -0.8633  1.7461 -2.5863
  177SOPE   C3920197   0.061   3.023   9.523  0.2467 -0.3427 -0.4274
  177SOPE   H9X20198   0.076   3.133   9.510 -0.5870 -0.4169 -2.4870
  177SOPE   H9Y20199  -0.048   3.001   9.525  0.0255  0.7192  0.0437
  177SOPE  C31020200   0.126   2.953   9.409 -0.1069 -0.0240 -0.5223
  177SOPE  H10X20201   0.057   2.976   9.325 -0.2487  1.1223 -0.1073
  177SOPE  H10Y20202   0.122   2.843   9.421 -1.1944  0.0956  0.3862
  177SOPE  C31120203   0.277   3.008   9.375  1.1570  0.3145  0.5282
  177SOPE  H11X20204   0.338   3.011   9.468  0.4131 -1.3517  1.1132
  177SOPE  H11Y20205   0.268   3.108   9.329 -0.6552  1.4045  3.0048
  177SOPE  C31220206   0.353   2.912   9.279  0.2681  0.2477 -0.0510
  177SOPE  H12X20207   0.317   2.810   9.304  2.3963 -0.3702  0.7035
  177SOPE  H12Y20208   0.462   2.916   9.301  0.3232 -0.8003 -0.0771
  177SOPE  C31320209   0.328   2.932   9.126  0.7433  0.2495  0.1619
  177SOPE  H13X20210   0.320   3.040   9.103  0.8493 -0.0211 -1.2207
  177SOPE  H13Y20211   0.225   2.895   9.105  0.6430 -0.2198  1.3650
  177SOPE  C31420212   0.430   2.860   9.041 -0.3381  0.1067  0.5115
  177SOPE  H14X20213   0.415   2.750   9.050 -0.7918 -0.2866 -3.3069
  177SOPE  H14Y20214   0.533   2.890   9.071 -0.0794  0.5070 -0.7136
  177SOPE  C31520215   0.412   2.904   8.897  0.1992 -0.1421 -0.0675
  177SOPE  H15X20216   0.489   2.977   8.863  0.8155 -0.8662 -0.2572
  177SOPE  H15Y20217   0.317   2.958   8.877  0.3019  0.2484  0.4607
  177SOPE  C31620218   0.410   2.788   8.798 -0.5459 -0.1468 -0.6869
  177SOPE  H16X20219   0.506   2.732   8.796 -1.9296 -2.7402  0.3601
  177SOPE  H16Y20220   0.402   2.833   8.697  1.9304 -0.9554 -1.3138
  177SOPE  C31720221   0.291   2.695   8.812 -0.5055 -0.4950  0.2802
  177SOPE  H17X20222   0.202   2.759   8.792 -0.1727  0.6642  2.2487
  177SOPE  H17Y20223   0.292   2.648   8.913  0.4102 -1.6863 -0.2527
  177SOPE  C31820224   0.295   2.587   8.705 -0.0082  0.5141 -0.3133
  177SOPE  H18X20225   0.377   2.517   8.736 -0.3713  0.7477  1.2868
  177SOPE  H18Y20226   0.311   2.627   8.603  0.0501  1.3017  0.0004
  177SOPE  H18Z20227   0.205   2.523   8.701  0.3807 -0.0073 -1.0772
  178SOPE     N20228   4.831   1.606  10.910  0.0638  0.4205 -0.2009
  178SOPE   HN120229   4.893   1.543  10.855  0.5322  0.2302  0.5376
  178SOPE   HN220230   4.886   1.672  10.968 -0.5878  0.8827 -0.0955
  178SOPE   HN320231   4.773   1.553  10.978 -0.6088  1.6265  0.1893
  178SOPE   C1220232   4.724   1.677  10.832  0.0558  0.3652  0.5527
  178SOPE  H12A20233   4.774   1.738  10.754 -1.9214  1.3902  0.0444
  178SOPE  H12B20234   4.671   1.743  10.904  1.0739  2.0869 -0.2104
  178SOPE   C1120235   4.639   1.570  10.757  1.0262  0.4585 -0.4830
  178SOPE  H11A20236   4.704   1.519  10.684  2.2545  2.0690 -0.5811
  178SOPE  H11B20237   4.561   1.623  10.697  1.6911  0.1834 -1.6094
  178SOPE     P20238   4.454   1.468  10.914 -0.0122  0.0299 -0.0492
  178SOPE   O1320239   4.410   1.605  10.957  0.0142  0.2903  0.1129
  178SOPE   O1420240   4.457   1.352  11.008  0.4919 -0.4295 -0.4026
  178SOPE   O1220241   4.594   1.470  10.850 -0.3811  0.2456 -0.0945
  178SOPE   O1120242   4.366   1.438  10.784  0.0806 -0.0797 -0.5657
  178SOPE    C120243   4.377   1.307  10.726 -0.1575 -0.2800 -0.2673
  178SOPE    HA20244   4.355   1.225  10.798  0.0502 -1.7374 -1.7939
  178SOPE    HB20245   4.478   1.282  10.688 -0.2940 -1.4644  0.0827
  178SOPE    C220246   4.287   1.295  10.605 -0.1685  0.1105 -0.2131
  178SOPE    HS20247   4.292   1.194  10.559  0.8476  0.5462 -1.1238
  178SOPE   O2120248   4.325   1.392  10.505  0.9015 -0.0270 -0.6591
  178SOPE   C2120249   4.442   1.379  10.446  0.0513 -0.7392  0.3591
  178SOPE   O2220250   4.511   1.280  10.442  0.1717 -0.2159  0.3662
  178SOPE   C2220251   4.471   1.502  10.347 -0.4998  0.3487 -0.8487
  178SOPE   H2R20252   4.543   1.461  10.273 -0.2021 -0.2533 -0.2328
  178SOPE   H2S20253   4.522   1.587  10.397 -1.5635  2.0849 -2.6004
  178SOPE    C320254   4.134   1.300  10.645 -0.4173 -0.2082  0.4038
  178SOPE    HX20255   4.121   1.406  10.674 -1.7040 -0.7162  1.7943
  178SOPE    HY20256   4.118   1.236  10.734 -0.5676 -3.0049 -1.4827
  178SOPE   O3120257   4.037   1.262  10.536 -0.6303  0.0580  0.1068
  178SOPE   C3120258   3.982   1.359  10.470  0.5025 -0.0784 -0.1571
  178SOPE   O3220259   4.006   1.480  10.492  0.9717  0.1401  0.7201
  178SOPE   C3220260   3.874   1.307  10.373  0.1135  0.6703 -0.1087
  178SOPE   H2X20261   3.778   1.301  10.428 -0.9875  0.6791 -1.9292
  178SOPE   H2Y20262   3.894   1.202  10.342 -0.3821 -0.0021  1.7478
  178SOPE   C2320263   4.346   1.562  10.265  0.2411  0.1256 -0.0824
  178SOPE   H3R20264   4.275   1.593  10.344  0.0354  0.1005 -0.2568
  178SOPE   H3S20265   4.289   1.482  10.213 -0.2535  1.6079 -1.9526
  178SOPE   C2420266   4.383   1.679  10.167 -0.7663  1.1937 -0.4955
  178SOPE   H4R20267   4.288   1.726  10.133 -0.8309 -0.4781 -2.8622
  178SOPE   H4S20268   4.450   1.754  10.214 -0.5417  0.0028  1.1661
  178SOPE   C2520269   4.450   1.621  10.040 -0.8753  0.4101 -0.0324
  178SOPE   H5R20270   4.514   1.704  10.000  0.9997 -0.5199  0.8934
  178SOPE   H5S20271   4.536   1.555  10.066 -0.8738  0.3313 -0.2403
  178SOPE   C2620272   4.361   1.576   9.930  0.7297 -0.0627 -0.0383
  178SOPE   H6R20273   4.428   1.542   9.848  2.4534  1.2468  0.7521
  178SOPE   H6S20274   4.300   1.494   9.973 -0.1976  1.9566  2.8010
  178SOPE   C2720275   4.266   1.687   9.878  0.0734  0.2629  0.0420
  178SOPE   H7R20276   4.210   1.749   9.951 -1.2194 -1.0799  0.2384
  178SOPE   H7S20277   4.336   1.759   9.832  0.5943 -0.7902 -0.8745
  178SOPE   C2820278   4.158   1.630   9.780  1.0966 -0.3643  0.5109
  178SOPE   H8R20279   4.101   1.707   9.725 -3.1095 -2.7753  1.1093
  178SOPE   H8S20280   4.196   1.561   9.702  1.1514  0.1361  0.0904
  178SOPE   C2920281   4.049   1.559   9.858  0.3238 -0.0445  0.4500
  178SOPE   H9120282   4.077   1.515   9.955 -0.8005 -1.3155  0.2189
  178SOPE  C21020283   3.930   1.517   9.813  0.2263 -0.2249 -0.3859
  178SOPE  H10120284   3.861   1.468   9.883  1.4009 -1.0993  0.1877
  178SOPE  C21120285   3.851   1.533   9.681  0.3812 -0.0341 -0.0845
  178SOPE  H11R20286   3.893   1.614   9.618  0.0550  0.1053 -0.1235
  178SOPE  H11S20287   3.745   1.563   9.695  0.7267  0.3789  1.9426
  178SOPE  C21220288   3.830   1.393   9.614 -0.5382 -0.9561 -0.0361
  178SOPE  H12R20289   3.835   1.322   9.699 -0.8054 -2.1272 -0.9740
  178SOPE  H12S20290   3.912   1.372   9.542 -1.4421 -0.5112 -1.2404
  178SOPE  C21320291   3.693   1.368   9.540  0.4813  0.4074  0.0861
  178SOPE  H13R20292   3.653   1.447   9.473  0.5441  1.9396  1.7853
  178SOPE  H13S20293   3.625   1.353   9.627  1.2668 -0.6282  0.5537
  178SOPE  C21420294   3.686   1.237   9.472 -0.1826  0.1044  0.1543
  178SOPE  H14R20295   3.586   1.192   9.455  0.5674 -2.1367  1.2503
  178SOPE  H14S20296   3.735   1.149   9.520 -1.7751 -1.8789 -1.6593
  178SOPE  C21520297   3.732   1.242   9.321  0.5419 -0.0536 -0.5770
  178SOPE  H15R20298   3.837   1.278   9.319  1.3843 -2.0396  2.2010
  178SOPE  H15S20299   3.655   1.313   9.284 -0.1381 -0.3884  0.1503
  178SOPE  C21620300   3.717   1.111   9.248 -0.3163  0.2602  0.0052
  178SOPE  H16R20301   3.622   1.063   9.283  0.1409  0.3950  1.5190
  178SOPE  H16S20302   3.797   1.037   9.269  0.2695  0.4458 -1.4671
  178SOPE  C21720303   3.724   1.132   9.094  0.5390 -0.2814 -0.6828
  178SOPE  H17R20304   3.748   1.030   9.056  1.5644 -0.0106 -0.8080
  178SOPE  H17S20305   3.812   1.195   9.068  0.2894  1.5499  2.4334
  178SOPE  C21820306   3.591   1.192   9.043 -0.0809 -0.3757  0.4473
  178SOPE  H18R20307   3.500   1.140   9.080 -1.2243 -0.2188 -1.9153
  178SOPE  H18S20308   3.592   1.193   8.932 -1.2953  1.1942  0.4154
  178SOPE  H18T20309   3.596   1.300   9.071  2.0888  0.0253 -1.2074
  178SOPE   C3320310   3.868   1.390  10.241  0.5675 -0.0319  0.6350
  178SOPE   H3X20311   3.957   1.387  10.176  1.1686 -0.1522  1.4469
  178SOPE   H3Y20312   3.853   1.498  10.260 -0.9926 -0.0527 -0.2963
  178SOPE   C3420313   3.743   1.356  10.152 -0.3385 -0.1293  0.0872
  178SOPE   H4X20314   3.757   1.405  10.053 -0.8582 -2.0175 -0.9843
  178SOPE   H4Y20315   3.654   1.406  10.194 -0.6126 -0.3793 -0.1941
  178SOPE   C3520316   3.724   1.210  10.136 -0.1011 -0.7822  0.0773
  178SOPE   H5X20317   3.634   1.211  10.071 -1.1367  3.7618  1.2541
  178SOPE   H5Y20318   3.706   1.155  10.231  0.5999 -1.9586 -0.4507
  178SOPE   C3620319   3.837   1.129  10.064  0.4322  0.1121 -0.2585
  178SOPE   H6X20320   3.922   1.123  10.134 -0.0810  1.2808  0.5095
  178SOPE   H6Y20321   3.859   1.188   9.972  1.6232  3.0561  1.7718
  178SOPE   C3720322   3.773   0.998  10.013  1.0914 -0.1510  0.5005
  178SOPE   H7X20323   3.682   1.015   9.952  2.2903 -0.0808 -1.3704
  178SOPE   H7Y20324   3.729   0.946  10.101  0.8892  1.3523  1.3115
  178SOPE   C3820325   3.869   0.903   9.955 -0.5385 -0.1234  0.5165
  178SOPE   H8X20326   3.821   0.803   9.967 -0.0031 -0.2969  1.2767
  178SOPE   H8Y20327   3.966   0.904  10.009  0.7101  0.6985 -1.6370
  178SOPE   C3920328   3.890   0.932   9.802 -0.0309 -0.6204  0.0952
  178SOPE   H9X20329   3.936   1.032   9.790  2.5355 -1.2651  3.2660
  178SOPE   H9Y20330   3.790   0.956   9.759 -0.3246 -1.3511  0.3564
  178SOPE  C31020331   3.958   0.810   9.726 -0.1310 -0.8619 -0.7499
  178SOPE  H10X20332   3.907   0.717   9.759  2.2275 -1.7754  0.5703
  178SOPE  H10Y20333   4.065   0.802   9.752 -0.3413  1.3688  1.1054
  178SOPE  C31120334   3.937   0.828   9.577 -0.2504  0.1196 -0.0510
  178SOPE  H11X20335   3.990   0.918   9.541  0.5610 -0.6668 -0.8472
  178SOPE  H11Y20336   3.831   0.826   9.545 -0.0518  0.8046 -0.7842
  178SOPE  C31220337   3.992   0.707   9.503  0.1293  0.2814 -0.0370
  178SOPE  H12X20338   3.944   0.617   9.547 -0.2572  0.4217 -0.1684
  178SOPE  H12Y20339   4.102   0.703   9.513  0.3887  1.9219 -1.7788
  178SOPE  C31320340   3.951   0.703   9.356  0.3635  0.8670 -0.3666
  178SOPE  H13X20341   3.851   0.749   9.344 -0.6359 -1.2438 -0.6610
  178SOPE  H13Y20342   3.965   0.605   9.306  1.6065  0.7709  0.1143
  178SOPE  C31420343   4.037   0.791   9.259  0.7987 -0.4857  0.2624
  178SOPE  H14X20344   4.145   0.767   9.269  0.3036 -2.0380  2.9736
  178SOPE  H14Y20345   4.021   0.894   9.298 -0.9672 -1.6098  2.7621
  178SOPE  C31520346   3.997   0.765   9.109  0.3639 -0.0493  0.1122
  178SOPE  H15X20347   3.897   0.810   9.090  1.9392  3.9573  0.4728
  178SOPE  H15Y20348   3.984   0.657   9.086  0.4456 -0.1075  0.3378
  178SOPE  C31620349   4.084   0.834   9.013 -0.6840  0.4476  0.2522
  178SOPE  H16X20350   4.174   0.779   8.978  0.4448  3.1705 -1.4958
  178SOPE  H16Y20351   4.128   0.930   9.050  1.7906 -0.1483 -0.9015
  178SOPE  C31720352   4.003   0.869   8.886 -0.7021 -0.4629  0.0722
  178SOPE  H17X20353   3.935   0.955   8.900  1.9863  1.6712  0.8758
  178SOPE  H17Y20354   3.945   0.782   8.848  2.4616 -1.6861 -2.4809
  178SOPE  C31820355   4.101   0.904   8.774 -0.8853 -0.6259 -0.1036
  178SOPE  H18X20356   4.167   0.815   8.774 -1.6279 -1.1822 -0.2345
  178SOPE  H18Y20357   4.152   1.002   8.789 -0.8526 -0.6662  0.0544
  178SOPE  H18Z20358   4.050   0.904   8.675  0.6192 -1.2170 -0.9115
  179SOPE     N20359   3.738   3.462   6.499  0.4023  0.0265  0.0753
  179SOPE   HN120360   3.689   3.386   6.549 -1.0884  0.1381 -1.1344
  179SOPE   HN220361   3.823   3.426   6.451 -0.3754 -1.1657 -0.4408
  179SOPE   HN320362   3.775   3.534   6.564 -0.0460  1.0451 -0.7542
  179SOPE   C1220363   3.661   3.526   6.387  0.1209  0.5018 -0.3706
  179SOPE  H12A20364   3.599   3.440   6.354 -0.1150 -0.3997  2.1770
  179SOPE  H12B20365   3.731   3.556   6.307 -0.7119  0.1826 -1.2348
  179SOPE   C1120366   3.580   3.646   6.434  0.1323  0.1366 -0.0540
  179SOPE  H11A20367   3.520   3.676   6.346 -2.0307 -2.2229  0.5124
  179SOPE  H11B20368   3.645   3.730   6.469 -0.4658  0.9333 -0.8024
  179SOPE     P20369   3.343   3.637   6.553 -0.0791 -0.5495  0.1726
  179SOPE   O1320370   3.287   3.567   6.431  0.1743  0.1622  0.1018
  179SOPE   O1420371   3.321   3.787   6.557 -0.3693  0.4433 -0.0559
  179SOPE   O1220372   3.496   3.610   6.544 -0.1799 -0.3808 -0.1495
  179SOPE   O1120373   3.285   3.557   6.678 -0.0269  0.0817  0.0676
  179SOPE    C120374   3.359   3.444   6.739  0.1359 -0.2574  0.3755
  179SOPE    HA20375   3.468   3.460   6.743  0.2503 -0.4793 -1.3388
  179SOPE    HB20376   3.338   3.349   6.685 -0.9966  0.3463 -0.2706
  179SOPE    C220377   3.334   3.417   6.887  0.6571  0.0563 -0.0056
  179SOPE    HS20378   3.417   3.349   6.917 -0.3800 -0.9112  0.7976
  179SOPE   O2120379   3.199   3.373   6.922  0.6250 -0.6050  0.4958
  179SOPE   C2120380   3.190   3.243   6.898  0.3647  0.2572 -0.3871
  179SOPE   O2220381   3.273   3.171   6.848  0.1414  0.4119  0.3366
  179SOPE   C2220382   3.044   3.189   6.925  0.0518  0.9660  0.4264
  179SOPE   H2R20383   3.057   3.080   6.938 -0.4662  0.5719 -1.9448
  179SOPE   H2S20384   2.975   3.203   6.840  0.3106 -0.8934 -0.1221
  179SOPE    C320385   3.375   3.551   6.962  0.6191 -0.3547  0.7974
  179SOPE    HX20386   3.329   3.629   6.898 -0.8718 -1.6928  0.1645
  179SOPE    HY20387   3.483   3.574   6.970  0.7862 -0.6510 -0.4906
  179SOPE   O3120388   3.334   3.563   7.105 -0.4387  0.5969  0.0497
  179SOPE   C3120389   3.211   3.622   7.118 -0.9288  0.9636 -0.2649
  179SOPE   O3220390   3.143   3.664   7.028  0.2951 -0.6964 -0.5104
  179SOPE   C3220391   3.166   3.619   7.263  0.3745 -0.5495 -0.7010
  179SOPE   H2X20392   3.230   3.687   7.324 -0.8875 -0.8801  1.0735
  179SOPE   H2Y20393   3.156   3.514   7.299  0.3258 -0.5649 -0.7594
  179SOPE   C2320394   2.988   3.250   7.059  0.6421  0.0328 -0.0659
  179SOPE   H3R20395   2.894   3.196   7.083 -0.1069  0.8925 -0.9427
  179SOPE   H3S20396   2.965   3.358   7.048  0.7358  0.0316 -0.2832
  179SOPE   C2420397   3.069   3.201   7.177 -0.6564  0.0384  0.3436
  179SOPE   H4R20398   3.077   3.091   7.159  0.5330  0.2635 -0.6612
  179SOPE   H4S20399   3.166   3.254   7.173  0.2144 -1.3811  1.7673
  179SOPE   C2520400   3.003   3.243   7.304  0.1318 -0.1468 -0.4333
  179SOPE   H5R20401   3.006   3.354   7.312  2.2406 -0.0264 -2.0052
  179SOPE   H5S20402   2.897   3.210   7.304  0.6031 -1.8426 -2.1599
  179SOPE   C2620403   3.070   3.177   7.429  0.2211  0.4662 -0.0141
  179SOPE   H6R20404   2.981   3.166   7.494 -0.2484 -1.8457 -0.9357
  179SOPE   H6S20405   3.082   3.072   7.395 -4.2407 -0.0104 -0.7200
  179SOPE   C2720406   3.187   3.238   7.499 -0.5660 -0.0066  0.2065
  179SOPE   H7R20407   3.278   3.227   7.436 -0.5048 -0.9785  0.4416
  179SOPE   H7S20408   3.167   3.345   7.522  2.5266  0.3580  1.6981
  179SOPE   C2820409   3.221   3.167   7.638  0.1627  0.6795 -0.7711
  179SOPE   H8R20410   3.134   3.166   7.708  0.9149 -3.0508  0.3575
  179SOPE   H8S20411   3.245   3.061   7.615 -1.3829  0.7672 -3.0858
  179SOPE   C2920412   3.354   3.210   7.712 -0.0581 -0.6992 -0.0424
  179SOPE   H9120413   3.452   3.189   7.668  1.2589  2.0912  1.3286
  179SOPE  C21020414   3.375   3.271   7.831  0.9356 -0.4320  0.4298
  179SOPE  H10120415   3.475   3.304   7.863  1.4624  0.6857 -2.0939
  179SOPE  C21120416   3.262   3.328   7.913 -0.2632  0.0331 -0.9305
  179SOPE  H11R20417   3.278   3.277   8.011  1.5769 -0.5738 -1.5050
  179SOPE  H11S20418   3.162   3.301   7.874 -1.1068  0.4102  0.8407
  179SOPE  C21220419   3.252   3.482   7.930 -0.0473 -0.8132  0.0510
  179SOPE  H12R20420   3.256   3.528   7.829  1.2890 -1.0536 -0.0222
  179SOPE  H12S20421   3.343   3.518   7.982 -1.6462  1.7383  1.2851
  179SOPE  C21320422   3.122   3.528   7.998 -0.9279 -0.2054 -0.1020
  179SOPE  H13R20423   3.100   3.476   8.094 -0.8601  0.1503  0.1066
  179SOPE  H13S20424   3.036   3.506   7.932 -1.4480  1.2748  0.0506
  179SOPE  C21420425   3.117   3.682   8.033  0.7240 -0.2081 -0.6797
  179SOPE  H14R20426   3.023   3.707   8.087  1.4514 -0.3070  0.6779
  179SOPE  H14S20427   3.110   3.737   7.937  0.5377 -0.4477 -0.8031
  179SOPE  C21520428   3.228   3.717   8.131 -0.7113  0.2341 -0.5038
  179SOPE  H15R20429   3.321   3.726   8.071  0.5721  0.6686  1.4647
  179SOPE  H15S20430   3.251   3.638   8.205  2.2648 -0.5971 -2.1748
  179SOPE  C21620431   3.210   3.845   8.211 -0.6896 -0.0099 -0.5796
  179SOPE  H16R20432   3.115   3.844   8.270 -0.6365 -1.0679 -0.4925
  179SOPE  H16S20433   3.211   3.930   8.139  0.5588  0.9697  0.5578
  179SOPE  C21720434   3.331   3.867   8.303 -0.1543 -0.1238 -0.8196
  179SOPE  H17R20435   3.421   3.854   8.239  0.0663 -3.1364 -0.0344
  179SOPE  H17S20436   3.334   3.797   8.389 -1.2661 -0.8799 -1.3594
  179SOPE  C21820437   3.331   4.007   8.371 -0.0510 -0.1677  1.1575
  179SOPE  H18R20438   3.419   4.027   8.435 -0.9998 -0.0295  2.4658
  179SOPE  H18S20439   3.248   4.037   8.438 -0.9380 -1.3440  0.6302
  179SOPE  H18T20440   3.341   4.084   8.291  1.8916 -0.3528  1.1926
  179SOPE   C3320441   3.022   3.666   7.285  0.9973 -0.0906 -0.7325
  179SOPE   H3X20442   2.940   3.625   7.223 -1.8978  0.6489  2.3167
  179SOPE   H3Y20443   3.014   3.775   7.266  1.0548 -0.0129 -0.3248
  179SOPE   C3420444   2.997   3.643   7.437  0.6978 -0.2437  0.7124
  179SOPE   H4X20445   3.079   3.705   7.478 -1.2149  2.3612  0.8023
  179SOPE   H4Y20446   3.005   3.541   7.481  0.1670  0.2426  1.9790
  179SOPE   C3520447   2.864   3.702   7.478  0.3776 -0.4728  0.6564
  179SOPE   H5X20448   2.778   3.642   7.439 -0.1633 -0.8733  2.3711
  179SOPE   H5Y20449   2.852   3.808   7.448 -0.7782 -0.8978 -0.5089
  179SOPE   C3620450   2.857   3.702   7.630  0.2750 -0.2631  0.5477
  179SOPE   H6X20451   2.931   3.781   7.656  0.0555  1.2305 -2.8051
  179SOPE   H6Y20452   2.885   3.607   7.681  1.6220 -0.3199 -0.2498
  179SOPE   C3720453   2.714   3.737   7.677  0.2993 -0.4145 -0.1607
  179SOPE   H7X20454   2.661   3.640   7.662  2.8390 -1.9669  0.3587
  179SOPE   H7Y20455   2.663   3.805   7.605  0.3043 -2.0357 -1.7822
  179SOPE   C3820456   2.712   3.762   7.830 -0.6360 -0.5821  0.2279
  179SOPE   H8X20457   2.772   3.851   7.858 -1.3177 -0.0987  0.1725
  179SOPE   H8Y20458   2.760   3.677   7.884  0.2304  0.3105  0.8919
  179SOPE   C3920459   2.571   3.767   7.888  0.0381 -0.6985 -0.1156
  179SOPE   H9X20460   2.520   3.674   7.853  2.8599 -1.2305 -3.3326
  179SOPE   H9Y20461   2.523   3.858   7.846 -1.6443 -1.6111 -0.2898
  179SOPE  C31020462   2.564   3.782   8.042  0.6631  0.5948 -0.6340
  179SOPE  H10X20463   2.465   3.821   8.072  0.6278 -1.0607  1.6321
  179SOPE  H10Y20464   2.649   3.849   8.070 -0.8318  1.5654  1.8777
  179SOPE  C31120465   2.589   3.645   8.115 -0.5158 -0.1984  0.3255
  179SOPE  H11X20466   2.676   3.603   8.061 -0.8004  0.7822 -0.9531
  179SOPE  H11Y20467   2.507   3.570   8.113  1.4229 -2.4600  1.2422
  179SOPE  C31220468   2.633   3.660   8.265 -0.1130  0.2110 -0.1916
  179SOPE  H12X20469   2.738   3.693   8.276 -0.6503  1.6722  0.9017
  179SOPE  H12Y20470   2.632   3.557   8.306  2.5207 -0.0309 -0.5617
  179SOPE  C31320471   2.543   3.762   8.339  0.0201  0.1458 -0.4915
  179SOPE  H13X20472   2.436   3.729   8.339  0.3871 -1.1866 -2.1513
  179SOPE  H13Y20473   2.548   3.861   8.288 -4.3753  1.3438  0.9039
  179SOPE  C31420474   2.584   3.780   8.485 -0.3125 -0.2806 -0.0133
  179SOPE  H14X20475   2.692   3.800   8.500 -0.1645 -1.8468  1.3098
  179SOPE  H14Y20476   2.574   3.677   8.526  3.1541 -0.5880  0.2988
  179SOPE  C31520477   2.506   3.883   8.551  0.0571 -0.6404 -0.3488
  179SOPE  H15X20478   2.402   3.900   8.516  0.0601  2.7968  0.9791
  179SOPE  H15Y20479   2.557   3.981   8.542 -1.8411  0.3106 -1.3543
  179SOPE  C31620480   2.490   3.847   8.704 -0.9267  0.1005  0.5545
  179SOPE  H16X20481   2.470   3.938   8.765  3.0987  0.9823  0.8385
  179SOPE  H16Y20482   2.594   3.815   8.727 -1.4679 -3.5543 -1.3440
  179SOPE  C31720483   2.392   3.732   8.723 -0.2126  0.1525 -0.1719
  179SOPE  H17X20484   2.382   3.663   8.636 -0.8872  0.7614 -0.5855
  179SOPE  H17Y20485   2.292   3.779   8.738 -0.8534 -0.8005 -1.2550
  179SOPE  C31820486   2.430   3.656   8.846 -0.2765 -0.2775 -0.1095
  179SOPE  H18X20487   2.522   3.603   8.815 -0.9696 -1.7463  0.2463
  179SOPE  H18Y20488   2.345   3.595   8.884  0.9930 -2.0368  0.0622
  179SOPE  H18Z20489   2.468   3.725   8.924  0.8217  1.9955 -2.4951
  180SOPE     N20490   3.264   2.187   6.377  0.3969 -0.0262  0.4607
  180SOPE   HN120491   3.189   2.245   6.419  0.3455  1.3876 -1.4469
  180SOPE   HN220492   3.299   2.121   6.449 -1.7284 -0.3920  1.1993
  180SOPE   HN320493   3.343   2.245   6.342 -0.1480 -0.9363 -2.6200
  180SOPE   C1220494   3.219   2.110   6.254  0.1463  0.2457 -0.5419
  180SOPE  H12A20495   3.298   2.040   6.219 -0.6886 -1.3169  0.5602
  180SOPE  H12B20496   3.199   2.190   6.179 -1.1745 -1.5165 -2.1792
  180SOPE   C1120497   3.085   2.031   6.274  0.1343  0.3106  0.0575
  180SOPE  H11A20498   3.091   1.952   6.352  1.3878  0.2186 -0.0961
  180SOPE  H11B20499   3.055   1.971   6.185 -0.3052 -1.9828  1.6861
  180SOPE     P20500   2.842   2.094   6.355  0.0860 -0.1719 -0.3200
  180SOPE   O1320501   2.767   2.044   6.235  0.2316 -0.5372 -0.1116
  180SOPE   O1420502   2.784   2.209   6.422 -0.2902  0.2088  0.0666
  180SOPE   O1220503   2.989   2.124   6.315 -0.5693  0.4631  0.0188
  180SOPE   O1120504   2.861   1.972   6.454  0.4589 -0.3607 -0.3165
  180SOPE    C120505   2.954   1.990   6.563 -0.4535 -0.0574 -0.0576
  180SOPE    HA20506   3.032   2.069   6.552  0.5394 -0.9072  0.6730
  180SOPE    HB20507   3.008   1.892   6.562  2.3451  1.3919 -0.1785
  180SOPE    C220508   2.873   2.022   6.689  0.0590 -0.9015  0.3640
  180SOPE    HS20509   2.824   2.120   6.674 -0.3703 -0.7239  2.6176
  180SOPE   O2120510   2.961   2.020   6.804 -0.3538  0.3383  0.2571
  180SOPE   C2120511   3.035   2.119   6.831 -0.5060  0.8312  0.3182
  180SOPE   O2220512   3.066   2.213   6.756  0.2504 -0.1252  0.3023
  180SOPE   C2220513   3.068   2.112   6.981  0.6586  0.8786  0.7569
  180SOPE   H2R20514   3.107   2.010   6.999 -0.2277 -0.2862 -3.0968
  180SOPE   H2S20515   2.975   2.125   7.039  0.0896  0.4334 -0.0357
  180SOPE    C320516   2.753   1.922   6.705 -1.0255 -0.5220 -0.4820
  180SOPE    HX20517   2.779   1.816   6.684 -1.8781 -0.7003 -0.7063
  180SOPE    HY20518   2.681   1.946   6.623 -0.9786 -0.2930 -0.4552
  180SOPE   O3120519   2.698   1.948   6.843 -0.1895  0.5317  0.2043
  180SOPE   C3120520   2.639   1.839   6.893  0.5043  0.9403 -0.2508
  180SOPE   O3220521   2.624   1.730   6.836 -0.1282  0.4201  0.2834
  180SOPE   C3220522   2.592   1.885   7.038 -0.4376  0.0131  0.2870
  180SOPE   H2X20523   2.482   1.884   7.026 -0.2506 -1.0891 -1.9731
  180SOPE   H2Y20524   2.623   1.991   7.053  0.5365 -0.4692  1.9549
  180SOPE   C2320525   3.171   2.214   7.033  0.2262 -0.0720 -0.0767
  180SOPE   H3R20526   3.161   2.316   6.991 -0.4671 -1.2365 -3.0150
  180SOPE   H3S20527   3.275   2.183   7.007 -0.2398  0.1611 -2.3775
  180SOPE   C2420528   3.174   2.226   7.188  1.0469 -0.4831 -0.2201
  180SOPE   H4R20529   3.078   2.268   7.223  0.9047 -1.5021  0.6600
  180SOPE   H4S20530   3.174   2.123   7.230  0.4326 -0.3489  0.1142
  180SOPE   C2520531   3.285   2.302   7.251 -0.1312 -0.2963  0.3791
  180SOPE   H5R20532   3.382   2.265   7.210 -0.0696 -0.9481  1.1081
  180SOPE   H5S20533   3.287   2.409   7.219  2.4497 -0.0509  1.1298
  180SOPE   C2620534   3.287   2.304   7.406  0.0529  0.6575  0.5626
  180SOPE   H6R20535   3.190   2.350   7.437  0.0266  0.9576  0.0420
  180SOPE   H6S20536   3.302   2.200   7.442 -0.7858  0.3619  0.0927
  180SOPE   C2720537   3.395   2.380   7.478 -0.6101  0.2575 -0.1770
  180SOPE   H7R20538   3.478   2.390   7.405 -0.0600 -0.3202  0.3629
  180SOPE   H7S20539   3.361   2.483   7.499 -1.9510 -0.1854 -0.0679
  180SOPE   C2820540   3.450   2.323   7.609  0.6202 -0.2941  0.0640
  180SOPE   H8R20541   3.469   2.214   7.605 -2.2229 -0.9532  1.5934
  180SOPE   H8S20542   3.553   2.362   7.624  0.6421  1.4799 -3.6114
  180SOPE   C2920543   3.349   2.321   7.725 -0.0512  0.1061  0.1136
  180SOPE   H9120544   3.257   2.269   7.696 -0.3788  1.4477 -1.4214
  180SOPE  C21020545   3.366   2.377   7.843 -0.2915  0.2506 -0.8060
  180SOPE  H10120546   3.283   2.384   7.914 -0.2201 -0.6100 -0.6194
  180SOPE  C21120547   3.487   2.449   7.896 -0.2722  0.0880 -0.8868
  180SOPE  H11R20548   3.477   2.559   7.883  0.3749  0.1568 -0.8426
  180SOPE  H11S20549   3.575   2.404   7.845  1.1903  1.1456  0.6129
  180SOPE  C21220550   3.531   2.446   8.042 -0.0981 -0.1304 -0.6244
  180SOPE  H12R20551   3.612   2.520   8.032  1.1249 -1.4924 -1.0806
  180SOPE  H12S20552   3.568   2.346   8.076 -0.6199 -0.4494 -0.9735
  180SOPE  C21320553   3.439   2.516   8.143 -0.2510  0.1072  0.4309
  180SOPE  H13R20554   3.365   2.446   8.188  0.0516  0.3134  1.2766
  180SOPE  H13S20555   3.387   2.605   8.100 -0.4641 -0.2353 -0.0282
  180SOPE  C21420556   3.519   2.568   8.262 -0.3110  0.1532 -0.0130
  180SOPE  H14R20557   3.594   2.640   8.223 -1.1861  0.3097 -1.5078
  180SOPE  H14S20558   3.566   2.482   8.315 -2.3336 -1.1854 -0.2452
  180SOPE  C21520559   3.436   2.647   8.375 -0.0353 -0.3349 -0.2889
  180SOPE  H15R20560   3.367   2.571   8.419 -0.9854 -0.0700 -1.2678
  180SOPE  H15S20561   3.374   2.731   8.337  2.4467  1.7288  0.0144
  180SOPE  C21620562   3.526   2.695   8.492  0.6968 -0.3468 -0.8653
  180SOPE  H16R20563   3.610   2.622   8.489  0.8230 -0.2633  0.4229
  180SOPE  H16S20564   3.483   2.682   8.593 -1.8512  0.9631 -1.6857
  180SOPE  C21720565   3.573   2.842   8.471 -0.8522 -0.3252  0.6905
  180SOPE  H17R20566   3.486   2.909   8.490 -1.4475 -0.5884 -0.9919
  180SOPE  H17S20567   3.611   2.852   8.367  1.2995  1.6516  1.5956
  180SOPE  C21820568   3.691   2.890   8.563  0.0253  0.0435  0.4520
  180SOPE  H18R20569   3.717   2.998   8.556 -3.3966  1.0709  1.6148
  180SOPE  H18S20570   3.776   2.822   8.541 -0.8979 -0.3888 -2.0371
  180SOPE  H18T20571   3.672   2.860   8.668  2.3360 -0.8036  0.6985
  180SOPE   C3320572   2.637   1.796   7.158  0.9098 -1.0178  0.3238
  180SOPE   H3X20573   2.590   1.697   7.172 -1.8010  0.1574  0.2710
  180SOPE   H3Y20574   2.602   1.853   7.247  0.4002 -0.0318 -0.4923
  180SOPE   C3420575   2.794   1.795   7.175  0.1214 -0.1066  0.9990
  180SOPE   H4X20576   2.839   1.880   7.119 -0.6951  1.4329  2.5951
  180SOPE   H4Y20577   2.842   1.708   7.125  0.3399  0.6545 -0.1747
  180SOPE   C3520578   2.862   1.821   7.310  0.1804  0.7248 -0.4112
  180SOPE   H5X20579   2.970   1.793   7.308  0.6564  2.4201 -0.1881
  180SOPE   H5Y20580   2.803   1.762   7.383  1.7809 -0.2547  0.1573
  180SOPE   C3620581   2.861   1.962   7.348 -0.6650 -0.3756 -0.0885
  180SOPE   H6X20582   2.779   2.024   7.306 -0.5098 -0.4357 -0.4937
  180SOPE   H6Y20583   2.949   2.018   7.309 -0.0713  0.8113  2.7650
  180SOPE   C3720584   2.857   1.976   7.502 -0.6170 -0.1044  0.1839
  180SOPE   H7X20585   2.765   1.925   7.537 -0.0693 -1.1489  0.1144
  180SOPE   H7Y20586   2.845   2.083   7.529 -0.3190  0.3363 -1.3148
  180SOPE   C3820587   2.980   1.913   7.568 -0.8909 -0.2986  0.1687
  180SOPE   H8X20588   3.070   1.977   7.553 -0.6961 -0.3568  0.9996
  180SOPE   H8Y20589   3.010   1.816   7.524 -0.8369  0.1149 -0.7246
  180SOPE   C3920590   2.958   1.885   7.718 -0.1659  0.3029 -0.3085
  180SOPE   H9X20591   2.987   1.785   7.756  1.7802  0.6183 -0.8509
  180SOPE   H9Y20592   2.849   1.900   7.730 -0.2687 -0.5381 -0.1933
  180SOPE  C31020593   3.027   1.981   7.818  0.5376  0.5406 -0.3828
  180SOPE  H10X20594   2.988   1.955   7.918 -0.6582  1.6074 -0.5377
  180SOPE  H10Y20595   2.992   2.083   7.789  0.1102  0.3894 -0.4002
  180SOPE  C31120596   3.178   1.972   7.839  0.4104 -0.6926 -0.2411
  180SOPE  H11X20597   3.218   2.006   7.741  1.3109 -0.1519  0.2948
  180SOPE  H11Y20598   3.213   1.871   7.867  0.3211 -0.8568 -0.7127
  180SOPE  C31220599   3.230   2.081   7.942  0.5405 -0.6086 -0.2161
  180SOPE  H12X20600   3.185   2.178   7.913 -0.4335 -0.6317  1.1239
  180SOPE  H12Y20601   3.339   2.079   7.919  1.2484  4.3283  1.5651
  180SOPE  C31320602   3.220   2.030   8.085  0.3002 -0.2280 -0.1767
  180SOPE  H13X20603   3.257   1.925   8.090 -1.3258 -0.8680 -0.7348
  180SOPE  H13Y20604   3.113   2.023   8.114  0.0215 -0.1364 -1.1273
  180SOPE  C31420605   3.281   2.134   8.176 -0.6074 -0.4362 -0.2735
  180SOPE  H14X20606   3.238   2.233   8.153  0.2037  0.2333  1.0149
  180SOPE  H14Y20607   3.390   2.144   8.153 -0.2456 -2.9873  0.0091
  180SOPE  C31520608   3.268   2.095   8.326 -0.0431 -0.7840 -0.2788
  180SOPE  H15X20609   3.304   1.990   8.333  0.1463 -0.9482 -2.8035
  180SOPE  H15Y20610   3.161   2.088   8.357  0.1624  0.1249  0.6887
  180SOPE  C31620611   3.341   2.183   8.423  0.2189  0.1305 -0.4277
  180SOPE  H16X20612   3.293   2.283   8.428  1.9304  0.9213  1.9059
  180SOPE  H16Y20613   3.443   2.208   8.387 -0.7036  1.6823 -2.1703
  180SOPE  C31720614   3.345   2.129   8.571 -0.3826 -0.7513  0.2038
  180SOPE  H17X20615   3.413   2.201   8.620 -0.5240 -0.1027 -0.5282
  180SOPE  H17Y20616   3.373   2.022   8.572  0.9445 -0.4882 -1.8176
  180SOPE  C31820617   3.206   2.135   8.638 -0.0378 -0.1691 -0.2913
  180SOPE  H18X20618   3.211   2.105   8.745 -1.3144 -0.2029 -0.2242
  180SOPE  H18Y20619   3.133   2.070   8.585 -0.4778 -0.3313  0.4853
  180SOPE  H18Z20620   3.159   2.235   8.644 -4.5326 -2.0716  1.1180
  181SOPE     N20621   1.657   5.696   6.114  0.6832 -0.1827  0.0625
  181SOPE   HN120622   1.637   5.797   6.103 -0.2315 -0.4822 -1.2974
  181SOPE   HN220623   1.752   5.678   6.152  0.9865 -3.0172 -1.7167
  181SOPE   HN320624   1.671   5.662   6.017  0.1857 -0.4867  0.0903
  181SOPE   C1220625   1.558   5.622   6.200  0.5668 -0.1196 -0.5170
  181SOPE  H12A20626   1.597   5.628   6.304  1.3433 -3.2308 -0.5395
  181SOPE  H12B20627   1.561   5.513   6.181  1.6054 -0.3767  0.9512
  181SOPE   C1120628   1.419   5.686   6.193 -0.3305  0.7174  0.1957
  181SOPE  H11A20629   1.359   5.651   6.280 -1.4128 -1.3491 -1.2995
  181SOPE  H11B20630   1.382   5.647   6.096  1.6974 -1.4980  0.2111
  181SOPE     P20631   1.318   5.921   6.242  0.3695  0.2381 -0.0077
  181SOPE   O1320632   1.186   5.852   6.235 -0.1789  0.4000  0.1547
  181SOPE   O1420633   1.324   6.040   6.157  0.2667  0.1980  0.6361
  181SOPE   O1220634   1.431   5.828   6.191  0.3762  0.4078  0.6416
  181SOPE   O1120635   1.366   5.938   6.395 -0.4997 -0.0740  0.1208
  181SOPE    C120636   1.508   5.959   6.424  0.6753 -0.0565 -0.3016
  181SOPE    HA20637   1.556   5.994   6.330 -1.2911  2.1568 -0.5893
  181SOPE    HB20638   1.541   5.860   6.464  0.0913 -1.5003 -3.1108
  181SOPE    C220639   1.534   6.067   6.528 -0.7845 -0.1542  0.2516
  181SOPE    HS20640   1.643   6.078   6.546 -1.0952  4.1540  0.6426
  181SOPE   O2120641   1.462   6.048   6.651  0.2211 -0.0703  0.1779
  181SOPE   C2120642   1.512   5.957   6.731  0.0398  0.8939  0.5363
  181SOPE   O2220643   1.614   5.891   6.710  0.4443 -0.2399 -0.4619
  181SOPE   C2220644   1.424   5.940   6.855  0.0341 -0.0675 -1.4608
  181SOPE   H2R20645   1.428   5.840   6.902  1.4699  1.1720  1.3351
  181SOPE   H2S20646   1.321   5.973   6.831 -0.8507 -1.0155  0.7035
  181SOPE    C320647   1.488   6.205   6.469  0.7505 -0.0996  0.3989
  181SOPE    HX20648   1.391   6.201   6.415  0.4551  2.5663  0.5859
  181SOPE    HY20649   1.555   6.239   6.387  1.6507 -2.0102  0.2869
  181SOPE   O3120650   1.481   6.313   6.566 -0.2319 -0.3674 -0.0455
  181SOPE   C3120651   1.362   6.357   6.613  0.0556  0.9024 -0.4357
  181SOPE   O3220652   1.250   6.322   6.575 -0.5328  0.1345 -0.1391
  181SOPE   C3220653   1.383   6.460   6.714  0.1919 -0.4384 -0.3983
  181SOPE   H2X20654   1.335   6.556   6.686 -1.5809 -1.0676  0.3207
  181SOPE   H2Y20655   1.493   6.480   6.713  0.0918  0.1405 -1.4730
  181SOPE   C2320656   1.490   6.022   6.972  0.4761  0.0549 -0.6285
  181SOPE   H3R20657   1.462   6.126   6.945 -0.0005 -0.5434 -2.6149
  181SOPE   H3S20658   1.601   6.017   6.972  0.4207 -2.3448 -1.6329
  181SOPE   C2420659   1.427   5.986   7.110 -0.0654 -0.3435 -0.7579
  181SOPE   H4R20660   1.342   6.051   7.137 -1.0183 -2.2665  1.1792
  181SOPE   H4S20661   1.393   5.880   7.108 -0.8881 -0.0884 -2.7010
  181SOPE   C2520662   1.522   5.990   7.233 -0.3804 -0.1212 -0.0485
  181SOPE   H5R20663   1.614   5.930   7.218  0.6483  1.4713 -0.2753
  181SOPE   H5S20664   1.568   6.091   7.240 -1.8110  0.7284 -1.8562
  181SOPE   C2620665   1.442   5.946   7.359 -0.4654  0.4336 -0.3633
  181SOPE   H6R20666   1.357   6.017   7.363 -2.1627 -1.4132 -1.5921
  181SOPE   H6S20667   1.391   5.847   7.349 -2.0901  1.1592  0.3770
  181SOPE   C2720668   1.518   5.945   7.496 -0.1676 -0.1443  0.4310
  181SOPE   H7R20669   1.607   5.880   7.485 -0.8814 -1.5104  2.1868
  181SOPE   H7S20670   1.558   6.046   7.517 -0.2473 -0.0888  0.3214
  181SOPE   C2820671   1.436   5.889   7.616  0.0518 -0.0286 -0.3148
  181SOPE   H8R20672   1.350   5.959   7.629 -0.4709 -0.4301 -1.4256
  181SOPE   H8S20673   1.386   5.794   7.589 -1.1952  1.1670 -2.6036
  181SOPE   C2920674   1.518   5.872   7.740 -0.6949  0.7012  0.2942
  181SOPE   H9120675   1.567   5.775   7.754  0.8083  1.6396  2.1559
  181SOPE  C21020676   1.525   5.960   7.845 -0.7849 -0.0400 -0.8752
  181SOPE  H10120677   1.593   5.939   7.929 -2.5043  0.8643  0.8043
  181SOPE  C21120678   1.448   6.085   7.866 -0.1593  0.4344  0.1143
  181SOPE  H11R20679   1.410   6.094   7.970  0.6108  0.9446  0.3648
  181SOPE  H11S20680   1.364   6.095   7.794 -0.1285  0.9914  0.1493
  181SOPE  C21220681   1.535   6.205   7.841 -0.1665  0.4298 -0.4574
  181SOPE  H12R20682   1.586   6.195   7.742 -2.3413  0.6841 -1.6752
  181SOPE  H12S20683   1.618   6.203   7.915  1.0950 -0.9691 -1.8143
  181SOPE  C21320684   1.461   6.339   7.852  1.0816 -0.3660 -0.2924
  181SOPE  H13R20685   1.380   6.347   7.776 -0.8073  0.7211  1.6972
  181SOPE  H13S20686   1.529   6.420   7.819  2.0061 -0.6639  0.8093
  181SOPE  C21420687   1.387   6.353   7.991  0.2448  0.7156 -0.8470
  181SOPE  H14R20688   1.452   6.337   8.080 -0.2252 -0.4252 -0.7010
  181SOPE  H14S20689   1.318   6.266   7.982  0.3535  0.1879  2.2970
  181SOPE  C21520690   1.320   6.493   8.008  0.2142 -0.1921 -0.0075
  181SOPE  H15R20691   1.230   6.486   8.073 -0.6702 -1.7068 -1.3299
  181SOPE  H15S20692   1.294   6.527   7.905  1.3557  0.3188 -0.1435
  181SOPE  C21620693   1.426   6.587   8.064 -0.2541 -0.6609  0.9793
  181SOPE  H16R20694   1.516   6.579   7.998  0.0481  1.8805  0.9723
  181SOPE  H16S20695   1.456   6.563   8.168  1.7503  1.1616  0.9071
  181SOPE  C21720696   1.382   6.736   8.059 -0.4145  0.7049  0.2006
  181SOPE  H17R20697   1.282   6.748   8.013 -0.0143 -2.1276 -1.6953
  181SOPE  H17S20698   1.459   6.779   7.992 -0.3746  1.1223  0.5114
  181SOPE  C21820699   1.384   6.794   8.200 -0.7441 -0.1516 -1.2418
  181SOPE  H18R20700   1.487   6.800   8.242 -1.6923  2.7547  1.0228
  181SOPE  H18S20701   1.306   6.752   8.266 -0.2308  1.3222  0.3795
  181SOPE  H18T20702   1.366   6.904   8.199 -0.1098  0.1163  2.6539
  181SOPE   C3320703   1.343   6.403   6.853 -0.2736 -0.2773 -0.3174
  181SOPE   H3X20704   1.412   6.318   6.874  0.3465  0.2332 -0.2328
  181SOPE   H3Y20705   1.247   6.350   6.841 -0.4977  0.4156 -1.8395
  181SOPE   C3420706   1.363   6.491   6.979 -0.1577  0.0646 -0.1426
  181SOPE   H4X20707   1.288   6.573   6.982  0.6478  0.8127 -0.0646
  181SOPE   H4Y20708   1.455   6.545   6.950  0.4302 -1.1191 -0.5556
  181SOPE   C3520709   1.359   6.419   7.116 -0.8295  0.3770  0.1087
  181SOPE   H5X20710   1.433   6.338   7.137 -1.6461  0.2657  3.1093
  181SOPE   H5Y20711   1.264   6.361   7.122 -0.4033 -0.2261  1.6409
  181SOPE   C3620712   1.349   6.512   7.237  0.0149 -0.4787 -0.1832
  181SOPE   H6X20713   1.261   6.579   7.225 -0.3055 -0.1642  3.0228
  181SOPE   H6Y20714   1.437   6.579   7.229  0.7597 -1.2781  0.9691
  181SOPE   C3720715   1.332   6.433   7.366 -0.1451  0.7745  0.3444
  181SOPE   H7X20716   1.350   6.506   7.448 -1.9567  1.5932  0.0613
  181SOPE   H7Y20717   1.404   6.351   7.385 -0.2526  0.8738  1.2537
  181SOPE   C3820718   1.199   6.373   7.386  0.7409 -0.5880 -0.6002
  181SOPE   H8X20719   1.182   6.291   7.313 -1.5164  0.8579 -1.8231
  181SOPE   H8Y20720   1.122   6.452   7.376  1.7532  0.4277 -0.5110
  181SOPE   C3920721   1.195   6.309   7.522 -1.1672  0.4971 -0.7316
  181SOPE   H9X20722   1.197   6.401   7.584 -0.1333 -0.1638  0.2530
  181SOPE   H9Y20723   1.281   6.239   7.530 -0.6786  1.0490 -1.0300
  181SOPE  C31020724   1.073   6.232   7.544  0.3278  0.2027  0.0151
  181SOPE  H10X20725   1.078   6.139   7.483 -0.3146 -1.0832  1.8254
  181SOPE  H10Y20726   0.979   6.286   7.520  0.6901  1.2871  0.9672
  181SOPE  C31120727   1.052   6.193   7.695  0.5345  0.0788 -0.0232
  181SOPE  H11X20728   1.137   6.128   7.723  0.5522  0.4683  0.8626
  181SOPE  H11Y20729   0.963   6.127   7.699  1.3144 -0.9370  1.7452
  181SOPE  C31220730   1.039   6.305   7.792  0.0854 -0.6598 -0.6693
  181SOPE  H12X20731   1.129   6.368   7.776  0.8579 -1.5987 -0.1131
  181SOPE  H12Y20732   1.044   6.276   7.899 -0.6695 -1.2783 -0.7930
  181SOPE  C31320733   0.922   6.400   7.762  0.6292  0.0275 -0.0065
  181SOPE  H13X20734   0.834   6.341   7.793  0.3783 -0.9034 -2.2550
  181SOPE  H13Y20735   0.918   6.437   7.657 -2.1585 -2.3311 -0.8441
  181SOPE  C31420736   0.926   6.523   7.851 -0.1438 -0.1180  0.2609
  181SOPE  H14X20737   0.855   6.600   7.815  0.3261 -0.3762 -1.2773
  181SOPE  H14Y20738   1.028   6.567   7.845 -1.1859  2.3938 -0.6862
  181SOPE  C31520739   0.913   6.512   8.000 -0.0555 -0.4417 -0.4500
  181SOPE  H15X20740   0.968   6.426   8.044 -0.1133 -0.5120 -0.5146
  181SOPE  H15Y20741   0.805   6.497   8.022 -0.1588  0.8372  0.0161
  181SOPE  C31620742   0.946   6.650   8.063 -0.0151 -0.2270  0.6796
  181SOPE  H16X20743   0.879   6.729   8.023 -0.8807  0.0899  2.6105
  181SOPE  H16Y20744   1.046   6.681   8.025  0.0202 -0.5530  0.5033
  181SOPE  C31720745   0.942   6.634   8.215 -0.8320 -0.5952 -0.0569
  181SOPE  H17X20746   1.007   6.552   8.252  1.3255  1.3517  0.7202
  181SOPE  H17Y20747   0.838   6.609   8.244 -2.1243  1.9610 -2.0485
  181SOPE  C31820748   0.980   6.765   8.295 -0.5842  0.6873 -0.3359
  181SOPE  H18X20749   1.082   6.805   8.274 -0.3189  0.6093  0.7337
  181SOPE  H18Y20750   0.965   6.741   8.403  0.7043  0.9900 -0.0717
  181SOPE  H18Z20751   0.906   6.846   8.280 -1.8288 -0.1509  1.0597
  182SOPE     N20752   3.389   2.942   6.363  0.3362  0.2128  0.2314
  182SOPE   HN120753   3.363   2.977   6.458  0.1097 -0.9613  0.6265
  182SOPE   HN220754   3.493   2.946   6.367  0.6520 -1.6949 -2.7744
  182SOPE   HN320755   3.353   3.014   6.297 -1.9848 -1.3134 -0.2993
  182SOPE   C1220756   3.345   2.804   6.317  0.3339 -0.1826 -0.2331
  182SOPE  H12A20757   3.392   2.801   6.216  0.6587  1.3740 -0.1486
  182SOPE  H12B20758   3.234   2.801   6.317  0.2672  1.3928 -0.7181
  182SOPE   C1120759   3.394   2.702   6.429 -0.0394  0.5060  0.4490
  182SOPE  H11A20760   3.330   2.726   6.517 -2.4929 -0.9831 -0.8134
  182SOPE  H11B20761   3.500   2.729   6.447 -0.0846  1.7407 -0.9857
  182SOPE     P20762   3.515   2.471   6.406 -0.6623  0.0880  0.1447
  182SOPE   O1320763   3.614   2.532   6.310  0.2910  0.5464 -0.0224
  182SOPE   O1420764   3.494   2.324   6.395  0.8767 -0.4463  0.0162
  182SOPE   O1220765   3.386   2.558   6.384 -0.0418 -0.0885 -0.8035
  182SOPE   O1120766   3.557   2.508   6.555 -0.4595  0.3406 -0.0071
  182SOPE    C120767   3.465   2.478   6.667 -0.4609 -0.1502 -0.2537
  182SOPE    HA20768   3.519   2.409   6.736  1.6150  1.4521 -0.1522
  182SOPE    HB20769   3.373   2.425   6.635 -1.2511  0.9497  0.1208
  182SOPE    C220770   3.425   2.590   6.765  0.7599 -0.0011 -0.5736
  182SOPE    HS20771   3.367   2.656   6.698  0.3988  0.7655  0.4604
  182SOPE   O2120772   3.538   2.651   6.834  0.1241  0.5530  0.6380
  182SOPE   C2120773   3.546   2.777   6.826  0.2273  0.2951  1.1165
  182SOPE   O2220774   3.460   2.853   6.779 -0.6794 -0.3523  0.0269
  182SOPE   C2220775   3.671   2.827   6.893  0.0254 -0.8368 -1.0389
  182SOPE   H2R20776   3.726   2.880   6.813  4.7080 -1.0197  1.6735
  182SOPE   H2S20777   3.738   2.742   6.917  0.6160 -0.2471 -0.5279
  182SOPE    C320778   3.333   2.526   6.877 -0.6908  0.3835  0.1055
  182SOPE    HX20779   3.386   2.450   6.939  1.1212  1.1896 -0.3675
  182SOPE    HY20780   3.251   2.479   6.819  1.0361 -3.4017  0.4305
  182SOPE   O3120781   3.298   2.621   6.983  0.4275  0.3313 -0.2940
  182SOPE   C3120782   3.166   2.647   6.988 -0.0316  0.1073  0.1688
  182SOPE   O3220783   3.076   2.593   6.920  0.1075  0.2592  0.1161
  182SOPE   C3220784   3.146   2.776   7.075  0.3836  0.1129  0.0274
  182SOPE   H2X20785   3.049   2.824   7.052 -0.0613  0.0410  1.6237
  182SOPE   H2Y20786   3.217   2.847   7.027  1.1798  0.8266  2.1282
  182SOPE   C2320787   3.648   2.922   7.019 -0.7304 -0.2336 -0.1018
  182SOPE   H3R20788   3.565   2.992   6.992  0.2165  0.7914 -0.4282
  182SOPE   H3S20789   3.742   2.970   7.052 -1.5012 -0.7000  3.1087
  182SOPE   C2420790   3.612   2.825   7.137  0.2139 -0.6176 -0.1016
  182SOPE   H4R20791   3.526   2.760   7.112 -0.9032 -0.5595  3.0532
  182SOPE   H4S20792   3.696   2.755   7.152  1.0823  0.6385  1.1583
  182SOPE   C2520793   3.577   2.898   7.271 -0.3799  0.6366  0.5400
  182SOPE   H5R20794   3.637   2.990   7.285  0.1531  0.1699  1.3756
  182SOPE   H5S20795   3.477   2.943   7.255 -0.3033 -0.0400 -2.2623
  182SOPE   C2620796   3.566   2.807   7.396  0.1816 -0.6040 -0.2692
  182SOPE   H6R20797   3.495   2.726   7.368 -2.5450  1.7223 -0.4958
  182SOPE   H6S20798   3.667   2.764   7.412  2.0497  3.2572 -0.6297
  182SOPE   C2720799   3.510   2.875   7.526  0.1153  0.1222  0.4811
  182SOPE   H7R20800   3.429   2.948   7.504  0.4354  0.3826  0.1372
  182SOPE   H7S20801   3.470   2.796   7.593 -0.2074  0.6422  0.9059
  182SOPE   C2820802   3.623   2.953   7.598 -0.0251  0.1341 -0.0339
  182SOPE   H8R20803   3.672   3.017   7.522 -1.0716  2.7528  1.3706
  182SOPE   H8S20804   3.590   3.017   7.683 -0.2068  0.1115 -0.0852
  182SOPE   C2920805   3.728   2.855   7.650  0.2023  0.0061 -0.3016
  182SOPE   H9120806   3.809   2.833   7.580  0.2740  1.8557 -0.8540
  182SOPE  C21020807   3.728   2.796   7.768  0.3351 -0.7009 -0.3030
  182SOPE  H10120808   3.813   2.732   7.796  0.2233 -1.5905 -1.8296
  182SOPE  C21120809   3.619   2.831   7.874  0.0864  0.0724 -0.1702
  182SOPE  H11R20810   3.565   2.743   7.914 -0.0484 -0.1864 -0.9079
  182SOPE  H11S20811   3.539   2.897   7.834  0.1398 -0.8910 -1.9534
  182SOPE  C21220812   3.683   2.915   7.980 -0.4506 -0.3466  0.7660
  182SOPE  H12R20813   3.752   2.993   7.942  2.4751 -2.9372  0.3255
  182SOPE  H12S20814   3.743   2.853   8.051  1.0994 -0.1438 -0.3129
  182SOPE  C21320815   3.584   2.980   8.069  0.7999  0.1939 -0.5765
  182SOPE  H13R20816   3.534   2.920   8.148  2.7852  2.7202  2.8748
  182SOPE  H13S20817   3.508   3.024   8.001 -1.1679 -0.5029  1.0621
  182SOPE  C21420818   3.637   3.100   8.144  0.5129 -0.7471  0.2108
  182SOPE  H14R20819   3.704   3.166   8.085 -1.7067 -0.8647 -2.6863
  182SOPE  H14S20820   3.707   3.067   8.223  1.1033 -1.0236 -0.4162
  182SOPE  C21520821   3.533   3.186   8.209  0.3088  0.0514 -0.3306
  182SOPE  H15R20822   3.473   3.140   8.290  1.1831 -2.1885 -0.8988
  182SOPE  H15S20823   3.463   3.215   8.127 -0.6369 -4.0096 -1.1514
  182SOPE  C21620824   3.594   3.311   8.268 -0.6758  0.0893 -0.6711
  182SOPE  H16R20825   3.645   3.365   8.186  3.4874 -1.4699  0.6245
  182SOPE  H16S20826   3.668   3.300   8.350 -0.5155  1.3447 -0.6253
  182SOPE  C21720827   3.484   3.399   8.312  0.4412 -0.6664  0.3992
  182SOPE  H17R20828   3.412   3.351   8.382 -0.5281  0.1584 -0.0101
  182SOPE  H17S20829   3.421   3.427   8.225  0.5310 -1.4740  0.0721
  182SOPE  C21820830   3.533   3.527   8.388  0.7881 -0.5337 -0.3909
  182SOPE  H18R20831   3.591   3.588   8.316  0.3752 -0.2597 -0.4942
  182SOPE  H18S20832   3.595   3.493   8.473  0.5499 -0.1400 -0.0598
  182SOPE  H18T20833   3.442   3.579   8.424  1.2328  1.1775 -1.6226
  182SOPE   C3320834   3.168   2.753   7.223  0.7569  0.0028 -0.7677
  182SOPE   H3X20835   3.177   2.852   7.273  0.2094  0.1574 -0.9742
  182SOPE   H3Y20836   3.273   2.720   7.237  1.4111  2.0337 -0.5058
  182SOPE   C3420837   3.062   2.669   7.294 -0.0113  0.0508 -0.4341
  182SOPE   H4X20838   3.050   2.576   7.235  0.5537 -0.8848  0.8777
  182SOPE   H4Y20839   2.964   2.722   7.288  0.5116  1.8425  3.6324
  182SOPE   C3520840   3.098   2.633   7.435 -0.0080 -0.7171  1.0948
  182SOPE   H5X20841   3.186   2.565   7.430 -0.0233 -0.8140  2.0519
  182SOPE   H5Y20842   3.017   2.570   7.478 -0.4158 -1.2548 -0.3991
  182SOPE   C3620843   3.119   2.756   7.523 -0.2354  0.2312  0.2910
  182SOPE   H6X20844   3.031   2.823   7.510  0.2029  0.5187 -1.3979
  182SOPE   H6Y20845   3.208   2.811   7.486 -0.7872  0.5159 -0.6519
  182SOPE   C3720846   3.122   2.717   7.676 -0.4451  0.6485  0.1604
  182SOPE   H7X20847   3.184   2.624   7.685  0.9612  1.6348  1.1605
  182SOPE   H7Y20848   3.019   2.690   7.705 -0.1255  1.2969  2.0060
  182SOPE   C3820849   3.199   2.818   7.773 -0.1481  0.3949  1.2698
  182SOPE   H8X20850   3.137   2.909   7.761 -2.1412 -1.2460 -4.2440
  182SOPE   H8Y20851   3.302   2.843   7.740  0.1165 -0.4795  1.3907
  182SOPE   C3920852   3.193   2.754   7.906 -0.1575 -0.2160 -0.2645
  182SOPE   H9X20853   3.261   2.667   7.910 -1.8131 -1.5542 -0.0009
  182SOPE   H9Y20854   3.090   2.719   7.931 -0.2057  1.2861  1.9036
  182SOPE  C31020855   3.232   2.850   8.022 -0.0710 -0.1909  0.2957
  182SOPE  H10X20856   3.336   2.884   7.999  0.2188 -0.0187  1.7604
  182SOPE  H10Y20857   3.260   2.792   8.113  3.6904 -1.1069 -1.2393
  182SOPE  C31120858   3.140   2.966   8.057  0.3115 -0.3179 -0.1900
  182SOPE  H11X20859   3.045   2.919   8.088  0.9963 -1.0440  0.9220
  182SOPE  H11Y20860   3.119   3.033   7.972  0.9292  0.5615  0.3345
  182SOPE  C31220861   3.189   3.049   8.182  0.0387 -0.0083  0.2055
  182SOPE  H12X20862   3.283   3.104   8.164 -0.5857  1.3308  0.9017
  182SOPE  H12Y20863   3.206   2.978   8.266  0.7310  0.0362  0.1097
  182SOPE  C31320864   3.081   3.148   8.220 -0.8277 -0.3487  0.8910
  182SOPE  H13X20865   2.978   3.108   8.237 -0.7105 -1.1799 -0.1944
  182SOPE  H13Y20866   3.067   3.208   8.127  0.7948 -1.0321  0.1692
  182SOPE  C31420867   3.120   3.249   8.329 -0.3955 -0.2095 -0.0885
  182SOPE  H14X20868   3.209   3.300   8.287 -1.4924  1.7147 -0.1691
  182SOPE  H14Y20869   3.160   3.193   8.417  0.7594  1.7761  0.7151
  182SOPE  C31520870   3.018   3.360   8.369 -0.4614 -0.1976 -0.1066
  182SOPE  H15X20871   2.947   3.317   8.443  1.6276 -2.4709  0.7385
  182SOPE  H15Y20872   2.963   3.391   8.278  2.2815 -1.3495 -2.3120
  182SOPE  C31620873   3.078   3.485   8.437 -0.0612  0.4166  0.6880
  182SOPE  H16X20874   3.151   3.526   8.364 -0.3133 -1.6461 -0.8166
  182SOPE  H16Y20875   3.126   3.471   8.536 -2.0268 -0.7701  1.5460
  182SOPE  C31720876   2.977   3.603   8.456 -0.4501 -0.5077  0.3984
  182SOPE  H17X20877   2.878   3.576   8.498 -1.2143 -1.2151 -1.7424
  182SOPE  H17Y20878   2.938   3.646   8.362  0.6594 -0.1392  0.0905
  182SOPE  C31820879   3.035   3.719   8.535  0.4873  0.0599 -0.3285
  182SOPE  H18X20880   3.057   3.671   8.632 -0.2887  1.1479  0.4094
  182SOPE  H18Y20881   2.959   3.797   8.560 -0.9335 -0.6842 -2.0818
  182SOPE  H18Z20882   3.130   3.766   8.503 -0.2674  0.9017 -1.4032
  183SOPE     N20883   5.457   6.254   6.151  0.3935  0.4788  0.3792
  183SOPE   HN120884   5.453   6.287   6.052  0.4454 -0.0164  0.2095
  183SOPE   HN220885   5.550   6.286   6.186  0.2097  1.7322 -0.1990
  183SOPE   HN320886   5.440   6.152   6.152  1.5218  0.2797  0.9021
  183SOPE   C1220887   5.345   6.317   6.222  0.0471  0.2640  0.4801
  183SOPE  H12A20888   5.256   6.291   6.161  0.1667 -1.0984  0.8535
  183SOPE  H12B20889   5.360   6.427   6.216  0.3881  0.3308  2.0932
  183SOPE   C1120890   5.338   6.270   6.372  0.2889 -0.7511  0.3261
  183SOPE  H11A20891   5.258   6.331   6.421 -1.9654 -1.2466 -2.4496
  183SOPE  H11B20892   5.432   6.291   6.427  0.3240 -1.7108  0.6636
  183SOPE     P20893   5.175   6.055   6.371 -0.3979 -0.1119 -0.0847
  183SOPE   O1320894   5.198   5.922   6.424  0.5217  0.2095  0.1244
  183SOPE   O1420895   5.117   6.062   6.238  0.1748  0.1163 -0.0753
  183SOPE   O1220896   5.314   6.129   6.381  0.3495 -0.1360 -0.9139
  183SOPE   O1120897   5.091   6.137   6.476  0.0550 -0.0153  0.6808
  183SOPE    C120898   5.136   6.173   6.610 -0.3063  0.3354 -0.1659
  183SOPE    HA20899   5.053   6.232   6.656 -0.7649 -1.6021  1.6561
  183SOPE    HB20900   5.227   6.235   6.619  0.4189 -0.9601  2.5491
  183SOPE    C220901   5.167   6.053   6.712 -1.0919  1.2119 -0.8001
  183SOPE    HS20902   5.259   5.997   6.682 -2.3497 -0.7249 -1.2420
  183SOPE   O2120903   5.052   5.965   6.715  0.6101 -0.7351 -0.6134
  183SOPE   C2120904   5.071   5.851   6.773  0.0631 -0.5211  0.1248
  183SOPE   O2220905   5.180   5.792   6.769  0.3202  0.0689 -1.1738
  183SOPE   C2220906   4.940   5.815   6.845  0.1790 -0.3205  0.1835
  183SOPE   H2R20907   4.870   5.787   6.763  1.4212  0.1182 -1.0423
  183SOPE   H2S20908   4.888   5.903   6.889  0.5533  0.0114 -0.0365
  183SOPE    C320909   5.190   6.112   6.862  0.2783  0.5942  0.1325
  183SOPE    HX20910   5.087   6.143   6.891  0.9442  0.4999  2.8473
  183SOPE    HY20911   5.264   6.194   6.849  1.7828 -0.8197 -0.6532
  183SOPE   O3120912   5.221   6.021   6.969 -0.4108 -0.5610  0.5004
  183SOPE   C3120913   5.355   5.986   6.969 -0.4916  0.0787  0.6165
  183SOPE   O3220914   5.430   5.987   6.870  0.2791 -0.4139 -0.0189
  183SOPE   C3220915   5.398   5.930   7.104  0.1649 -0.5940  0.2301
  183SOPE   H2X20916   5.509   5.932   7.109  0.1651  0.7791  0.0653
  183SOPE   H2Y20917   5.372   5.822   7.104  0.5315 -0.6859  0.5809
  183SOPE   C2320918   4.954   5.703   6.958 -0.3401 -0.1988  0.3746
  183SOPE   H3R20919   5.032   5.628   6.935  1.6881  1.2970  1.9585
  183SOPE   H3S20920   4.859   5.646   6.969  0.1394 -1.0088  0.3925
  183SOPE   C2420921   4.979   5.777   7.089  0.6243  0.0810  0.1163
  183SOPE   H4R20922   5.081   5.819   7.072  0.9356  0.6495  2.9842
  183SOPE   H4S20923   4.925   5.873   7.105 -0.7395 -0.4811 -0.9759
  183SOPE   C2520924   4.983   5.681   7.205  0.2175 -0.5519 -0.1282
  183SOPE   H5R20925   4.883   5.634   7.192  0.2204 -0.4513 -0.5213
  183SOPE   H5S20926   5.070   5.617   7.183  1.2922  0.6003  0.6235
  183SOPE   C2620927   4.992   5.741   7.339  0.9335 -0.6563 -0.2291
  183SOPE   H6R20928   5.099   5.774   7.344  0.7087  0.2516 -1.0146
  183SOPE   H6S20929   4.931   5.833   7.351  2.3847  0.1873  1.2910
  183SOPE   C2720930   4.953   5.633   7.448  0.5722 -0.3411  0.0995
  183SOPE   H7R20931   4.844   5.614   7.442  0.4301  0.1038  1.0698
  183SOPE   H7S20932   5.003   5.539   7.418 -2.1674 -0.7173 -4.2844
  183SOPE   C2820933   4.996   5.668   7.595 -0.3735  0.2799  0.0453
  183SOPE   H8R20934   4.995   5.578   7.661  0.1806 -0.5523 -1.0556
  183SOPE   H8S20935   5.098   5.710   7.589 -0.6900  0.8957 -1.5136
  183SOPE   C2920936   4.909   5.766   7.666 -0.2269 -0.2872 -0.9844
  183SOPE   H9120937   4.818   5.788   7.608 -1.5564 -0.6776  0.8702
  183SOPE  C21020938   4.919   5.813   7.795 -0.4915  0.3569  0.2686
  183SOPE  H10120939   4.839   5.877   7.833 -0.4358  0.8545 -0.4190
  183SOPE  C21120940   5.021   5.765   7.892 -0.0533  0.3939 -0.2201
  183SOPE  H11R20941   5.095   5.847   7.899 -0.0291  0.3540 -0.0036
  183SOPE  H11S20942   5.079   5.674   7.865 -1.6678 -1.4641  2.1772
  183SOPE  C21220943   4.972   5.737   8.042  0.3373 -0.7347  0.6877
  183SOPE  H12R20944   4.899   5.653   8.037  0.5303 -0.8406 -1.4585
  183SOPE  H12S20945   4.909   5.821   8.080  0.2462 -1.4769  2.2616
  183SOPE  C21320946   5.093   5.708   8.133  0.0672  0.2639 -0.1529
  183SOPE  H13R20947   5.165   5.793   8.135 -1.2170  1.3586  1.0243
  183SOPE  H13S20948   5.154   5.627   8.086  1.7457  0.9134  0.8432
  183SOPE  C21420949   5.061   5.676   8.273 -0.0941 -0.3297 -0.0056
  183SOPE  H14R20950   4.990   5.590   8.275 -0.8539  0.2562 -0.7279
  183SOPE  H14S20951   5.012   5.768   8.312  0.2367 -1.1248  2.4516
  183SOPE  C21520952   5.187   5.642   8.353  0.7775  0.1316  0.0048
  183SOPE  H15R20953   5.257   5.726   8.328 -1.2254  1.2074 -2.4292
  183SOPE  H15S20954   5.234   5.548   8.316  1.4747  0.6440 -0.4507
  183SOPE  C21620955   5.160   5.627   8.502  0.0152 -0.3799 -0.3947
  183SOPE  H16R20956   5.103   5.535   8.526 -1.1038  0.5460  0.6222
  183SOPE  H16S20957   5.105   5.713   8.548 -1.9233 -1.2377 -0.9833
  183SOPE  C21720958   5.299   5.622   8.577 -0.2943 -0.0315  0.0513
  183SOPE  H17R20959   5.279   5.629   8.686  1.8158 -3.0686  0.7558
  183SOPE  H17S20960   5.358   5.709   8.542 -2.9619  1.2244 -1.6771
  183SOPE  C21820961   5.381   5.495   8.567 -0.3211  0.6417 -0.3076
  183SOPE  H18R20962   5.412   5.465   8.465 -2.0020  0.7017 -0.8646
  183SOPE  H18S20963   5.314   5.413   8.600 -1.1035  1.6296  0.6198
  183SOPE  H18T20964   5.470   5.500   8.633 -0.8295  0.2394  0.4320
  183SOPE   C3320965   5.333   6.006   7.215 -0.1751 -0.9772 -0.6053
  183SOPE   H3X20966   5.223   6.015   7.203  0.0704  3.5829 -1.0853
  183SOPE   H3Y20967   5.373   6.109   7.208  2.0014 -1.7721 -0.5841
  183SOPE   C3420968   5.368   5.942   7.352 -0.4047  0.3871 -0.3338
  183SOPE   H4X20969   5.476   5.918   7.358 -0.5025  0.0179  0.0069
  183SOPE   H4Y20970   5.316   5.844   7.365 -1.2494  0.9637  0.8848
  183SOPE   C3520971   5.332   6.029   7.475  0.4088 -0.3208  0.9384
  183SOPE   H5X20972   5.221   6.031   7.467  0.3091 -1.9294  1.4923
  183SOPE   H5Y20973   5.377   6.130   7.474 -0.5404  0.1071  0.5206
  183SOPE   C3620974   5.379   5.964   7.607  0.4448  0.0138 -0.1897
  183SOPE   H6X20975   5.489   5.948   7.610  0.4930  0.3864  0.1277
  183SOPE   H6Y20976   5.332   5.864   7.606 -0.9989  0.6631  0.8060
  183SOPE   C3720977   5.332   6.042   7.724 -0.8652  0.1097  0.2656
  183SOPE   H7X20978   5.222   6.051   7.733 -0.8515  0.6789 -0.0606
  183SOPE   H7Y20979   5.383   6.141   7.718  3.2559 -1.8597 -0.2810
  183SOPE   C3820980   5.380   5.971   7.854  0.6847  0.5389 -0.8393
  183SOPE   H8X20981   5.490   5.959   7.844  0.8758  2.7757 -2.4106
  183SOPE   H8Y20982   5.333   5.873   7.875 -0.4178  1.7621  3.5360
  183SOPE   C3920983   5.352   6.071   7.966 -0.2941  0.0403 -0.2893
  183SOPE   H9X20984   5.244   6.094   7.967 -0.0300  1.4018  0.2946
  183SOPE   H9Y20985   5.409   6.165   7.948  0.7555 -0.4129  0.5482
  183SOPE  C31020986   5.417   6.010   8.097  0.8396  0.3666 -0.4010
  183SOPE  H10X20987   5.523   6.043   8.104  1.2049 -0.6384 -1.0908
  183SOPE  H10Y20988   5.412   5.900   8.085 -0.0126  0.1473  1.5427
  183SOPE  C31120989   5.337   6.022   8.224  0.3639 -0.1777  0.0046
  183SOPE  H11X20990   5.239   5.974   8.208 -0.1025  0.8113 -0.1741
  183SOPE  H11Y20991   5.322   6.131   8.239 -3.7276 -0.7494  1.0282
  183SOPE  C31220992   5.408   5.983   8.350 -0.4249 -0.0182 -0.1437
  183SOPE  H12X20993   5.518   6.000   8.344 -0.2776 -1.3695 -2.1998
  183SOPE  H12Y20994   5.398   5.875   8.376 -0.0303 -0.5352 -1.9568
  183SOPE  C31320995   5.359   6.047   8.475 -0.0128  0.1583  0.4545
  183SOPE  H13X20996   5.252   6.018   8.486 -0.4087  1.4865  0.3200
  183SOPE  H13Y20997   5.365   6.158   8.465 -2.2697  0.3031  0.0967
  183SOPE  C31420998   5.446   6.007   8.596 -0.1158  0.3471 -0.4991
  183SOPE  H14X20999   5.552   6.016   8.565 -0.0523 -0.7514 -0.6551
  183SOPE  H14Y21000   5.428   5.898   8.607  0.4725  0.2729 -0.2490
  183SOPE  C31521001   5.418   6.084   8.724 -0.4293  0.0157  0.2331
  183SOPE  H15X21002   5.474   6.179   8.708 -1.4861  0.5286 -0.5512
  183SOPE  H15Y21003   5.477   6.034   8.804 -0.3331 -0.0636  0.1145
  183SOPE  C31621004   5.267   6.106   8.748  0.9531 -0.0363 -0.0330
  183SOPE  H16X21005   5.223   6.177   8.675 -1.6386  0.9552  2.2915
  183SOPE  H16Y21006   5.252   6.168   8.839 -3.0410 -1.1827  0.3111
  183SOPE  C31721007   5.190   5.972   8.757 -0.2801  0.5797 -0.3033
  183SOPE  H17X21008   5.208   5.914   8.664  0.6176 -1.0134  0.8153
  183SOPE  H17Y21009   5.082   5.995   8.767 -0.3211 -0.4083  2.0309
  183SOPE  C31821010   5.243   5.866   8.864  0.6324  0.7167  0.5656
  183SOPE  H18X21011   5.223   5.914   8.962  0.5410 -1.2752  1.5650
  183SOPE  H18Y21012   5.353   5.854   8.850  0.9909 -1.2956  4.0042
  183SOPE  H18Z21013   5.188   5.769   8.865  1.8769 -0.0674 -1.3203
  184SOPE     N21014   3.834   0.229   6.216 -0.4546  0.2260  0.3598
  184SOPE   HN121015   3.767   0.177   6.156 -2.0703  0.7928  1.5922
  184SOPE   HN221016   3.830   0.331   6.192  1.3188  0.0191 -1.0286
  184SOPE   HN321017   3.930   0.200   6.190 -0.9213 -0.5269 -0.6047
  184SOPE   C1221018   3.813   0.200   6.358 -0.9330 -0.3148 -0.9167
  184SOPE  H12A21019   3.801   0.090   6.355  0.9098 -0.5269 -2.4073
  184SOPE  H12B21020   3.725   0.260   6.390  0.4130  1.6130 -0.6139
  184SOPE   C1121021   3.938   0.238   6.448 -0.2671  0.0312 -0.7553
  184SOPE  H11A21022   3.903   0.220   6.552 -3.0941  1.3355 -1.3796
  184SOPE  H11B21023   3.972   0.344   6.450  1.6987 -0.4662  3.3622
  184SOPE     P21024   4.174   0.187   6.343  0.3801 -0.0312 -0.6830
  184SOPE   O1321025   4.126   0.233   6.211  0.3908  0.0876 -0.0575
  184SOPE   O1421026   4.274   0.079   6.340 -0.2817 -0.0308 -0.6111
  184SOPE   O1221027   4.045   0.148   6.421 -0.0710 -0.1077  0.3288
  184SOPE   O1121028   4.226   0.313   6.426 -0.5504 -0.4703 -0.3662
  184SOPE    C121029   4.228   0.319   6.570 -0.5836  0.2625  0.2634
  184SOPE    HA21030   4.150   0.250   6.609 -1.9853  0.5121 -1.9494
  184SOPE    HB21031   4.205   0.421   6.606 -1.0889  0.0114  0.6722
  184SOPE    C221032   4.357   0.251   6.623 -0.6573 -0.0335 -0.2069
  184SOPE    HS21033   4.372   0.146   6.589  2.6970 -0.0669  0.9434
  184SOPE   O2121034   4.354   0.257   6.769  0.2451 -0.0935 -0.0871
  184SOPE   C2121035   4.450   0.184   6.834  0.3179 -0.1737 -0.0339
  184SOPE   O2221036   4.530   0.105   6.785  1.4000 -0.0225 -0.3511
  184SOPE   C2221037   4.431   0.214   6.986 -0.0529 -0.1211  0.0090
  184SOPE   H2R21038   4.326   0.241   7.009 -1.1243 -2.8996 -1.1095
  184SOPE   H2S21039   4.491   0.307   6.992 -1.5784  1.1233 -2.3450
  184SOPE    C321040   4.484   0.321   6.561  0.3665 -0.1684 -0.0303
  184SOPE    HX21041   4.485   0.307   6.451 -1.1998  1.1110 -0.2544
  184SOPE    HY21042   4.576   0.280   6.609 -0.4602  0.2854  2.0187
  184SOPE   O3121043   4.471   0.468   6.587 -0.0305 -0.5796 -0.2890
  184SOPE   C3121044   4.533   0.505   6.701  0.4328  0.0713 -0.4510
  184SOPE   O3221045   4.621   0.439   6.756  0.0664  0.0851  0.4134
  184SOPE   C3221046   4.475   0.640   6.746  0.0936  0.0127  0.1172
  184SOPE   H2X21047   4.377   0.616   6.791 -0.9893 -1.6292 -2.8255
  184SOPE   H2Y21048   4.446   0.705   6.661  1.7021  1.2752  0.4820
  184SOPE   C2321049   4.484   0.109   7.078 -0.0266  0.2987 -0.0239
  184SOPE   H3R21050   4.591   0.084   7.067  0.4664  2.3062 -0.2118
  184SOPE   H3S21051   4.427   0.018   7.051  0.2783  0.4237 -1.1300
  184SOPE   C2421052   4.459   0.150   7.221  0.4845 -0.0979  0.3871
  184SOPE   H4R21053   4.525   0.236   7.244  1.9685 -1.8308  3.0481
  184SOPE   H4S21054   4.350   0.165   7.236  0.3508 -1.1708  0.5192
  184SOPE   C2521055   4.497   0.047   7.324  0.6291 -0.2734  0.0845
  184SOPE   H5R21056   4.426  -0.037   7.311  1.2591 -0.8255  0.2241
  184SOPE   H5S21057   4.594   0.001   7.297 -0.0277 -0.2313 -2.6222
  184SOPE   C2621058   4.494   0.085   7.470 -0.0505 -0.9351  0.5381
  184SOPE   H6R21059   4.476  -0.006   7.531  0.0207 -0.2364  1.6234
  184SOPE   H6S21060   4.599   0.119   7.485  0.6197 -1.9914 -1.4448
  184SOPE   C2721061   4.416   0.209   7.512 -0.0846 -0.1849 -0.1456
  184SOPE   H7R21062   4.445   0.290   7.442 -1.8158 -0.3213 -1.0664
  184SOPE   H7S21063   4.307   0.199   7.490  0.0908  2.4667 -2.9075
  184SOPE   C2821064   4.446   0.258   7.662  0.5818  0.7229  0.5306
  184SOPE   H8R21065   4.419   0.366   7.662 -0.6809  0.4382 -0.3425
  184SOPE   H8S21066   4.369   0.209   7.726 -1.4092 -0.3830 -2.4447
  184SOPE   C2921067   4.586   0.246   7.717 -0.3247  0.1163  0.0955
  184SOPE   H9121068   4.658   0.278   7.640 -0.6040  3.2501  1.0238
  184SOPE  C21021069   4.630   0.205   7.835 -0.4310  0.3646 -0.4214
  184SOPE  H10121070   4.738   0.202   7.851 -0.3493  0.5618 -0.8973
  184SOPE  C21121071   4.543   0.153   7.953 -0.1827 -0.7509  0.2837
  184SOPE  H11R21072   4.612   0.076   7.995  2.8949  2.1028  0.9298
  184SOPE  H11S21073   4.447   0.113   7.913 -2.3724  0.8539  3.5468
  184SOPE  C21221074   4.526   0.262   8.064 -0.3608  0.0500 -0.7928
  184SOPE  H12R21075   4.459   0.337   8.017 -3.5235 -3.1206 -1.8614
  184SOPE  H12S21076   4.622   0.306   8.098 -2.1033  1.8303  2.2211
  184SOPE  C21321077   4.462   0.220   8.206 -0.3241 -0.3675  0.3690
  184SOPE  H13R21078   4.520   0.135   8.247  0.4477  0.5199  1.1747
  184SOPE  H13S21079   4.365   0.180   8.170 -0.4119  0.4531 -0.3464
  184SOPE  C21421080   4.463   0.340   8.308  0.6280 -0.7388  0.3285
  184SOPE  H14R21081   4.397   0.416   8.260  0.9455  1.2479  2.8316
  184SOPE  H14S21082   4.560   0.391   8.324  1.6760 -2.5781  0.1850
  184SOPE  C21521083   4.402   0.293   8.444  0.0428  0.3639  1.1240
  184SOPE  H15R21084   4.323   0.221   8.413  0.4943 -0.8585  2.7293
  184SOPE  H15S21085   4.356   0.379   8.497 -0.6145  0.9080 -0.2622
  184SOPE  C21621086   4.507   0.236   8.539 -0.2818  0.4577  0.1718
  184SOPE  H16R21087   4.589   0.309   8.559  1.7300 -1.3254 -1.0715
  184SOPE  H16S21088   4.555   0.149   8.489 -0.2622 -0.0633  1.0783
  184SOPE  C21721089   4.461   0.187   8.678  0.3430 -0.3372  0.0909
  184SOPE  H17R21090   4.448   0.274   8.746 -1.1649 -1.5365  1.4139
  184SOPE  H17S21091   4.550   0.126   8.706 -0.5831 -1.4125  0.7601
  184SOPE  C21821092   4.337   0.098   8.665 -0.5077 -0.1692 -0.0513
  184SOPE  H18R21093   4.310   0.062   8.767 -0.2279 -1.4797 -0.4253
  184SOPE  H18S21094   4.354   0.018   8.591  2.7550  1.4098 -1.1859
  184SOPE  H18T21095   4.250   0.158   8.630  0.0891  0.0304 -1.2211
  184SOPE   C3321096   4.560   0.726   6.841 -0.1703 -0.2580 -0.3744
  184SOPE   H3X21097   4.519   0.828   6.854  0.8670  0.0197  1.0079
  184SOPE   H3Y21098   4.659   0.740   6.791 -0.7265 -1.5136 -1.8857
  184SOPE   C3421099   4.586   0.676   6.987  0.0315 -0.2017 -0.6696
  184SOPE   H4X21100   4.673   0.735   7.020 -1.8963  3.3373 -1.4285
  184SOPE   H4Y21101   4.598   0.565   6.992 -0.4011 -0.4768 -3.6310
  184SOPE   C3521102   4.469   0.713   7.082  0.4219 -0.0523  0.3015
  184SOPE   H5X21103   4.374   0.711   7.024 -0.4444 -1.0140  1.6909
  184SOPE   H5Y21104   4.481   0.822   7.103  1.5550 -0.4470  1.8752
  184SOPE   C3621105   4.462   0.642   7.219 -0.3520  0.1510 -0.5556
  184SOPE   H6X21106   4.564   0.649   7.265 -0.9523 -0.1642  0.8833
  184SOPE   H6Y21107   4.433   0.535   7.208 -1.3954  0.4062 -0.3264
  184SOPE   C3721108   4.377   0.720   7.329  0.6347 -0.6575  0.0885
  184SOPE   H7X21109   4.281   0.745   7.279 -0.2689 -3.2174  0.3984
  184SOPE   H7Y21110   4.441   0.809   7.349  1.7694 -1.5086  0.3800
  184SOPE   C3821111   4.357   0.636   7.456  0.1236  0.3918  0.6158
  184SOPE   H8X21112   4.457   0.590   7.470  0.3829  0.2302 -1.4523
  184SOPE   H8Y21113   4.298   0.549   7.421 -0.2215  1.5211 -1.7856
  184SOPE   C3921114   4.301   0.714   7.577  0.0121 -0.3828  0.4779
  184SOPE   H9X21115   4.202   0.756   7.551  0.7750  0.2368 -1.6004
  184SOPE   H9Y21116   4.375   0.795   7.594  0.0061  0.0011 -1.2275
  184SOPE  C31021117   4.293   0.628   7.702  0.3341  0.1542  0.9258
  184SOPE  H10X21118   4.399   0.601   7.724  1.0199  2.6524  1.0172
  184SOPE  H10Y21119   4.240   0.535   7.671  0.8750  0.3418 -0.6618
  184SOPE  C31121120   4.226   0.693   7.818 -0.1989 -0.5011 -0.4960
  184SOPE  H11X21121   4.205   0.616   7.895  1.9033 -0.8237 -0.1949
  184SOPE  H11Y21122   4.129   0.745   7.799 -0.4028 -0.3563  0.8122
  184SOPE  C31221123   4.317   0.795   7.882  0.1034 -0.8005 -0.0540
  184SOPE  H12X21124   4.296   0.895   7.838  0.0278 -1.2445 -1.0307
  184SOPE  H12Y21125   4.418   0.780   7.838  0.3546  0.6325 -0.0420
  184SOPE  C31321126   4.310   0.802   8.030 -0.1555 -0.2838 -1.1541
  184SOPE  H13X21127   4.218   0.851   8.069 -0.0461 -0.0076 -1.2387
  184SOPE  H13Y21128   4.389   0.873   8.062  0.6022 -0.6567 -2.1191
  184SOPE  C31421129   4.356   0.674   8.097 -0.0416  0.3323  0.3580
  184SOPE  H14X21130   4.463   0.658   8.072 -0.4656 -1.5565 -0.3567
  184SOPE  H14Y21131   4.306   0.578   8.074  0.6332  0.1111 -0.2086
  184SOPE  C31521132   4.352   0.685   8.257 -0.5077  0.1251 -0.4470
  184SOPE  H15X21133   4.388   0.789   8.274 -0.5287  0.0861 -0.1668
  184SOPE  H15Y21134   4.441   0.624   8.282  0.0519  1.5419  1.2326
  184SOPE  C31621135   4.218   0.644   8.309 -0.2141  0.5498  0.7967
  184SOPE  H16X21136   4.194   0.536   8.298 -0.6652  0.5303  1.8450
  184SOPE  H16Y21137   4.146   0.685   8.236 -1.6424 -2.2309  0.4835
  184SOPE  C31721138   4.185   0.684   8.449 -0.3973  0.1055 -0.1213
  184SOPE  H17X21139   4.152   0.789   8.458 -2.1210 -0.4910  1.1326
  184SOPE  H17Y21140   4.272   0.652   8.510  0.8956  0.5241 -1.6821
  184SOPE  C31821141   4.054   0.614   8.502  0.4099 -0.1613 -0.7914
  184SOPE  H18X21142   3.986   0.621   8.414 -0.3608  0.4581 -0.1629
  184SOPE  H18Y21143   4.000   0.658   8.589 -0.8366 -0.2744 -1.4855
  184SOPE  H18Z21144   4.069   0.505   8.520 -2.8931 -0.8614 -1.5814
  185SAPI   C1221145   0.183   4.085  11.290  0.1783  0.2242 -0.0863
  185SAPI    H221146   0.157   3.979  11.269 -1.1633  0.7750 -1.4076
  185SAPI    O221147   0.071   4.170  11.320 -0.1449  0.0273  0.4138
  185SAPI   HO221148  -0.002   4.149  11.262 -0.0449 -0.1519  0.3542
  185SAPI   C1321149   0.287   4.077  11.401 -0.4606  0.1130 -0.0682
  185SAPI    H321150   0.372   4.014  11.368  0.4299  1.2524 -0.0265
  185SAPI    O321151   0.233   4.003  11.516 -0.0794 -0.8847  0.5147
  185SAPI   HO321152   0.141   3.985  11.498  0.3180 -1.1565 -1.4924
  185SAPI   C1421153   0.338   4.214  11.433  0.2229 -0.3854  0.1859
  185SAPI    H421154   0.253   4.286  11.445 -0.6038 -1.5982  2.2264
  185SAPI    O421155   0.414   4.217  11.550  0.9993  0.1616 -0.1849
  185SAPI   HO421156   0.359   4.212  11.629  0.9389 -0.3353 -0.2513
  185SAPI   C1521157   0.416   4.261  11.318  0.9813  0.6440  0.4841
  185SAPI    H521158   0.502   4.199  11.288  0.5085  0.4957 -0.6119
  185SAPI    O521159   0.468   4.388  11.341  0.0996 -0.0384 -0.4771
  185SAPI   HO521160   0.519   4.414  11.264  0.2659 -0.0082 -0.3552
  185SAPI   C1621161   0.321   4.264  11.192  0.7948 -0.1539 -0.6223
  185SAPI    H621162   0.254   4.348  11.218 -1.3433 -2.4092  1.6262
  185SAPI    O621163   0.391   4.310  11.072 -0.0193 -0.0175  0.0967
  185SAPI   HO621164   0.380   4.240  11.008  0.4923  2.1671 -2.5344
  185SAPI   C1121165   0.254   4.126  11.166 -0.6114  0.9741 -0.3851
  185SAPI    H121166   0.337   4.053  11.154  0.3215  1.3043  2.9123
  185SAPI     P21167   0.194   4.036  10.920  0.1347  0.1711 -0.0594
  185SAPI   O1321168   0.070   4.040  10.839 -0.5076 -0.1451  0.3918
  185SAPI   O1421169   0.245   3.906  10.970  0.2233  0.1530  0.1348
  185SAPI   O1221170   0.173   4.128  11.053 -0.1953 -0.3094  0.0684
  185SAPI   O1121171   0.312   4.106  10.838  0.3177 -0.3817 -0.0692
  185SAPI    C121172   0.283   4.235  10.776 -0.5790  0.2543  0.2138
  185SAPI    HA21173   0.210   4.297  10.833 -1.2355  0.5542 -0.9346
  185SAPI    HB21174   0.378   4.293  10.782  1.2598 -2.6212  0.5246
  185SAPI    C221175   0.251   4.218  10.626  0.5458  0.5056 -0.2969
  185SAPI    HS21176   0.156   4.160  10.623 -0.6489  2.3103  0.5902
  185SAPI   O2121177   0.357   4.138  10.572 -0.2431 -0.6189  0.1860
  185SAPI   C2121178   0.324   4.045  10.493 -0.2822 -0.4080 -0.5077
  185SAPI   O2221179   0.211   4.021  10.451  0.2812  0.1371 -0.6038
  185SAPI   C2221180   0.452   3.975  10.444 -0.3028  0.3256 -0.6294
  185SAPI   H2R21181   0.540   4.039  10.468 -0.0088 -0.3920  0.2937
  185SAPI   H2S21182   0.468   3.891  10.515  0.7941  0.7911 -0.3066
  185SAPI    C321183   0.229   4.353  10.554  0.4787  0.3886  0.4403
  185SAPI    HX21184   0.321   4.414  10.565  1.3156 -0.8004  0.2880
  185SAPI    HY21185   0.146   4.413  10.596  0.8555  3.2733 -2.5586
  185SAPI   O3121186   0.201   4.340  10.413  0.5159 -0.1069 -0.3051
  185SAPI   C3121187   0.086   4.307  10.368 -0.5828 -0.2694 -0.4384
  185SAPI   O3221188  -0.017   4.300  10.431  0.0700 -0.0009 -0.0348
  185SAPI   C3221189   0.100   4.300  10.225 -0.1685  0.4566  0.7254
  185SAPI   H2X21190   0.206   4.314  10.195 -0.7546  3.5207 -0.2734
  185SAPI   H2Y21191   0.028   4.377  10.189  0.6008  0.9953  0.2970
  185SAPI   C2321192   0.443   3.915  10.304 -0.5818 -0.8826 -0.1078
  185SAPI   H3R21193   0.347   3.859  10.295 -0.0357 -1.8338 -0.1589
  185SAPI   H3S21194   0.529   3.845  10.293 -0.2545 -0.3429 -1.1127
  185SAPI   C2421195   0.458   4.020  10.192  0.2895  0.1898 -0.4379
  185SAPI   H4R21196   0.395   4.108  10.218  1.7424  1.7528 -1.9871
  185SAPI   H4S21197   0.397   3.981  10.108  1.6354 -3.2146 -0.0076
  185SAPI   C2521198   0.596   4.049  10.148 -0.6408 -0.1058 -0.0928
  185SAPI   H5R21199   0.648   4.111  10.223 -0.2882  0.0177 -0.4389
  185SAPI   C2621200   0.657   4.015  10.029 -0.2494 -0.4545  0.2266
  185SAPI   H6R21201   0.760   4.053  10.023 -0.4754 -0.0050 -1.1518
  185SAPI   C2721202   0.607   3.938   9.907 -0.5700  0.1044 -0.4910
  185SAPI   H7R21203   0.568   3.839   9.937  0.1203  0.0521  0.2779
  185SAPI   H7S21204   0.696   3.906   9.848 -0.3782  1.7749 -1.1778
  185SAPI   C2821205   0.513   4.022   9.829 -0.3278 -0.9009  0.2087
  185SAPI   H8R21206   0.431   4.073   9.882  1.5171  2.8650 -0.2529
  185SAPI   C2921207   0.514   4.037   9.693 -0.7393 -0.5762 -0.2348
  185SAPI   H9R21208   0.445   4.104   9.640 -0.8125  2.6988  3.5351
  185SAPI  C21021209   0.612   3.968   9.600  0.0857  0.3862 -0.5391
  185SAPI  H10R21210   0.608   3.860   9.627 -2.3344  1.2561  3.2583
  185SAPI  H10S21211   0.719   3.992   9.617 -0.2426  0.9717  0.7762
  185SAPI  C21121212   0.575   3.973   9.455  0.4391 -0.3671 -0.3906
  185SAPI  H11R21213   0.479   3.923   9.437  1.1354 -1.5294 -1.0089
  185SAPI  C21221214   0.647   4.027   9.349  0.4015 -0.0062 -0.3863
  185SAPI  H12R21215   0.600   4.028   9.249 -0.8193 -0.6827  0.1540
  185SAPI  C21321216   0.783   4.092   9.351  0.2320 -0.1598  0.2360
  185SAPI  H13R21217   0.808   4.132   9.452 -0.0322  1.0709 -0.1676
  185SAPI  H13S21218   0.792   4.188   9.296  0.8958  0.6994  1.7740
  185SAPI  C21421219   0.887   3.990   9.322 -0.3662 -0.0769 -0.0096
  185SAPI  H14R21220   0.939   3.950   9.410  0.3559 -2.1604 -1.3012
  185SAPI  C21521221   0.930   3.958   9.205 -0.8279 -0.5073 -0.3468
  185SAPI  H15R21222   1.023   3.899   9.199 -0.7345 -0.5801  1.2194
  185SAPI  C21621223   0.884   4.029   9.077 -0.0362 -0.0052  0.0551
  185SAPI  H16R21224   0.949   4.116   9.053 -3.0539  2.3587 -0.2057
  185SAPI  H16S21225   0.783   4.074   9.091 -0.4733 -1.4024  1.8213
  185SAPI  C21721226   0.885   3.925   8.962  0.4645  0.5429  0.4026
  185SAPI  H17R21227   0.825   3.836   8.991  0.7307  0.1902 -0.1143
  185SAPI  H17S21228   0.993   3.902   8.958 -0.1522 -2.6077 -1.2180
  185SAPI  C21821229   0.830   3.984   8.830 -0.4109 -1.0774  0.7834
  185SAPI  H18R21230   0.903   4.055   8.787 -1.9092 -0.5779 -1.0804
  185SAPI  H18S21231   0.731   4.033   8.839 -0.7494 -1.3383 -1.1624
  185SAPI  C21921232   0.822   3.877   8.715  0.4998 -0.7898  0.4185
  185SAPI  H19R21233   0.808   3.928   8.617  1.1604  1.6354  1.4995
  185SAPI  H19S21234   0.733   3.815   8.742  0.7778 -1.2485  0.2823
  185SAPI  C22021235   0.951   3.791   8.700 -0.5486  0.1154 -0.2827
  185SAPI  H20R21236   0.994   3.767   8.800 -1.0371 -0.6249 -0.2336
  185SAPI  H20S21237   1.017   3.846   8.630 -0.1690 -1.7360 -1.4463
  185SAPI  H20T21238   0.922   3.704   8.637 -1.3306  0.4555 -0.4003
  185SAPI   C3321239   0.044   4.162  10.171  0.5541 -0.2931 -1.2773
  185SAPI   H3X21240  -0.061   4.139  10.199 -0.2572  1.8988 -2.2255
  185SAPI   H3Y21241   0.106   4.079  10.209  1.4216  0.0534 -1.9172
  185SAPI   C3421242   0.055   4.155  10.015  0.4202 -0.8925 -1.8338
  185SAPI   H4X21243   0.164   4.162   9.996  0.8907  5.2875  0.7627
  185SAPI   H4Y21244   0.005   4.250   9.984 -3.2173 -1.5658  1.2513
  185SAPI   C3521245  -0.015   4.039   9.948  0.8850  0.3043 -0.1449
  185SAPI   H5X21246  -0.122   4.065   9.936  0.8323 -0.3493 -1.2178
  185SAPI   H5Y21247  -0.017   3.955  10.021 -1.7075  0.4435  0.0413
  185SAPI   C3621248   0.050   3.998   9.815 -0.6724  0.1687  0.0819
  185SAPI   H6X21249  -0.023   3.939   9.755  1.9065 -1.6100 -1.5501
  185SAPI   H6Y21250   0.136   3.928   9.816 -1.1742 -0.4423  0.6080
  185SAPI   C3721251   0.075   4.117   9.719 -0.2499  0.0743 -0.2010
  185SAPI   H7X21252   0.134   4.195   9.771 -1.5365 -0.3332  2.0100
  185SAPI   H7Y21253  -0.016   4.175   9.692  0.3101  1.2644  0.3849
  185SAPI   C3821254   0.145   4.074   9.591 -0.7576  0.0780  0.6083
  185SAPI   H8X21255   0.081   4.010   9.526 -1.4287  1.1097  0.2403
  185SAPI   H8Y21256   0.226   4.007   9.625  0.1171  1.7050  1.8476
  185SAPI   C3921257   0.193   4.189   9.498 -0.6227  0.2803  0.2033
  185SAPI   H9X21258   0.273   4.249   9.546  0.9878 -2.0592  0.6329
  185SAPI   H9Y21259   0.112   4.259   9.471 -0.2843  0.6096  0.0282
  185SAPI  C31021260   0.254   4.140   9.369  0.0522  0.4597 -0.0010
  185SAPI  H10X21261   0.185   4.085   9.303  1.9167 -0.2969 -1.4010
  185SAPI  H10Y21262   0.330   4.062   9.394 -1.6898 -0.4702  2.9676
  185SAPI  C31121263   0.308   4.260   9.296 -0.6111 -0.7556  0.1834
  185SAPI  H11X21264   0.384   4.305   9.363 -2.9543  3.4520  0.3429
  185SAPI  H11Y21265   0.225   4.332   9.283 -0.7680 -0.3897  2.7195
  185SAPI  C31221266   0.363   4.223   9.154 -0.3846 -0.8467 -0.1397
  185SAPI  H12X21267   0.272   4.184   9.103 -1.6128  3.0765 -1.3336
  185SAPI  H12Y21268   0.439   4.142   9.159 -1.1697 -1.7221 -1.8609
  185SAPI  C31321269   0.415   4.343   9.078 -0.5412 -0.9603 -0.1296
  185SAPI  H13X21270   0.485   4.397   9.146 -2.0550  1.2349 -0.1918
  185SAPI  H13Y21271   0.325   4.406   9.063 -0.0613  0.2213  1.5609
  185SAPI  C31421272   0.486   4.312   8.946  0.5294  0.2174 -0.9170
  185SAPI  H14X21273   0.421   4.245   8.885  0.4085 -0.7794  0.2741
  185SAPI  H14Y21274   0.573   4.248   8.971 -0.5804 -0.3179  1.9578
  185SAPI  C31521275   0.554   4.420   8.871  0.4246  0.7863 -0.2687
  185SAPI  H15X21276   0.635   4.385   8.804  0.0769  0.5238 -0.5547
  185SAPI  H15Y21277   0.592   4.489   8.949 -0.1897  1.4376 -0.5228
  185SAPI  C31621278   0.464   4.494   8.770 -0.4632 -0.4795  0.2533
  185SAPI  H16X21279   0.372   4.537   8.812 -1.4527 -2.3832  0.1577
  185SAPI  H16Y21280   0.414   4.414   8.712  2.2629 -0.6442 -2.1077
  185SAPI  C31721281   0.525   4.602   8.683 -0.6474 -0.3452  0.2315
  185SAPI  H17X21282   0.629   4.582   8.651 -0.9633  0.2608 -1.2073
  185SAPI  H17Y21283   0.551   4.689   8.747  1.2305 -0.4102 -0.3882
  185SAPI  C31821284   0.436   4.660   8.568  0.5871  0.5593 -0.1133
  185SAPI  H18X21285   0.476   4.751   8.518  4.2843  1.5759  4.0814
  185SAPI  H18Y21286   0.337   4.681   8.614  0.6965 -0.6575  0.7250
  185SAPI  H18Z21287   0.413   4.576   8.499 -1.8838  0.9657  0.1270
  186SAPI   C1221288   2.064   1.671  11.200  0.0296  0.2007 -0.1496
  186SAPI    H221289   2.083   1.744  11.118  3.1758  1.1035  1.2034
  186SAPI    O221290   2.155   1.566  11.184 -0.1693 -0.1336 -0.6021
  186SAPI   HO221291   2.170   1.572  11.090  3.0507 -2.7061 -0.4162
  186SAPI   C1321292   2.082   1.740  11.328  0.1418  0.3615  0.4815
  186SAPI    H321293   2.013   1.825  11.351 -1.0344 -0.9370  2.0212
  186SAPI    O321294   2.210   1.795  11.337  0.0939  0.3291 -0.3318
  186SAPI   HO321295   2.212   1.869  11.398  1.6656 -0.8604  1.1476
  186SAPI   C1421296   2.055   1.653  11.446  0.2232 -0.2489 -0.5244
  186SAPI    H421297   2.117   1.561  11.457 -1.1408 -0.8267  3.9308
  186SAPI    O421298   2.081   1.725  11.575 -0.2727  0.4671 -0.1370
  186SAPI   HO421299   2.172   1.703  11.598 -0.9300 -0.3423  1.9457
  186SAPI   C1521300   1.914   1.601  11.435 -0.0721  0.5609 -0.1761
  186SAPI    H521301   1.843   1.686  11.449  1.7162  2.0503  0.1893
  186SAPI    O521302   1.889   1.509  11.540 -0.0190  0.3098  0.8366
  186SAPI   HO521303   1.803   1.482  11.508  1.1792  0.0669 -2.5799
  186SAPI   C1621304   1.887   1.527  11.303 -0.7436  0.3226  0.4059
  186SAPI    H621305   1.963   1.446  11.299 -1.7144 -0.6566  1.2395
  186SAPI    O621306   1.755   1.471  11.310 -0.0044  0.1462  0.6050
  186SAPI   HO621307   1.755   1.401  11.245 -0.1051  1.1194 -0.4726
  186SAPI   C1121308   1.920   1.615  11.185  0.1025 -0.6315  0.1273
  186SAPI    H121309   1.852   1.702  11.190 -0.7433 -1.0050 -2.8534
  186SAPI     P21310   1.789   1.595  10.939 -0.1236 -0.4538 -0.4626
  186SAPI   O1321311   1.654   1.587  11.006  0.3757  0.0594 -0.2294
  186SAPI   O1421312   1.807   1.505  10.822 -0.2397  0.3077 -0.6274
  186SAPI   O1221313   1.903   1.556  11.055  0.6579 -0.0812  0.2271
  186SAPI   O1121314   1.826   1.746  10.904  0.0988  0.5158 -0.4384
  186SAPI    C121315   1.896   1.788  10.785  0.4483 -0.0546  0.2592
  186SAPI    HA21316   1.953   1.881  10.804 -0.7106  0.7763 -0.2368
  186SAPI    HB21317   1.965   1.712  10.741  1.7202  0.7323  0.8339
  186SAPI    C221318   1.811   1.830  10.656 -0.0075 -0.5378  0.2488
  186SAPI    HS21319   1.871   1.903  10.597 -0.5800  1.0084  1.5136
  186SAPI   O2121320   1.675   1.878  10.684 -0.1554  0.3628  0.2149
  186SAPI   C2121321   1.679   1.996  10.757  0.2707  0.0711  0.4721
  186SAPI   O2221322   1.779   2.055  10.788 -0.0813  0.2980 -0.2172
  186SAPI   C2221323   1.544   2.054  10.769  0.1689  0.5265 -0.3373
  186SAPI   H2R21324   1.471   2.001  10.704 -0.5467 -0.5738  1.2940
  186SAPI   H2S21325   1.517   2.030  10.874 -0.7413 -0.2570 -0.7266
  186SAPI    C321326   1.794   1.717  10.547  0.7347 -1.0932  0.6805
  186SAPI    HX21327   1.712   1.732  10.473  0.8759  0.0195  0.7362
  186SAPI    HY21328   1.769   1.629  10.611 -0.0370 -1.6718 -0.3872
  186SAPI   O3121329   1.914   1.681  10.485 -0.4215 -0.4743  1.0648
  186SAPI   C3121330   1.912   1.577  10.413 -0.4265  0.5019 -0.0667
  186SAPI   O3221331   1.810   1.506  10.401 -0.5453 -0.0809 -0.3835
  186SAPI   C3221332   2.053   1.542  10.355 -0.8389  0.7545  0.8962
  186SAPI   H2X21333   2.101   1.465  10.419 -0.9865 -0.5093 -0.4525
  186SAPI   H2Y21334   2.113   1.635  10.366 -0.3001  0.3968  0.9961
  186SAPI   C2321335   1.555   2.211  10.761 -0.1172 -0.3119  0.8100
  186SAPI   H3R21336   1.627   2.248  10.837  2.4553  0.6282 -1.9020
  186SAPI   H3S21337   1.452   2.248  10.780 -0.1017  0.8490 -1.2281
  186SAPI   C2421338   1.591   2.263  10.619 -0.0339  0.4334  0.8319
  186SAPI   H4R21339   1.680   2.213  10.576 -1.7936 -0.3612 -2.1494
  186SAPI   H4S21340   1.598   2.374  10.621 -0.0543  0.4403  2.4566
  186SAPI   C2521341   1.479   2.249  10.519  0.0396  0.3188  1.2903
  186SAPI   H5R21342   1.395   2.319  10.535  0.5010  1.0705  0.5135
  186SAPI   C2621343   1.474   2.156  10.421  0.1372 -0.2458 -0.6829
  186SAPI   H6R21344   1.379   2.154  10.366  0.2943 -2.6820 -0.9825
  186SAPI   C2721345   1.562   2.046  10.368 -0.2854 -0.3746  0.2590
  186SAPI   H7R21346   1.491   1.961  10.364 -0.4441 -0.3777  2.1723
  186SAPI   H7S21347   1.634   2.021  10.449  1.7807 -1.9431 -1.9288
  186SAPI   C2821348   1.651   2.071  10.249 -0.2190  0.2319  0.0541
  186SAPI   H8R21349   1.751   2.112  10.273 -0.8937  1.5413  0.7361
  186SAPI   C2921350   1.613   2.063  10.121  0.0235 -0.0985 -0.0534
  186SAPI   H9R21351   1.679   2.090  10.038 -0.9445  2.3226 -0.1294
  186SAPI  C21021352   1.469   2.031  10.077  0.5490  0.0176 -0.8896
  186SAPI  H10R21353   1.404   2.054  10.165  0.8037  1.3831 -1.0348
  186SAPI  H10S21354   1.451   1.922  10.064 -0.4221  0.1551 -0.8372
  186SAPI  C21121355   1.411   2.116   9.965 -0.5854 -0.2132 -0.2047
  186SAPI  H11R21356   1.326   2.183   9.986  0.0043 -0.0266  1.8099
  186SAPI  C21221357   1.449   2.102   9.836 -0.3750  0.4789 -0.3727
  186SAPI  H12R21358   1.398   2.165   9.761  1.9480  0.4975 -2.0585
  186SAPI  C21321359   1.547   2.007   9.782 -0.7188  0.6033  1.0624
  186SAPI  H13R21360   1.601   1.957   9.866  1.8807 -0.1879 -0.9199
  186SAPI  H13S21361   1.624   2.065   9.727 -2.6067 -0.1296 -2.7559
  186SAPI  C21421362   1.507   1.903   9.680 -0.5629 -0.3774  0.0136
  186SAPI  H14R21363   1.486   1.802   9.719 -0.0564 -1.0728 -1.4753
  186SAPI  C21521364   1.471   1.914   9.548 -0.5383 -0.0366  0.3804
  186SAPI  H15R21365   1.460   1.823   9.488 -2.3976  0.1256  0.4036
  186SAPI  C21621366   1.462   2.044   9.472 -0.5085  0.4438  0.2467
  186SAPI  H16R21367   1.430   2.132   9.532 -1.4544  0.3956 -0.1833
  186SAPI  H16S21368   1.390   2.038   9.389  0.1166  0.1688 -0.2830
  186SAPI  C21721369   1.597   2.075   9.399  0.1175  0.3958  0.1509
  186SAPI  H17R21370   1.686   2.063   9.464  0.9586 -0.3159 -1.0783
  186SAPI  H17S21371   1.593   2.179   9.360  2.4468 -0.0659 -1.5584
  186SAPI  C21821372   1.620   1.982   9.275 -0.4299 -0.0130 -0.0933
  186SAPI  H18R21373   1.527   1.973   9.214 -0.8087  2.2833  0.0539
  186SAPI  H18S21374   1.638   1.884   9.324  0.1538 -0.1589 -0.5926
  186SAPI  C21921375   1.732   2.024   9.186 -0.0902  0.5262 -0.1224
  186SAPI  H19R21376   1.738   1.939   9.115  4.2708 -0.8900  1.5730
  186SAPI  H19S21377   1.823   2.010   9.249 -2.1051  1.6536  3.3036
  186SAPI  C22021378   1.730   2.160   9.113 -0.6147  0.6578 -0.4025
  186SAPI  H20R21379   1.624   2.172   9.082 -1.7242 -0.9159  2.3944
  186SAPI  H20S21380   1.801   2.149   9.029  1.1969 -1.3065  1.2588
  186SAPI  H20T21381   1.759   2.242   9.181 -0.3842 -0.0476  0.3698
  186SAPI   C3321382   2.034   1.502  10.211  0.0468  0.4994 -0.3794
  186SAPI   H3X21383   1.961   1.558  10.148  0.6159  2.3783  0.5706
  186SAPI   H3Y21384   2.003   1.396  10.201 -0.5410  0.7657 -1.5137
  186SAPI   C3421385   2.165   1.508  10.141 -0.6518 -1.0164 -0.1498
  186SAPI   H4X21386   2.231   1.436  10.195 -0.5727  0.4565  1.8491
  186SAPI   H4Y21387   2.213   1.607  10.160  1.3103 -1.3777 -2.7181
  186SAPI   C3521388   2.155   1.469   9.992 -0.5087  0.6051 -0.1685
  186SAPI   H5X21389   2.258   1.486   9.952 -0.8201  1.3045 -0.6971
  186SAPI   H5Y21390   2.074   1.523   9.939 -1.4341  0.1481  0.7484
  186SAPI   C3621391   2.129   1.324   9.971 -0.2851  0.3404 -0.3139
  186SAPI   H6X21392   2.032   1.303  10.021  0.0191 -0.8909 -0.2227
  186SAPI   H6Y21393   2.210   1.252   9.994 -1.2978 -1.7027 -2.7095
  186SAPI   C3721394   2.104   1.302   9.822  0.2945 -0.3138 -0.2018
  186SAPI   H7X21395   2.016   1.368   9.813  0.5879  0.3222  1.3312
  186SAPI   H7Y21396   2.070   1.196   9.815 -0.5506 -0.0599 -0.0881
  186SAPI   C3821397   2.218   1.339   9.724 -0.5562  0.8996  0.2185
  186SAPI   H8X21398   2.311   1.296   9.768 -0.2070  0.3113 -1.0446
  186SAPI   H8Y21399   2.237   1.448   9.724  3.7608  0.3249 -0.2628
  186SAPI   C3921400   2.198   1.278   9.585 -0.2199  0.2390 -0.5499
  186SAPI   H9X21401   2.095   1.295   9.546  0.0170  1.1878 -0.7922
  186SAPI   H9Y21402   2.193   1.168   9.601 -0.4913  0.0757 -1.7279
  186SAPI  C31021403   2.303   1.307   9.483 -0.5205 -0.3446  0.1615
  186SAPI  H10X21404   2.404   1.286   9.523  0.9917  0.3486 -2.9651
  186SAPI  H10Y21405   2.302   1.417   9.465  2.3962 -0.6395 -2.7179
  186SAPI  C31121406   2.277   1.231   9.353 -0.1156 -0.0165 -0.2646
  186SAPI  H11X21407   2.271   1.122   9.375 -3.0419  0.1017 -0.1771
  186SAPI  H11Y21408   2.357   1.257   9.281 -1.0526  0.0443 -1.3035
  186SAPI  C31221409   2.140   1.257   9.292 -0.0257 -0.6947  0.0749
  186SAPI  H12X21410   2.123   1.367   9.288 -2.3840 -0.9385  1.4392
  186SAPI  H12Y21411   2.060   1.214   9.356  0.4816 -1.3577  0.2685
  186SAPI  C31321412   2.127   1.203   9.144  1.2685 -0.3322  0.6166
  186SAPI  H13X21413   2.140   1.093   9.137 -0.1438 -0.4032 -3.0404
  186SAPI  H13Y21414   2.218   1.242   9.092  1.2646 -1.2644 -0.1072
  186SAPI  C31421415   2.002   1.255   9.075  0.6062 -0.4301  1.3100
  186SAPI  H14X21416   1.983   1.359   9.107 -0.1469 -0.1350 -0.0260
  186SAPI  H14Y21417   1.917   1.194   9.112  0.1470 -0.8424 -0.3455
  186SAPI  C31521418   2.001   1.260   8.916  0.1402 -0.2002 -0.0505
  186SAPI  H15X21419   2.069   1.340   8.882 -0.2403 -0.2658 -1.0137
  186SAPI  H15Y21420   1.897   1.291   8.891  0.0961 -1.5811 -1.8357
  186SAPI  C31621421   2.037   1.124   8.843  0.2977 -0.3045 -0.3472
  186SAPI  H16X21422   1.958   1.061   8.889  0.2526  1.6714  2.5732
  186SAPI  H16Y21423   2.139   1.090   8.874  0.6708  1.0826  0.0124
  186SAPI  C31721424   2.013   1.132   8.695 -0.2336  0.0732  0.2217
  186SAPI  H17X21425   2.023   1.037   8.637 -0.4264 -0.0904  0.4575
  186SAPI  H17Y21426   2.093   1.192   8.645 -1.6112  1.1451 -0.7614
  186SAPI  C31821427   1.881   1.188   8.660  0.7435 -0.1797  0.1660
  186SAPI  H18X21428   1.846   1.169   8.557 -1.1573 -0.2797  0.7809
  186SAPI  H18Y21429   1.880   1.297   8.681 -0.1619 -0.5982  2.8277
  186SAPI  H18Z21430   1.804   1.155   8.734 -0.6283  3.0415  0.3464
  187SAPI   C1221431   4.889   3.033   6.268 -0.2363 -0.7734 -0.1858
  187SAPI    H221432   4.916   3.054   6.373 -1.3929 -2.2533  0.4364
  187SAPI    O221433   4.753   3.003   6.262  0.0021  0.0474  0.0752
  187SAPI   HO221434   4.723   3.029   6.349  0.4710 -0.8164  0.5086
  187SAPI   C1321435   4.920   3.157   6.190 -0.7347 -0.7683  0.9579
  187SAPI    H321436   5.029   3.178   6.203 -0.8930 -0.8829  2.7661
  187SAPI    O321437   4.851   3.268   6.245 -0.5314  0.0096 -0.6640
  187SAPI   HO321438   4.892   3.343   6.202 -0.0399  0.4784  0.5583
  187SAPI   C1421439   4.898   3.140   6.039  0.5765  0.7144  0.0848
  187SAPI    H421440   4.787   3.136   6.031  0.6898  0.4666 -1.9119
  187SAPI    O421441   4.952   3.254   5.972 -0.1269 -0.2849 -0.2398
  187SAPI   HO421442   4.879   3.296   5.927  0.2622  0.1235 -0.4955
  187SAPI   C1521443   4.963   3.021   5.982  0.2884 -0.0792  0.2719
  187SAPI    H521444   5.072   3.040   5.988  0.4684 -1.3859  1.7132
  187SAPI    O521445   4.921   3.003   5.846  0.0839  0.0089  0.2304
  187SAPI   HO521446   4.993   2.964   5.797  0.8909 -0.7739  1.9586
  187SAPI   C1621447   4.933   2.901   6.063 -0.1196 -0.1949 -1.2000
  187SAPI    H621448   4.831   2.858   6.060 -0.4430 -0.1900  3.3342
  187SAPI    O621449   5.013   2.800   6.009 -0.3754 -0.6068 -0.0661
  187SAPI   HO621450   4.975   2.717   6.039 -1.8031  0.4007  1.0249
  187SAPI   C1121451   4.965   2.916   6.213 -0.2401  0.0566 -0.8188
  187SAPI    H121452   5.070   2.952   6.222 -1.0839  3.1699 -2.2835
  187SAPI     P21453   5.033   2.763   6.421  0.2181  0.4872 -0.3133
  187SAPI   O1321454   5.153   2.846   6.415 -0.1349 -0.0513  0.2464
  187SAPI   O1421455   5.054   2.614   6.424  0.3508  0.3708 -0.4553
  187SAPI   O1221456   4.940   2.800   6.290  0.0962  0.1765  0.2484
  187SAPI   O1121457   4.949   2.800   6.554 -0.0285 -0.1191  0.0380
  187SAPI    C121458   4.962   2.915   6.636  0.3344 -0.0932  0.0343
  187SAPI    HA21459   5.026   2.991   6.587 -0.1172 -0.5713 -1.3398
  187SAPI    HB21460   4.863   2.966   6.644  1.4866  2.4404 -0.9748
  187SAPI    C221461   5.018   2.882   6.775 -0.3166 -0.4386 -0.1050
  187SAPI    HS21462   5.031   2.979   6.827  3.1583  0.4926 -2.3393
  187SAPI   O2121463   5.142   2.804   6.764  0.6180 -0.2281 -0.6337
  187SAPI   C2121464   5.241   2.868   6.725  0.1645 -0.0890 -0.9828
  187SAPI   O2221465   5.241   2.986   6.690 -0.6211 -0.3658  0.0132
  187SAPI   C2221466   5.363   2.780   6.714 -0.2866  0.4231  0.3180
  187SAPI   H2R21467   5.358   2.699   6.790 -0.5906 -1.3916 -1.5443
  187SAPI   H2S21468   5.364   2.727   6.616  0.5282 -0.1667  0.6274
  187SAPI    C321469   4.912   2.799   6.861 -0.8827  0.0065 -0.6372
  187SAPI    HX21470   4.924   2.689   6.856  0.4284  0.1555 -0.9865
  187SAPI    HY21471   4.807   2.814   6.826 -0.9160  0.2024 -0.4536
  187SAPI   O3121472   4.933   2.838   7.002 -0.0639  0.9098  0.3422
  187SAPI   C3121473   4.833   2.904   7.053 -0.1571 -0.5992  0.2904
  187SAPI   O3221474   4.731   2.936   7.000 -0.5960  0.0755  0.3845
  187SAPI   C3221475   4.858   2.935   7.199 -0.1716  0.0407  0.0625
  187SAPI   H2X21476   4.889   3.041   7.195 -0.9146  0.2238 -3.4861
  187SAPI   H2Y21477   4.935   2.865   7.240 -1.3631 -1.1881  0.2875
  187SAPI   C2321478   5.492   2.851   6.732 -0.4454 -0.1411  0.2297
  187SAPI   H3R21479   5.495   2.925   6.648 -2.8340  0.0498  0.2632
  187SAPI   H3S21480   5.575   2.778   6.717 -1.1035 -0.3940 -2.9095
  187SAPI   C2421481   5.507   2.912   6.871  0.1345  0.6752 -0.2404
  187SAPI   H4R21482   5.448   3.006   6.881 -0.3271  0.2614  1.1817
  187SAPI   H4S21483   5.616   2.926   6.887  1.1045 -4.1788 -1.2753
  187SAPI   C2521484   5.473   2.809   6.974  0.3435  0.1817  0.2778
  187SAPI   H5R21485   5.499   2.702   6.971 -1.5194 -0.4158  2.2356
  187SAPI   C2621486   5.401   2.832   7.085 -0.3918  0.5005  0.2944
  187SAPI   H6R21487   5.397   2.747   7.155  2.4738  0.4501  0.5301
  187SAPI   C2721488   5.341   2.961   7.132 -0.1181  0.3485  0.4086
  187SAPI   H7R21489   5.278   3.000   7.049 -1.9417 -0.9970  1.0981
  187SAPI   H7S21490   5.432   3.022   7.151  0.8949 -1.3897  1.3175
  187SAPI   C2821491   5.245   2.930   7.249  0.2886  0.1744  0.2188
  187SAPI   H8R21492   5.144   2.896   7.222  0.9633 -0.0145 -2.3012
  187SAPI   C2921493   5.287   2.933   7.379  0.3557  0.2593  0.1071
  187SAPI   H9R21494   5.219   2.903   7.461  1.8981  1.3160  1.8297
  187SAPI  C21021495   5.424   2.971   7.426 -0.6341 -0.4345 -0.8299
  187SAPI  H10R21496   5.412   3.050   7.503 -0.3492 -0.3704 -0.8500
  187SAPI  H10S21497   5.479   3.027   7.347 -1.2742  1.0126 -0.2890
  187SAPI  C21121498   5.503   2.854   7.477 -0.6653  0.0468  0.1736
  187SAPI  H11R21499   5.570   2.820   7.397  0.0068  1.1117  0.2619
  187SAPI  C21221500   5.503   2.801   7.603  0.1746 -0.4253  0.1012
  187SAPI  H12R21501   5.562   2.711   7.627  0.3220  0.1815  2.2010
  187SAPI  C21321502   5.427   2.860   7.721 -0.1390 -0.1714  0.3867
  187SAPI  H13R21503   5.378   2.953   7.686 -0.5141 -0.5205 -0.0137
  187SAPI  H13S21504   5.499   2.889   7.801  3.1098  0.3272 -2.4535
  187SAPI  C21421505   5.317   2.768   7.773  0.1650  0.2603  0.2780
  187SAPI  H14R21506   5.271   2.705   7.696 -0.7929  1.0276  0.2053
  187SAPI  C21521507   5.270   2.753   7.896  0.3915 -0.2873  0.0770
  187SAPI  H15R21508   5.191   2.685   7.929  0.1699 -0.0414  0.0628
  187SAPI  C21621509   5.293   2.832   8.021  0.1608 -1.5979 -0.3607
  187SAPI  H16R21510   5.369   2.910   7.998  0.0719 -1.2013  0.6421
  187SAPI  H16S21511   5.347   2.773   8.097  2.0852  0.8415  0.3161
  187SAPI  C21721512   5.170   2.901   8.072 -0.1037 -0.6166 -0.2096
  187SAPI  H17R21513   5.106   2.821   8.113 -0.3859  0.5162  1.6708
  187SAPI  H17S21514   5.111   2.969   8.007 -2.5285 -0.5205  1.9464
  187SAPI  C21821515   5.202   2.994   8.191  0.1012  0.0653  0.4073
  187SAPI  H18R21516   5.264   3.081   8.161 -0.1500  0.6164  1.4336
  187SAPI  H18S21517   5.263   2.930   8.260  1.8908  0.6140 -0.6111
  187SAPI  C21921518   5.072   3.037   8.263  0.1565  0.3502 -0.2157
  187SAPI  H19R21519   5.020   2.943   8.290  0.6100 -0.3879 -1.8034
  187SAPI  H19S21520   5.016   3.103   8.193 -1.7006 -0.1888  0.6990
  187SAPI  C22021521   5.109   3.119   8.381  0.7719 -0.4608  0.5533
  187SAPI  H20R21522   5.180   3.068   8.448  1.6899  0.9042  0.6580
  187SAPI  H20S21523   5.009   3.137   8.427  0.0624 -1.3070 -0.6021
  187SAPI  H20T21524   5.148   3.215   8.341 -1.0468  0.4159  0.7652
  187SAPI   C3321525   4.742   2.929   7.296 -0.7474  0.1171  0.6084
  187SAPI   H3X21526   4.662   2.853   7.284  0.8196 -1.2463 -2.3595
  187SAPI   H3Y21527   4.688   3.026   7.292 -0.3893  0.2993  0.0869
  187SAPI   C3421528   4.802   2.897   7.438  0.5015  0.1632 -0.1583
  187SAPI   H4X21529   4.848   2.797   7.451  1.7829  1.0893  3.3586
  187SAPI   H4Y21530   4.707   2.907   7.495 -0.0768  0.1909 -1.1054
  187SAPI   C3521531   4.903   3.004   7.486  0.0657  0.1184  0.1010
  187SAPI   H5X21532   4.844   3.096   7.466 -0.9218 -0.7209 -0.9978
  187SAPI   H5Y21533   4.989   2.995   7.417 -0.5325  0.2565 -0.6662
  187SAPI   C3621534   4.970   2.988   7.623  0.1137  0.0401 -0.0110
  187SAPI   H6X21535   5.055   3.059   7.633  1.2796 -1.3206 -0.0247
  187SAPI   H6Y21536   5.026   2.893   7.614  0.1535 -0.3824  3.2148
  187SAPI   C3721537   4.892   2.964   7.747 -0.3766  0.4620  0.1238
  187SAPI   H7X21538   4.962   2.928   7.825 -1.4479 -1.6584  0.1717
  187SAPI   H7Y21539   4.829   2.881   7.709  0.3917  0.1696 -0.5412
  187SAPI   C3821540   4.806   3.084   7.790 -0.0198  0.0813 -0.2170
  187SAPI   H8X21541   4.763   3.134   7.700 -0.5866 -1.7747 -1.0414
  187SAPI   H8Y21542   4.876   3.148   7.847 -0.8068  2.0756 -1.3647
  187SAPI   C3921543   4.694   3.037   7.879 -0.3374 -0.2211 -0.1711
  187SAPI   H9X21544   4.740   2.942   7.913  2.0855  0.7555 -0.4583
  187SAPI   H9Y21545   4.603   3.017   7.819 -0.7507  1.0808 -0.0101
  187SAPI  C31021546   4.685   3.130   8.003  0.2714  0.4807 -0.4103
  187SAPI  H10X21547   4.640   3.226   7.970 -0.8023 -0.6555 -2.4305
  187SAPI  H10Y21548   4.783   3.153   8.050 -0.1286  0.3493  0.5229
  187SAPI  C31121549   4.608   3.063   8.114  0.3037  0.0165 -0.5551
  187SAPI  H11X21550   4.672   2.977   8.144 -0.8050 -0.1010  1.6666
  187SAPI  H11Y21551   4.515   3.015   8.076  0.9881 -1.5090 -0.3907
  187SAPI  C31221552   4.573   3.148   8.234 -0.0556  0.1762  0.0750
  187SAPI  H12X21553   4.515   3.238   8.202 -1.7555 -1.4706 -1.7483
  187SAPI  H12Y21554   4.667   3.181   8.283  0.9066 -1.1715 -0.7999
  187SAPI  C31321555   4.478   3.092   8.341  0.0095  0.6052 -0.1606
  187SAPI  H13X21556   4.384   3.037   8.317 -0.1144  0.8695 -0.2912
  187SAPI  H13Y21557   4.437   3.171   8.408  0.7105  0.2705  0.6854
  187SAPI  C31421558   4.553   2.993   8.434  0.6488  0.5099 -0.0606
  187SAPI  H14X21559   4.662   3.011   8.431  1.2385 -2.3915  0.7531
  187SAPI  H14Y21560   4.538   2.893   8.390  3.7084  1.1367 -2.8908
  187SAPI  C31521561   4.500   2.986   8.576  0.0008  0.3169  0.2664
  187SAPI  H15X21562   4.397   2.947   8.562  0.0265  0.4587 -0.3490
  187SAPI  H15Y21563   4.500   3.091   8.611 -0.1647  0.8082 -1.1310
  187SAPI  C31621564   4.579   2.895   8.666  0.2738  0.3144  0.0462
  187SAPI  H16X21565   4.535   2.890   8.768  0.1460  0.2192 -0.0129
  187SAPI  H16Y21566   4.677   2.944   8.680  1.1817 -1.2803 -0.5114
  187SAPI  C31721567   4.589   2.744   8.626  0.1683 -0.9616  0.1344
  187SAPI  H17X21568   4.651   2.694   8.703  0.0970 -1.4948 -0.1522
  187SAPI  H17Y21569   4.633   2.726   8.526  1.9966 -2.2940  1.1114
  187SAPI  C31821570   4.447   2.678   8.635  0.3222 -1.0499  0.1609
  187SAPI  H18X21571   4.408   2.680   8.739 -2.8822  3.0248 -0.8513
  187SAPI  H18Y21572   4.430   2.570   8.611 -0.0845 -1.9480  3.7886
  187SAPI  H18Z21573   4.370   2.736   8.580  0.4334 -1.5425 -0.5357
  188SAPI   C1221574   6.316   6.025   6.313 -0.6253  0.4490 -0.1597
  188SAPI    H221575   6.360   6.067   6.406 -0.8433 -0.9806  0.6198
  188SAPI    O221576   6.194   6.095   6.295  0.5165 -0.5158  0.3224
  188SAPI   HO221577   6.157   6.129   6.377 -1.0897  1.0467 -0.9619
  188SAPI   C1321578   6.407   6.057   6.196 -0.0332 -0.4864  0.4321
  188SAPI    H321579   6.506   6.016   6.226 -1.0338 -1.9517  1.9853
  188SAPI    O321580   6.429   6.203   6.183 -0.4514  0.1639  0.1543
  188SAPI   HO321581   6.440   6.219   6.089  0.8104 -0.6537  0.1345
  188SAPI   C1421582   6.354   5.996   6.073 -0.4762  0.4286  0.3893
  188SAPI    H421583   6.252   6.031   6.048 -1.5308 -2.9192 -0.5736
  188SAPI    O421584   6.437   6.029   5.962  0.4826 -0.4803  0.0943
  188SAPI   HO421585   6.376   6.071   5.901 -1.4728 -1.6582  1.1372
  188SAPI   C1521586   6.336   5.842   6.089  0.4330  0.0815  0.6828
  188SAPI    H521587   6.438   5.804   6.108  0.6319  0.2730  0.0194
  188SAPI    O521588   6.283   5.787   5.965  0.2193  0.2518 -0.6148
  188SAPI   HO521589   6.350   5.789   5.897  3.0548  0.8605  1.9718
  188SAPI   C1621590   6.244   5.816   6.207  0.0656  0.2703  0.1647
  188SAPI    H621591   6.142   5.853   6.184  0.7204  1.5281 -0.8469
  188SAPI    O621592   6.235   5.675   6.227 -0.1502  0.5128  0.2422
  188SAPI   HO621593   6.175   5.670   6.302  0.3532 -0.3877  0.6013
  188SAPI   C1121594   6.296   5.876   6.333 -0.2267  0.4548  0.0144
  188SAPI    H121595   6.402   5.848   6.349  0.5853  2.3276 -1.6780
  188SAPI     P21596   6.250   5.861   6.594 -0.5923 -0.2243  0.2615
  188SAPI   O1321597   6.142   5.910   6.686 -0.0304 -0.3251  0.1020
  188SAPI   O1421598   6.378   5.936   6.601  1.3580 -0.4142  0.3344
  188SAPI   O1221599   6.197   5.853   6.439 -0.4624  0.0154 -0.3424
  188SAPI   O1121600   6.280   5.708   6.633  0.1260  0.9622 -0.2057
  188SAPI    C121601   6.382   5.641   6.564 -0.5298  0.3842 -0.6335
  188SAPI    HA21602   6.337   5.610   6.467 -1.9560 -0.3035  0.2100
  188SAPI    HB21603   6.473   5.704   6.558 -1.4167  1.7332 -0.4043
  188SAPI    C221604   6.421   5.519   6.650 -0.7260 -0.4281  0.1896
  188SAPI    HS21605   6.328   5.459   6.659 -0.8082 -0.9364 -2.7700
  188SAPI   O2121606   6.477   5.552   6.775  0.6085 -0.5024 -0.1784
  188SAPI   C2121607   6.414   5.519   6.889 -0.2477 -0.5184  0.3884
  188SAPI   O2221608   6.306   5.455   6.900  0.2992 -0.1166 -0.1738
  188SAPI   C2221609   6.499   5.571   7.007 -0.1969  0.7487  0.4429
  188SAPI   H2R21610   6.597   5.522   6.990 -0.7679 -1.0940  2.1727
  188SAPI   H2S21611   6.506   5.682   7.007  0.9442  0.6960  0.9110
  188SAPI    C321612   6.522   5.437   6.554 -0.1240  0.5237 -0.2552
  188SAPI    HX21613   6.619   5.490   6.565  0.0160  0.3879 -0.8432
  188SAPI    HY21614   6.493   5.440   6.447  0.4506 -0.0971 -0.4350
  188SAPI   O3121615   6.540   5.297   6.609 -0.4275 -0.1882 -0.0209
  188SAPI   C3121616   6.435   5.222   6.583 -0.4032 -0.0424  0.4578
  188SAPI   O3221617   6.346   5.258   6.505  0.1980  0.0123 -0.3000
  188SAPI   C3221618   6.459   5.081   6.634 -0.4035 -0.3441  0.0534
  188SAPI   H2X21619   6.545   5.088   6.703 -0.6074 -0.0003  0.2790
  188SAPI   H2Y21620   6.492   5.020   6.548  3.0626  2.1882 -0.6429
  188SAPI   C2321621   6.436   5.525   7.145  0.0446  0.0585  0.0088
  188SAPI   H3R21622   6.472   5.420   7.154  1.1279  0.4677  0.6367
  188SAPI   H3S21623   6.326   5.511   7.141  0.0393 -0.6019  1.8423
  188SAPI   C2421624   6.487   5.608   7.268  0.1640 -0.1816 -0.2210
  188SAPI   H4R21625   6.439   5.708   7.266  2.1555  0.8243 -1.0439
  188SAPI   H4S21626   6.594   5.639   7.266  0.3781 -0.9070 -0.3094
  188SAPI   C2521627   6.446   5.540   7.402  0.0054 -0.0549  0.4315
  188SAPI   H5R21628   6.343   5.505   7.416 -0.7188  0.5323 -2.7317
  188SAPI   C2621629   6.536   5.528   7.507 -0.4867  0.4964  0.3310
  188SAPI   H6R21630   6.507   5.491   7.606 -2.2012  0.2993 -0.2123
  188SAPI   C2721631   6.680   5.591   7.511  0.6934 -0.4781  0.1544
  188SAPI   H7R21632   6.666   5.692   7.554 -1.0087 -1.0490  1.0602
  188SAPI   H7S21633   6.720   5.593   7.408  0.1794 -5.0219 -0.3697
  188SAPI   C2821634   6.782   5.525   7.593  1.1343  0.2795  0.2794
  188SAPI   H8R21635   6.855   5.460   7.542  1.8341  0.4754  1.0233
  188SAPI   C2921636   6.799   5.542   7.723 -0.8210 -0.4688 -0.1726
  188SAPI   H9R21637   6.874   5.485   7.779  0.8470  1.7765  0.0205
  188SAPI  C21021638   6.707   5.621   7.822 -0.0951  0.3235  0.1189
  188SAPI  H10R21639   6.635   5.689   7.771  0.0596 -0.4176 -1.1350
  188SAPI  H10S21640   6.761   5.686   7.893  1.1213  0.6489 -1.0621
  188SAPI  C21121641   6.624   5.529   7.908 -0.2278  0.7877  0.1892
  188SAPI  H11R21642   6.584   5.434   7.870  2.2700 -0.6161  0.8929
  188SAPI  C21221643   6.610   5.528   8.042  0.4973 -1.1295  1.0734
  188SAPI  H12R21644   6.539   5.451   8.075  0.4213 -2.1863 -1.3107
  188SAPI  C21321645   6.664   5.628   8.149 -1.3331  0.8854 -0.0119
  188SAPI  H13R21646   6.585   5.663   8.219  1.3921  1.3478  3.1375
  188SAPI  H13S21647   6.687   5.722   8.095  0.2334 -0.9416 -2.8076
  188SAPI  C21421648   6.790   5.564   8.210 -0.2237  0.3530  0.5588
  188SAPI  H14R21649   6.859   5.517   8.138 -1.4624  1.0793 -1.1721
  188SAPI  C21521650   6.831   5.559   8.338 -0.1912  0.7345  0.0926
  188SAPI  H15R21651   6.926   5.514   8.371 -0.5859  1.1082  1.8407
  188SAPI  C21621652   6.756   5.625   8.457  0.2541 -0.0423  0.2922
  188SAPI  H16R21653   6.647   5.610   8.447 -0.1866  2.4097  0.9109
  188SAPI  H16S21654   6.784   5.731   8.471 -0.2645  0.4538 -1.9423
  188SAPI  C21721655   6.788   5.553   8.588  0.4795  0.3324 -0.4718
  188SAPI  H17R21656   6.889   5.582   8.625  0.5366 -0.1037 -0.2795
  188SAPI  H17S21657   6.792   5.446   8.560 -0.4283  0.3705 -0.7856
  188SAPI  C21821658   6.670   5.558   8.691  0.2444  0.3996  0.0952
  188SAPI  H18R21659   6.698   5.524   8.793 -1.0455 -1.2248 -0.0411
  188SAPI  H18S21660   6.596   5.482   8.657  3.2178 -2.2899 -0.9254
  188SAPI  C21921661   6.599   5.698   8.704 -0.1104  0.1627 -0.4264
  188SAPI  H19R21662   6.518   5.679   8.778 -0.9193  1.0859 -1.0467
  188SAPI  H19S21663   6.548   5.729   8.610 -0.6538 -0.4536 -0.3433
  188SAPI  C22021664   6.684   5.807   8.755  0.6541 -0.0092  0.5351
  188SAPI  H20R21665   6.770   5.829   8.689  0.4401 -0.1990  0.1913
  188SAPI  H20S21666   6.733   5.776   8.850  0.0148 -0.8520  0.6022
  188SAPI  H20T21667   6.629   5.901   8.773 -1.1596 -1.0718  0.8352
  188SAPI   C3321668   6.335   5.016   6.710  0.4742  0.3227  0.6326
  188SAPI   H3X21669   6.360   4.911   6.732  2.9326  0.1298 -2.4417
  188SAPI   H3Y21670   6.251   5.007   6.637  1.8661  0.7164 -1.0897
  188SAPI   C3421671   6.298   5.098   6.833 -0.0868  0.0929 -0.5482
  188SAPI   H4X21672   6.204   5.051   6.870  0.5944 -1.3872 -0.6072
  188SAPI   H4Y21673   6.265   5.201   6.809 -0.4207  0.4090  1.1331
  188SAPI   C3521674   6.409   5.105   6.944  0.5433 -0.3657 -0.5901
  188SAPI   H5X21675   6.477   5.189   6.919  0.7906 -0.2379  0.4544
  188SAPI   H5Y21676   6.460   5.006   6.935  3.5742  0.8315  1.5279
  188SAPI   C3621677   6.363   5.125   7.086 -0.1428  0.2903  0.0362
  188SAPI   H6X21678   6.274   5.062   7.107 -0.7477  0.4458 -1.8344
  188SAPI   H6Y21679   6.330   5.230   7.101 -1.5532 -0.2827  1.1582
  188SAPI   C3721680   6.468   5.094   7.189 -0.6412  0.8315 -0.5535
  188SAPI   H7X21681   6.557   5.159   7.170 -1.4216  1.4989 -2.1175
  188SAPI   H7Y21682   6.507   4.990   7.200  0.7903  1.6255  4.2875
  188SAPI   C3821683   6.410   5.119   7.332  0.2715 -0.4045  0.3424
  188SAPI   H8X21684   6.325   5.050   7.350 -0.2446  0.2886  0.6553
  188SAPI   H8Y21685   6.377   5.225   7.335  1.7537  0.0969 -0.1223
  188SAPI   C3921686   6.517   5.100   7.435  0.6513  0.2139 -0.0703
  188SAPI   H9X21687   6.589   5.184   7.438 -0.3533  1.1415 -0.9207
  188SAPI   H9Y21688   6.584   5.016   7.406 -0.6826 -0.4679 -1.3219
  188SAPI  C31021689   6.452   5.087   7.575 -0.2475 -0.1215  0.0740
  188SAPI  H10X21690   6.411   4.985   7.593  0.2774 -0.2964  0.2813
  188SAPI  H10Y21691   6.376   5.165   7.594 -1.7635 -1.4503 -0.2807
  188SAPI  C31121692   6.570   5.107   7.669 -0.5062  0.3699  0.1331
  188SAPI  H11X21693   6.626   5.199   7.641 -0.3970  0.3944  0.4295
  188SAPI  H11Y21694   6.638   5.019   7.668 -1.4501 -0.3781 -0.4858
  188SAPI  C31221695   6.532   5.119   7.820  0.1929  0.0735 -0.2514
  188SAPI  H12X21696   6.440   5.057   7.833 -0.3288  0.6880 -0.9106
  188SAPI  H12Y21697   6.500   5.221   7.851  1.2202  1.0684 -2.3163
  188SAPI  C31321698   6.644   5.088   7.921 -0.0468  0.6017  0.2112
  188SAPI  H13X21699   6.742   5.130   7.888  0.6648 -1.2179 -0.1363
  188SAPI  H13Y21700   6.672   4.981   7.912  1.1018  0.9517 -0.7129
  188SAPI  C31421701   6.598   5.118   8.060 -0.1205  0.0241  0.3941
  188SAPI  H14X21702   6.521   5.042   8.085  0.7923 -1.1883 -0.4243
  188SAPI  H14Y21703   6.558   5.222   8.064  0.1900  0.2479 -1.4085
  188SAPI  C31521704   6.711   5.100   8.162  0.0591  0.1657 -0.4127
  188SAPI  H15X21705   6.797   5.162   8.128  0.4252  0.1583  0.4672
  188SAPI  H15Y21706   6.750   4.997   8.145 -0.3571  0.1952 -1.6663
  188SAPI  C31621707   6.655   5.112   8.302  0.7611 -0.3792 -0.1118
  188SAPI  H16X21708   6.591   5.022   8.315  0.8453 -1.0616 -3.5748
  188SAPI  H16Y21709   6.589   5.202   8.304  0.0613 -0.8796 -0.1799
  188SAPI  C31721710   6.758   5.133   8.408 -0.6253 -0.6032  0.4656
  188SAPI  H17X21711   6.826   5.209   8.364 -0.1540 -1.1262  0.2657
  188SAPI  H17Y21712   6.816   5.038   8.414 -2.9827 -2.2828 -1.3835
  188SAPI  C31821713   6.700   5.181   8.538  0.0997 -0.7173  0.3545
  188SAPI  H18X21714   6.652   5.279   8.523  1.2229 -0.6511 -4.0458
  188SAPI  H18Y21715   6.777   5.194   8.617  1.9202 -2.1056 -1.0842
  188SAPI  H18Z21716   6.627   5.113   8.588  1.6597 -1.9123  1.1341
  189POPC     N21717   5.694   0.902  10.835  0.1625 -0.6398 -0.2512
  189POPC   C1221718   5.565   0.977  10.878 -0.8659  0.7424  0.2893
  189POPC  H12A21719   5.536   0.943  10.976  0.4602  1.6352  1.0213
  189POPC  H12B21720   5.489   0.947  10.807  1.1118  0.1303 -1.6774
  189POPC   C1321721   5.693   0.755  10.863  0.4838 -0.0152 -0.2484
  189POPC  H13A21722   5.786   0.704  10.845  0.0634 -0.5407 -0.9820
  189POPC  H13B21723   5.675   0.729  10.967 -0.0451 -2.1209 -0.8278
  189POPC  H13C21724   5.614   0.702  10.813 -0.3190 -1.4419  2.3162
  189POPC   C1421725   5.725   0.929  10.693 -0.4873  0.2906  0.2805
  189POPC  H14A21726   5.801   0.863  10.655  1.1267  0.5199  2.8817
  189POPC  H14B21727   5.644   0.894  10.631 -0.3462 -0.7719  0.6803
  189POPC  H14C21728   5.763   1.029  10.673  0.7245  0.2038  1.9546
  189POPC   C1521729   5.810   0.961  10.911  0.1111  1.3059  0.3274
  189POPC  H15A21730   5.816   1.068  10.898  0.3476  1.5823  2.4162
  189POPC  H15B21731   5.900   0.904  10.893 -1.4953 -1.5266  0.7095
  189POPC  H15C21732   5.807   0.942  11.017  0.8241 -2.3512 -0.1611
  189POPC   C1121733   5.577   1.131  10.871  0.3497 -0.4193 -0.2984
  189POPC  H11A21734   5.474   1.167  10.890  0.2992 -0.6894 -0.0615
  189POPC  H11B21735   5.604   1.163  10.768  1.3933 -0.4747 -0.0517
  189POPC     P21736   5.727   1.336  10.932 -0.0231  0.0425  0.4281
  189POPC   O1321737   5.813   1.376  11.042  0.1159  0.0500 -0.9499
  189POPC   O1421738   5.611   1.428  10.902 -0.1902  0.4229 -0.2824
  189POPC   O1221739   5.664   1.201  10.969  0.3095  0.9325  0.6559
  189POPC   O1121740   5.812   1.302  10.800  0.1973  0.3620 -0.1734
  189POPC    C121741   5.875   1.414  10.742  0.2146 -0.1342 -0.9069
  189POPC    HA21742   5.953   1.461  10.807 -1.1520  1.3248 -0.2412
  189POPC    HB21743   5.809   1.500  10.716 -1.2541 -0.8285  0.3634
  189POPC    C221744   5.967   1.367  10.620 -0.1268 -0.4136  0.4337
  189POPC    HS21745   6.046   1.441  10.597  0.4352 -0.6527  1.5242
  189POPC   O2121746   5.881   1.364  10.500 -0.2566  0.1981  0.6521
  189POPC   C2121747   5.937   1.383  10.378 -0.9389  0.1345  0.6940
  189POPC   O2221748   6.054   1.407  10.361  0.1255 -0.1499  0.0490
  189POPC   C2221749   5.821   1.385  10.271 -0.1976  0.7054  0.4516
  189POPC   H2R21750   5.831   1.467  10.196  0.4769 -1.0880 -1.5304
  189POPC   H2S21751   5.737   1.403  10.341 -0.1290 -2.4977  1.5203
  189POPC    C321752   6.037   1.232  10.648  0.2488  0.2258 -0.7222
  189POPC    HX21753   5.953   1.159  10.655  0.2685  0.1851 -0.9221
  189POPC    HY21754   6.086   1.208  10.745  2.2207  0.1800 -1.6785
  189POPC   O3121755   6.124   1.198  10.538 -0.6056 -0.1675 -0.3401
  189POPC   C3121756   6.247   1.248  10.541  0.0093 -0.1623  0.1978
  189POPC   O3221757   6.289   1.319  10.630 -0.3768 -0.6803  0.4685
  189POPC   C3221758   6.323   1.205  10.418 -0.2217  0.7481  0.2259
  189POPC   H2X21759   6.292   1.281  10.343 -1.0739  2.0671  1.8340
  189POPC   H2Y21760   6.293   1.105  10.381 -1.0926  1.2148 -0.3825
  189POPC   C2321761   5.795   1.249  10.203 -0.1458 -0.0610 -0.4432
  189POPC   H3R21762   5.686   1.227  10.210 -0.1130 -0.5884 -1.4046
  189POPC   H3S21763   5.849   1.172  10.261 -1.5594  0.4758  1.6873
  189POPC   C2421764   5.835   1.238  10.057 -0.4160  0.0328  0.1048
  189POPC   H4R21765   5.945   1.229  10.050 -0.3911  0.4760 -0.0961
  189POPC   H4S21766   5.798   1.334  10.015  0.1169  0.6228  0.9483
  189POPC   C2521767   5.778   1.112   9.991  0.3404  0.2101  0.0896
  189POPC   H5R21768   5.669   1.091   9.994  0.7663 -2.3273 -0.0382
  189POPC   H5S21769   5.815   1.025  10.048 -1.6613  0.6079  2.1356
  189POPC   C2621770   5.816   1.088   9.843 -0.1794  0.1833  0.7517
  189POPC   H6R21771   5.788   0.985   9.814 -0.6542  0.1960  1.1482
  189POPC   H6S21772   5.926   1.099   9.831 -0.4287  0.3271 -1.9688
  189POPC   C2721773   5.738   1.187   9.752 -0.4366 -0.2171  0.5276
  189POPC   H7R21774   5.792   1.283   9.761 -0.2241 -0.2483 -0.3623
  189POPC   H7S21775   5.639   1.212   9.796 -0.5727  1.2516 -0.5669
  189POPC   C2821776   5.738   1.148   9.607  0.4688 -0.3763  0.1778
  189POPC   H8R21777   5.837   1.129   9.561  0.6692 -2.3978  1.3315
  189POPC   H8S21778   5.700   1.241   9.559  2.8692  2.0439  2.6405
  189POPC   C2921779   5.645   1.033   9.579  0.5577 -0.0671 -0.3240
  189POPC   H9121780   5.540   1.049   9.609  1.2690  1.2352  1.6437
  189POPC  C21021781   5.678   0.918   9.516 -0.4828  0.3893 -1.2122
  189POPC  H10121782   5.608   0.833   9.506  0.6459 -0.8013  0.3805
  189POPC  C21121783   5.819   0.879   9.469  0.2778  0.6909 -0.3647
  189POPC  H11R21784   5.833   0.769   9.459  0.1159  0.7173 -0.8834
  189POPC  H11S21785   5.895   0.916   9.542 -2.7592  3.2843  1.7685
  189POPC  C21221786   5.851   0.945   9.330 -0.9657 -0.1407  0.2617
  189POPC  H12R21787   5.962   0.939   9.321 -1.1104 -1.7425 -0.7798
  189POPC  H12S21788   5.827   1.053   9.314  0.4773 -0.1870 -3.0734
  189POPC  C21321789   5.779   0.875   9.220  0.8895 -0.4701  0.0762
  189POPC  H13R21790   5.670   0.897   9.232  1.4820  1.8077  1.9858
  189POPC  H13S21791   5.780   0.765   9.238 -1.4412 -0.3142  1.5849
  189POPC  C21421792   5.823   0.909   9.076  0.8527 -0.3850 -1.0022
  189POPC  H14R21793   5.920   0.859   9.056 -0.7331 -3.8717 -0.6851
  189POPC  H14S21794   5.842   1.016   9.054 -3.5488  0.1595 -3.2631
  189POPC  C21521795   5.723   0.859   8.966 -0.5198 -0.3498 -0.1096
  189POPC  H15R21796   5.627   0.913   8.983 -0.8273 -1.8681  3.8269
  189POPC  H15S21797   5.699   0.751   8.978  1.1840 -0.5583  1.8319
  189POPC  C21621798   5.784   0.879   8.823  0.5593 -0.5789 -0.1085
  189POPC  H16R21799   5.855   0.795   8.809  0.5695 -0.7561  0.9396
  189POPC  H16S21800   5.838   0.976   8.819 -3.3791  1.8982  0.9348
  189POPC  C21721801   5.673   0.852   8.718  0.2751 -0.0150  0.0556
  189POPC  H17R21802   5.577   0.902   8.740  0.4768  0.0824  0.7305
  189POPC  H17S21803   5.655   0.742   8.715 -2.4966  0.3818 -1.3250
  189POPC  C21821804   5.714   0.900   8.583  0.6914  0.9510  0.0202
  189POPC  H18R21805   5.787   0.827   8.543 -0.3020  0.3889 -0.7916
  189POPC  H18S21806   5.764   1.000   8.589  1.4100  0.5711  0.5599
  189POPC  H18T21807   5.624   0.919   8.521 -0.5675 -0.1183  1.4625
  189POPC   C3321808   6.476   1.203  10.448 -0.3308  1.1001 -0.7739
  189POPC   H3X21809   6.487   1.138  10.537 -0.5215 -0.3794 -1.7758
  189POPC   H3Y21810   6.506   1.306  10.475 -0.7571  0.8532  0.7184
  189POPC   C3421811   6.553   1.135  10.330  0.4467 -0.1985 -0.2482
  189POPC   H4X21812   6.507   1.035  10.313  1.1203 -0.0284 -3.8989
  189POPC   H4Y21813   6.653   1.111  10.370  0.7573  1.9335  0.3638
  189POPC   C3521814   6.556   1.216  10.201  0.0615 -0.3764 -0.7636
  189POPC   H5X21815   6.607   1.315  10.191  1.3285 -1.1715 -2.8660
  189POPC   H5Y21816   6.448   1.224  10.176 -0.5917  0.4990  1.9429
  189POPC   C3621817   6.626   1.131  10.089 -0.1149 -0.1322  0.3200
  189POPC   H6X21818   6.575   1.033  10.078 -0.4999  0.2064 -1.0740
  189POPC   H6Y21819   6.726   1.113  10.134 -0.9448  0.1522  2.4204
  189POPC   C3721820   6.643   1.208   9.961 -0.5127  0.1494 -0.1981
  189POPC   H7X21821   6.712   1.295   9.967 -1.2157  0.8173 -1.3921
  189POPC   H7Y21822   6.540   1.238   9.931 -1.4635 -0.1228  2.4938
  189POPC   C3821823   6.690   1.111   9.856 -0.4886  0.0280  0.3472
  189POPC   H8X21824   6.613   1.031   9.851  1.1610 -1.6091 -0.1065
  189POPC   H8Y21825   6.792   1.073   9.876 -0.8687 -1.5003 -0.4968
  189POPC   C3921826   6.678   1.179   9.713 -1.4415  0.0113  0.0916
  189POPC   H9X21827   6.745   1.267   9.707 -0.1730 -0.9766 -1.1579
  189POPC   H9Y21828   6.571   1.207   9.708 -2.2675 -2.7675  0.3943
  189POPC  C31021829   6.730   1.094   9.599 -0.4646  0.5091 -0.7407
  189POPC  H10X21830   6.658   1.013   9.578  0.0251  0.4472 -2.3105
  189POPC  H10Y21831   6.825   1.043   9.627 -0.6355  0.0738 -0.9574
  189POPC  C31121832   6.732   1.160   9.463  0.2160  0.0240  0.4865
  189POPC  H11X21833   6.828   1.210   9.436  0.1058 -0.4441 -0.8252
  189POPC  H11Y21834   6.646   1.230   9.460 -2.6276 -3.1770  1.3002
  189POPC  C31221835   6.725   1.055   9.349 -0.0509  0.1205 -0.1723
  189POPC  H12X21836   6.632   0.997   9.367  0.8388 -0.6616  2.4273
  189POPC  H12Y21837   6.812   0.990   9.372 -1.2214 -2.3492 -2.2626
  189POPC  C31321838   6.734   1.104   9.207  0.7678 -0.0711 -0.3797
  189POPC  H13X21839   6.792   1.199   9.205 -3.1996  2.6260 -0.0295
  189POPC  H13Y21840   6.630   1.127   9.174  0.3761  0.2697  1.0327
  189POPC  C31421841   6.810   0.993   9.132 -0.1255  1.0732 -0.4019
  189POPC  H14X21842   6.742   0.905   9.125 -0.5828  1.4953 -1.5671
  189POPC  H14Y21843   6.888   0.957   9.201 -0.4970  0.3687 -0.3462
  189POPC  C31521844   6.842   1.030   8.992  0.1796 -0.6070  0.6942
  189POPC  H15X21845   6.894   1.128   8.996  2.1600 -1.4765 -1.4913
  189POPC  H15Y21846   6.740   1.037   8.947 -0.2866  0.1559  1.8187
  189POPC  C31621847   6.932   0.934   8.923  0.6524  0.1285  0.3227
  189POPC  H16X21848   6.916   0.972   8.820  0.4395  0.7213  0.5736
  189POPC  H16Y21849   6.889   0.834   8.947 -1.4679  0.6694 -0.9579
  189POPC  H16Z21850   7.039   0.949   8.947  0.5927  1.5942 -0.2615
  190POPC     N21851   0.973   5.582  11.167 -0.1622  0.3030  0.7190
  190POPC   C1221852   0.993   5.433  11.144  0.0363 -0.1078 -0.6082
  190POPC  H12A21853   1.098   5.407  11.150 -0.3785 -1.5054  1.9616
  190POPC  H12B21854   0.973   5.406  11.041  2.2929 -0.9919 -0.8893
  190POPC   C1321855   1.020   5.631  11.298  0.1793 -0.4693 -0.1502
  190POPC  H13A21856   0.960   5.574  11.368 -1.8988 -0.4638 -1.8182
  190POPC  H13B21857   1.128   5.622  11.299  0.1213 -2.6395 -2.5439
  190POPC  H13C21858   0.993   5.733  11.319  1.8699  0.0987 -0.5784
  190POPC   C1421859   1.049   5.654  11.068 -0.0128 -0.4234 -0.6728
  190POPC  H14A21860   1.028   5.760  11.071 -1.9933 -0.7131 -2.3785
  190POPC  H14B21861   1.152   5.634  11.092  0.0217 -1.2518 -1.4465
  190POPC  H14C21862   1.024   5.613  10.971  1.3528 -0.8961 -0.8495
  190POPC   C1521863   0.820   5.606  11.162  0.2427  0.3732  1.4369
  190POPC  H15A21864   0.791   5.700  11.207 -0.1248  0.1085  1.7628
  190POPC  H15B21865   0.775   5.534  11.229 -0.5040  1.8066  2.5180
  190POPC  H15C21866   0.790   5.598  11.059  1.6780  0.3989  0.9848
  190POPC   C1121867   0.927   5.331  11.235 -0.6613 -0.1561  1.1849
  190POPC  H11A21868   0.937   5.364  11.341 -1.5735 -0.7892  1.4781
  190POPC  H11B21869   0.987   5.238  11.241  1.3703  1.0070  0.1014
  190POPC     P21870   0.765   5.249  11.056  0.3870 -0.3886 -0.4677
  190POPC   O1321871   0.803   5.344  10.955  0.1341 -0.2462  0.4281
  190POPC   O1421872   0.621   5.210  11.049 -0.4312  0.4060  0.2220
  190POPC   O1221873   0.795   5.317  11.200 -0.0542  0.2727 -0.4985
  190POPC   O1121874   0.851   5.117  11.074  0.4988 -0.1405 -0.0940
  190POPC    C121875   0.982   5.105  11.000 -0.1124  0.3859  0.8632
  190POPC    HA21876   1.023   5.011  11.041 -0.4743  0.0279  0.4103
  190POPC    HB21877   1.055   5.185  11.027 -0.4324  0.8515  0.3762
  190POPC    C221878   0.967   5.086  10.846 -0.9784  0.3286  0.4966
  190POPC    HS21879   0.942   5.186  10.804 -1.5879  0.3238  0.8324
  190POPC   O2121880   0.879   4.977  10.817  0.2576  0.1871  0.2946
  190POPC   C2121881   0.806   4.998  10.702  0.5049 -0.1263 -0.0178
  190POPC   O2221882   0.797   5.103  10.647 -0.0418 -0.5465  0.5251
  190POPC   C2221883   0.731   4.864  10.676 -0.0777 -0.1229  0.0491
  190POPC   H2R21884   0.713   4.809  10.770 -0.9121 -1.3081 -0.7756
  190POPC   H2S21885   0.802   4.804  10.614  0.3810  1.8559 -1.4612
  190POPC    C321886   1.103   5.054  10.787 -0.2878  1.1280  0.2362
  190POPC    HX21887   1.127   4.948  10.810  2.0595  1.5220 -0.1182
  190POPC    HY21888   1.178   5.120  10.836 -1.0889  2.6144 -0.4395
  190POPC   O3121889   1.120   5.067  10.645  0.3258 -0.1660  0.1847
  190POPC   C3121890   1.143   5.190  10.589  0.6088  0.0819  0.7163
  190POPC   O3221891   1.167   5.290  10.649  0.0234 -0.4848  0.0732
  190POPC   C3221892   1.142   5.169  10.438 -0.3011  0.6181 -0.1554
  190POPC   H2X21893   1.199   5.076  10.417 -0.6223  0.1859  0.8290
  190POPC   H2Y21894   1.191   5.253  10.384  0.0612  1.7036  1.7820
  190POPC   C2321895   0.598   4.881  10.589 -0.3978  0.2726 -1.0310
  190POPC   H3R21896   0.536   4.966  10.624  0.5743  1.0772 -1.2095
  190POPC   H3S21897   0.543   4.785  10.595 -0.2731  0.2447 -0.1361
  190POPC   C2421898   0.641   4.919  10.453  0.3190  0.4743 -0.5412
  190POPC   H4R21899   0.723   4.861  10.405  0.0587 -0.4631  0.1173
  190POPC   H4S21900   0.666   5.027  10.457 -0.4770  0.6621  4.0373
  190POPC   C2521901   0.528   4.901  10.345 -0.1647  0.3153  0.1801
  190POPC   H5R21902   0.434   4.931  10.397  0.5933  1.5196  0.8881
  190POPC   H5S21903   0.516   4.793  10.319 -2.4933  0.7934 -1.0327
  190POPC   C2621904   0.530   4.979  10.221  0.0310  0.0825  0.6461
  190POPC   H6R21905   0.629   4.959  10.175 -1.0964 -0.1829 -1.8018
  190POPC   H6S21906   0.502   5.086  10.235  0.6217  0.0493  2.2902
  190POPC   C2721907   0.436   4.936  10.108  0.6534  0.0583  0.2227
  190POPC   H7R21908   0.331   4.917  10.140 -0.1741  0.6269 -1.9637
  190POPC   H7S21909   0.480   4.840  10.072 -1.5909 -1.2548  0.7903
  190POPC   C2821910   0.422   5.039   9.992 -0.9407  0.0392  0.3488
  190POPC   H8R21911   0.376   5.133  10.028 -1.0693 -0.2822  1.0571
  190POPC   H8S21912   0.355   4.995   9.915 -0.0088 -1.0914  0.1550
  190POPC   C2921913   0.561   5.054   9.930  0.1551 -0.1360  0.4397
  190POPC   H9121914   0.646   5.060  10.001  0.4733  0.4026  0.0202
  190POPC  C21021915   0.590   5.058   9.799 -0.2495  0.0367 -0.1959
  190POPC  H10121916   0.693   5.070   9.762  0.2207 -0.2029  0.9782
  190POPC  C21121917   0.496   5.033   9.686 -0.3486 -0.0776  0.5782
  190POPC  H11R21918   0.398   5.085   9.684 -2.4674 -3.6879 -0.7348
  190POPC  H11S21919   0.457   4.929   9.687  0.2072 -0.3745 -1.8796
  190POPC  C21221920   0.561   5.038   9.541 -0.1229  0.5077  0.2045
  190POPC  H12R21921   0.483   4.995   9.475  0.2372 -2.8657  1.7668
  190POPC  H12S21922   0.657   4.982   9.540 -0.4400 -0.0395 -0.9643
  190POPC  C21321923   0.599   5.183   9.501  0.3291  0.0422 -0.0683
  190POPC  H13R21924   0.676   5.218   9.573 -0.5713 -0.6655  1.2726
  190POPC  H13S21925   0.521   5.262   9.502 -0.8673 -1.1110 -0.2597
  190POPC  C21421926   0.682   5.205   9.369 -0.0389  0.1051 -0.4164
  190POPC  H14R21927   0.759   5.125   9.358 -0.2405 -0.1792  0.1607
  190POPC  H14S21928   0.748   5.289   9.399 -1.1784  0.4447  1.3055
  190POPC  C21521929   0.613   5.226   9.239 -0.9711  0.2262 -0.6456
  190POPC  H15R21930   0.531   5.297   9.265 -2.6114 -0.8162 -2.6488
  190POPC  H15S21931   0.576   5.124   9.214  1.0980 -0.6017 -0.4812
  190POPC  C21621932   0.701   5.277   9.129 -0.7165  0.1245 -0.5182
  190POPC  H16R21933   0.789   5.220   9.092  0.4236  1.9801 -0.7886
  190POPC  H16S21934   0.761   5.361   9.172 -1.2068  0.4373 -0.4340
  190POPC  C21721935   0.627   5.329   9.008  0.5891 -0.3219 -0.0074
  190POPC  H17R21936   0.561   5.414   9.036  0.9152  0.0434 -0.3191
  190POPC  H17S21937   0.569   5.245   8.965 -0.7324  0.9552 -0.8213
  190POPC  C21821938   0.734   5.382   8.910 -0.0118 -0.5295  0.1706
  190POPC  H18R21939   0.806   5.454   8.955  1.1486 -1.1110 -0.7083
  190POPC  H18S21940   0.675   5.444   8.839 -1.6081 -0.8959  1.1268
  190POPC  H18T21941   0.792   5.309   8.851 -0.3009 -0.4846 -0.1714
  190POPC   C3321942   1.001   5.169  10.378 -0.0300 -0.0769  0.1225
  190POPC   H3X21943   0.933   5.109  10.442 -0.0064  0.7176  0.8999
  190POPC   H3Y21944   1.007   5.122  10.277  0.9306  2.0926 -0.8896
  190POPC   C3421945   0.946   5.312  10.361  0.3541  0.4086  0.4723
  190POPC   H4X21946   1.017   5.375  10.303 -0.6458 -0.6270 -2.0628
  190POPC   H4Y21947   0.936   5.354  10.463  1.9603  0.7071  0.5330
  190POPC   C3521948   0.805   5.324  10.289 -0.3182 -0.3349 -0.7028
  190POPC   H5X21949   0.774   5.431  10.283 -0.9819 -0.4773 -0.0447
  190POPC   H5Y21950   0.738   5.260  10.352 -0.6760  0.7788  0.0818
  190POPC   C3621951   0.812   5.263  10.147 -0.7756  0.2986 -0.5962
  190POPC   H6X21952   0.718   5.289  10.094  0.9522  0.8761 -3.5894
  190POPC   H6Y21953   0.822   5.152  10.151 -0.5674  0.3295 -0.2428
  190POPC   C3721954   0.913   5.327  10.061  0.1980  0.1961 -0.7476
  190POPC   H7X21955   1.018   5.301  10.090  0.4493  2.2857  0.4386
  190POPC   H7Y21956   0.898   5.434  10.083 -2.0207  0.2792 -2.3761
  190POPC   C3821957   0.886   5.320   9.909  0.1468 -0.6332  0.0449
  190POPC   H8X21958   0.784   5.355   9.881 -0.0277 -2.0214 -1.1743
  190POPC   H8Y21959   0.900   5.211   9.896 -2.6255 -1.2800  1.5404
  190POPC   C3921960   1.004   5.378   9.828 -0.1597  0.2993  0.0106
  190POPC   H9X21961   1.104   5.347   9.866 -0.3321  1.8492  1.8808
  190POPC   H9Y21962   0.991   5.488   9.838 -2.0138  0.2305 -1.2180
  190POPC  C31021963   0.985   5.356   9.679 -0.3118  0.7869  0.2147
  190POPC  H10X21964   0.882   5.385   9.651 -0.2247  0.0269 -0.9809
  190POPC  H10Y21965   0.977   5.246   9.667 -2.9013  1.1638 -3.1005
  190POPC  C31121966   1.087   5.413   9.577  0.6896  0.0867 -0.4581
  190POPC  H11X21967   1.189   5.370   9.589  0.2681 -0.7433  0.2892
  190POPC  H11Y21968   1.095   5.522   9.595 -3.1006  0.2394  1.3038
  190POPC  C31221969   1.028   5.384   9.434  0.0764 -0.1435 -0.2611
  190POPC  H12X21970   0.930   5.437   9.438  1.4405  2.6808 -1.6377
  190POPC  H12Y21971   1.014   5.274   9.426 -1.0801  0.0103 -0.5744
  190POPC  C31321972   1.124   5.436   9.332 -0.3079 -0.1042 -0.4352
  190POPC  H13X21973   1.221   5.384   9.350  0.5271  0.6980 -2.3253
  190POPC  H13Y21974   1.161   5.539   9.352  1.7413 -0.5647 -1.5317
  190POPC  C31421975   1.067   5.429   9.190 -0.0086 -0.8677 -0.1412
  190POPC  H14X21976   0.969   5.482   9.188 -0.6067 -1.8397  1.5837
  190POPC  H14Y21977   1.045   5.325   9.160 -0.2402 -1.1337  0.9081
  190POPC  C31521978   1.169   5.500   9.093 -0.3616 -0.4783  0.0513
  190POPC  H15X21979   1.258   5.433   9.098 -0.5133 -0.6985 -0.2182
  190POPC  H15Y21980   1.212   5.597   9.127  1.3273 -1.4189  0.7498
  190POPC  C31621981   1.127   5.511   8.952 -0.0160 -0.1033 -0.5267
  190POPC  H16X21982   1.189   5.570   8.882 -1.0502  1.6290 -0.0282
  190POPC  H16Y21983   1.021   5.521   8.922  0.4264 -0.7365 -2.4568
  190POPC  H16Z21984   1.142   5.408   8.912 -0.5550 -0.0916 -0.7653
  191POPC     N21985   2.157   4.754   6.076 -0.1997 -0.0306  0.0310
  191POPC   C1221986   2.077   4.843   6.179 -0.1283  0.3419 -0.5181
  191POPC  H12A21987   1.994   4.787   6.219  0.1825  0.9882  1.1239
  191POPC  H12B21988   2.045   4.927   6.119  2.9308  1.7270 -0.3698
  191POPC   C1321989   2.056   4.713   5.967 -0.8345 -0.5539 -0.1196
  191POPC  H13A21990   1.999   4.626   5.996 -0.9621 -1.0563 -1.7543
  191POPC  H13B21991   1.984   4.792   5.948 -0.0835 -0.0546 -0.9611
  191POPC  H13C21992   2.117   4.688   5.882  1.8086  0.1624  1.4571
  191POPC   C1421993   2.250   4.852   6.006 -0.1957 -0.6818 -0.4217
  191POPC  H14A21994   2.326   4.804   5.947 -0.2412  0.5443 -1.5143
  191POPC  H14B21995   2.203   4.930   5.947 -0.9775 -0.1975  0.7874
  191POPC  H14C21996   2.304   4.904   6.084  3.4015 -0.6361 -2.7135
  191POPC   C1521997   2.230   4.640   6.133 -1.4846  0.2861 -0.6388
  191POPC  H15A21998   2.170   4.556   6.166 -0.0098 -0.1495  1.1458
  191POPC  H15B21999   2.284   4.665   6.223 -0.5007 -1.8230 -0.5712
  191POPC  H15C22000   2.293   4.591   6.060 -0.4732 -2.2512  1.7548
  191POPC   C1122001   2.147   4.901   6.304 -0.2376 -0.1899 -0.0614
  191POPC  H11A22002   2.210   4.830   6.361 -1.5547 -2.3219 -1.1614
  191POPC  H11B22003   2.072   4.922   6.384 -0.9019 -1.3463 -0.3565
  191POPC     P22004   2.196   5.153   6.329 -0.3677 -0.6566 -0.5541
  191POPC   O1322005   2.060   5.195   6.283 -0.1705  0.0426 -0.0867
  191POPC   O1422006   2.313   5.243   6.303  0.4184 -0.4241  0.5130
  191POPC   O1222007   2.232   5.010   6.276  0.4628 -0.9266  1.0181
  191POPC   O1122008   2.182   5.132   6.485 -0.9082 -0.0328  0.1599
  191POPC    C122009   2.269   5.053   6.567  0.3129 -0.0158  0.1101
  191POPC    HA22010   2.352   5.007   6.510 -1.3539 -1.9197 -0.8939
  191POPC    HB22011   2.209   4.970   6.611 -0.3097  0.3820  0.0189
  191POPC    C222012   2.339   5.147   6.673  0.1436  0.0177  0.2471
  191POPC    HS22013   2.401   5.082   6.738 -0.0073 -0.3774 -0.0008
  191POPC   O2122014   2.244   5.216   6.750  0.5097  0.3437 -0.4954
  191POPC   C2122015   2.172   5.154   6.853  0.7462 -0.0091 -0.5940
  191POPC   O2222016   2.166   5.037   6.866  0.1047  0.1615 -0.3091
  191POPC   C2222017   2.089   5.259   6.925  0.2182 -0.2026 -0.4419
  191POPC   H2R22018   2.006   5.291   6.857  0.0785 -0.5384 -0.4304
  191POPC   H2S22019   2.150   5.346   6.958  1.8702 -2.1897  2.1157
  191POPC    C322020   2.435   5.240   6.606  0.0025 -0.1498 -0.2369
  191POPC    HX22021   2.387   5.326   6.555 -2.8480 -1.1720  0.5485
  191POPC    HY22022   2.486   5.183   6.525  1.5885  1.7030 -0.6034
  191POPC   O3122023   2.531   5.288   6.703 -0.0881  1.0479 -0.3709
  191POPC   C3122024   2.629   5.207   6.732  0.4990  0.2782  0.2208
  191POPC   O3222025   2.644   5.092   6.693 -0.6800 -0.3934  0.7468
  191POPC   C3222026   2.727   5.281   6.831 -0.0865 -0.3074  0.9437
  191POPC   H2X22027   2.717   5.391   6.818  0.7712 -0.4999 -2.0185
  191POPC   H2Y22028   2.824   5.244   6.792 -1.2192 -1.1222 -1.2670
  191POPC   C2322029   2.013   5.214   7.057 -0.3878 -0.5416 -0.0206
  191POPC   H3R22030   1.981   5.108   7.052  2.5782 -1.5832  1.0606
  191POPC   H3S22031   1.924   5.275   7.083  0.7036  1.5075 -0.8309
  191POPC   C2422032   2.101   5.227   7.185  0.2598 -0.1975 -0.1162
  191POPC   H4R22033   2.110   5.333   7.216  0.3029 -0.9034  2.5983
  191POPC   H4S22034   2.202   5.183   7.172 -0.2281 -1.3550 -0.1124
  191POPC   C2522035   2.041   5.148   7.302 -0.2473  0.1472  0.1707
  191POPC   H5R22036   2.026   5.045   7.263  0.6504  0.5692 -1.3700
  191POPC   H5S22037   1.936   5.182   7.314  0.0317  1.1181 -0.0568
  191POPC   C2622038   2.105   5.165   7.440 -0.2550 -0.2826 -0.2027
  191POPC   H6R22039   2.034   5.128   7.517 -2.1145 -0.0556 -1.7313
  191POPC   H6S22040   2.108   5.276   7.448  0.2014  0.0805 -3.7972
  191POPC   C2722041   2.229   5.091   7.463 -0.6330  0.0280  0.0501
  191POPC   H7R22042   2.310   5.144   7.409 -0.8308  0.3226  0.0405
  191POPC   H7S22043   2.209   4.992   7.416 -1.0914  0.7343 -1.2900
  191POPC   C2822044   2.283   5.070   7.602 -0.8706 -0.0751 -0.6502
  191POPC   H8R22045   2.374   5.008   7.595 -0.5085  0.5338 -1.4917
  191POPC   H8S22046   2.213   5.022   7.674  0.3451 -1.1829 -0.1619
  191POPC   C2922047   2.324   5.202   7.656  0.8415  0.7511  0.1421
  191POPC   H9122048   2.329   5.280   7.578  0.9202  0.3191 -0.2862
  191POPC  C21022049   2.328   5.248   7.784  0.0883  0.1398  0.4622
  191POPC  H10122050   2.363   5.347   7.815 -3.0745  0.5737  3.2307
  191POPC  C21122051   2.311   5.158   7.905  0.1947 -0.2256  0.3903
  191POPC  H11R22052   2.395   5.165   7.977  0.9483  2.1817 -0.6147
  191POPC  H11S22053   2.315   5.053   7.868 -1.2372 -0.0085 -0.4493
  191POPC  C21222054   2.185   5.187   7.988 -0.1531 -1.0129  0.4570
  191POPC  H12R22055   2.175   5.291   8.025 -0.3130 -1.2034  0.9531
  191POPC  H12S22056   2.199   5.125   8.079 -0.6490 -1.3998  0.2748
  191POPC  C21322057   2.054   5.153   7.913  0.1336  0.2462  0.5448
  191POPC  H13R22058   2.062   5.045   7.887  1.6801  0.7180 -1.1002
  191POPC  H13S22059   2.050   5.211   7.818  1.8607  1.0556  0.9268
  191POPC  C21422060   1.927   5.193   7.994 -0.7912 -0.1853  0.1772
  191POPC  H14R22061   1.845   5.208   7.920  0.9568  2.5414 -1.3812
  191POPC  H14S22062   1.947   5.293   8.037 -0.7796  0.1871 -0.6675
  191POPC  C21522063   1.878   5.104   8.104  0.8392 -0.5046  0.2044
  191POPC  H15R22064   1.962   5.062   8.163 -0.1631 -1.2022  1.1890
  191POPC  H15S22065   1.826   5.014   8.063  0.6662 -0.9823  1.4078
  191POPC  C21622066   1.801   5.187   8.210 -0.0804 -0.8357 -0.6815
  191POPC  H16R22067   1.693   5.201   8.188  0.3196  0.2407 -2.1655
  191POPC  H16S22068   1.853   5.283   8.232  0.1417 -0.9418 -0.7396
  191POPC  C21722069   1.805   5.108   8.339  0.4999 -0.1788  0.6340
  191POPC  H17R22070   1.906   5.121   8.385  0.8813 -0.8692  0.0258
  191POPC  H17S22071   1.795   4.998   8.325  1.0348 -0.4775  2.3751
  191POPC  C21822072   1.701   5.156   8.439  0.6645  0.5484  0.3613
  191POPC  H18R22073   1.721   5.258   8.478 -1.8066  1.2385  0.0038
  191POPC  H18S22074   1.716   5.091   8.527 -0.2172 -0.3049 -0.1002
  191POPC  H18T22075   1.595   5.145   8.409  0.3090  1.2656  1.3303
  191POPC   C3322076   2.696   5.241   6.979 -0.9084 -0.4185  0.5419
  191POPC   H3X22077   2.772   5.295   7.039 -1.2547  2.0222 -1.0649
  191POPC   H3Y22078   2.716   5.132   6.987 -1.9888 -0.7363 -0.8419
  191POPC   C3422079   2.554   5.286   7.027 -0.5009  0.2228 -0.4197
  191POPC   H4X22080   2.474   5.236   6.969 -0.5223 -0.4036  0.1365
  191POPC   H4Y22081   2.534   5.395   7.021 -0.9427  0.2174  0.7306
  191POPC   C3522082   2.518   5.256   7.172 -0.5762  0.0055  0.4347
  191POPC   H5X22083   2.500   5.146   7.177  0.1721 -0.1729 -0.6204
  191POPC   H5Y22084   2.424   5.311   7.193  0.7141  1.8096  1.6856
  191POPC   C3622085   2.625   5.299   7.272 -0.0232  0.7247 -0.2003
  191POPC   H6X22086   2.627   5.410   7.263 -2.1879  0.8227 -0.0366
  191POPC   H6Y22087   2.730   5.264   7.262 -0.1222  0.3951 -0.1068
  191POPC   C3722088   2.590   5.255   7.420 -0.2046 -0.1891  0.0781
  191POPC   H7X22089   2.547   5.153   7.419  0.0545 -0.2940 -0.6801
  191POPC   H7Y22090   2.516   5.328   7.461 -0.6603 -0.8134  0.3884
  191POPC   C3822091   2.713   5.264   7.502 -0.3602  0.5463 -0.2181
  191POPC   H8X22092   2.776   5.355   7.490  0.2396  0.8714  3.9486
  191POPC   H8Y22093   2.781   5.178   7.481  0.4178  1.4782 -1.7449
  191POPC   C3922094   2.671   5.277   7.650  0.0827 -0.4276 -0.8569
  191POPC   H9X22095   2.630   5.178   7.680 -1.0683  0.6456  1.4349
  191POPC   H9Y22096   2.600   5.362   7.660  3.1891  2.2574  0.4690
  191POPC  C31022097   2.791   5.320   7.737  0.0385 -0.0538 -0.2796
  191POPC  H10X22098   2.821   5.412   7.681 -1.3045  1.6073  1.6034
  191POPC  H10Y22099   2.875   5.248   7.736  0.9859  1.0126 -1.2833
  191POPC  C31122100   2.751   5.362   7.879 -0.7384 -0.0115 -0.3119
  191POPC  H11X22101   2.671   5.439   7.866 -1.5226 -0.6413  0.6994
  191POPC  H11Y22102   2.841   5.409   7.925  0.7134 -4.5183  2.0196
  191POPC  C31222103   2.691   5.249   7.974  0.2559 -0.4050  0.4535
  191POPC  H12X22104   2.772   5.174   7.964  1.2241  0.8750 -2.1549
  191POPC  H12Y22105   2.602   5.219   7.916  0.8795 -0.5595 -0.4357
  191POPC  C31322106   2.667   5.289   8.120  0.0660  0.7861 -0.6186
  191POPC  H13X22107   2.630   5.200   8.175 -0.8070  1.6920  0.3021
  191POPC  H13Y22108   2.594   5.372   8.125 -0.3406  0.3915  0.0505
  191POPC  C31422109   2.807   5.324   8.184  0.2957 -0.8848  0.5382
  191POPC  H14X22110   2.841   5.420   8.140 -0.8845  0.6383  2.7486
  191POPC  H14Y22111   2.879   5.244   8.155  0.7409 -0.3667  0.1985
  191POPC  C31522112   2.802   5.344   8.336 -0.1263 -0.2016 -0.1057
  191POPC  H15X22113   2.767   5.253   8.390 -0.4102 -0.4503 -0.7039
  191POPC  H15Y22114   2.728   5.423   8.356  0.6973  0.5199  0.1669
  191POPC  C31622115   2.928   5.395   8.411 -0.0397 -0.4737 -0.4543
  191POPC  H16X22116   2.978   5.461   8.336 -0.5006  0.8243  0.3413
  191POPC  H16Y22117   2.997   5.312   8.435 -1.1964 -1.2714  0.1634
  191POPC  H16Z22118   2.900   5.456   8.500  3.0223 -1.2784  1.2333
  192POPC     N22119   0.774   1.857   5.925 -0.5910 -0.8901  0.1723
  192POPC   C1222120   0.664   1.945   5.979  0.1009 -0.3769 -0.1950
  192POPC  H12A22121   0.602   1.983   5.899 -1.3020 -0.1741  0.9333
  192POPC  H12B22122   0.711   2.031   6.023 -0.6801 -0.0385 -0.0001
  192POPC   C1322123   0.720   1.745   5.846 -0.6678  0.0608 -0.1363
  192POPC  H13A22124   0.670   1.674   5.910 -0.3672  0.2888  0.3543
  192POPC  H13B22125   0.648   1.782   5.774  2.2849  1.8934 -2.3592
  192POPC  H13C22126   0.801   1.694   5.796 -0.2079 -0.7718  1.4249
  192POPC   C1422127   0.849   1.939   5.820  0.7108 -0.0170  0.0213
  192POPC  H14A22128   0.793   1.977   5.736  2.5953  0.0436 -1.2658
  192POPC  H14B22129   0.896   2.025   5.867 -1.1967  0.6347  0.8297
  192POPC  H14C22130   0.924   1.871   5.784  2.5491  1.3048  1.1875
  192POPC   C1522131   0.877   1.816   6.024  1.0248  0.3651  0.5572
  192POPC  H15A22132   0.829   1.772   6.110 -1.1496  3.7879  1.3181
  192POPC  H15B22133   0.940   1.897   6.058 -1.4578  3.4179 -1.4451
  192POPC  H15C22134   0.948   1.751   5.975  1.2168 -0.3217  1.7154
  192POPC   C1122135   0.572   1.890   6.087 -0.2246  0.2122 -0.0804
  192POPC  H11A22136   0.520   1.803   6.043 -0.3439  0.4740 -0.4631
  192POPC  H11B22137   0.501   1.969   6.119 -0.3856 -0.9474  2.6953
  192POPC     P22138   0.629   1.731   6.299 -0.0865  0.0718 -0.5178
  192POPC   O1322139   0.694   1.747   6.433  0.1344 -0.0444 -0.1752
  192POPC   O1422140   0.669   1.606   6.228 -0.4354 -0.2529  0.0596
  192POPC   O1222141   0.653   1.853   6.204 -0.0997  0.7825  0.5868
  192POPC   O1122142   0.468   1.732   6.317 -0.3186  0.1659  0.7177
  192POPC    C122143   0.408   1.826   6.408  0.2957 -0.3795  0.7410
  192POPC    HA22144   0.326   1.873   6.350  1.0269 -0.7906 -0.6613
  192POPC    HB22145   0.479   1.908   6.429  1.6558 -1.5839  0.9953
  192POPC    C222146   0.355   1.763   6.543  0.1633 -0.2175  1.0550
  192POPC    HS22147   0.317   1.845   6.608  0.6219  0.3644  0.6086
  192POPC   O2122148   0.456   1.683   6.606 -0.2546 -0.0240 -0.6492
  192POPC   C2122149   0.546   1.753   6.680 -0.0731 -0.0612  0.2775
  192POPC   O2222150   0.566   1.870   6.673  0.0392  0.2501 -0.2166
  192POPC   C2222151   0.631   1.658   6.757  0.1633  0.5581  0.5024
  192POPC   H2R22152   0.737   1.662   6.726 -0.0755  2.0538 -0.1907
  192POPC   H2S22153   0.590   1.556   6.741  0.9241  0.6173 -2.3647
  192POPC    C322154   0.237   1.659   6.509 -0.8058 -0.0586  0.8769
  192POPC    HX22155   0.290   1.572   6.465 -0.4879  0.5356  0.0561
  192POPC    HY22156   0.180   1.712   6.430  3.0487  0.0515 -2.1176
  192POPC   O3122157   0.166   1.621   6.633  0.1826  0.5713 -0.1903
  192POPC   C3122158   0.064   1.535   6.603  0.7805  0.4960  0.6646
  192POPC   O3222159   0.027   1.503   6.492 -0.4972  0.3170 -0.5825
  192POPC   C3222160   0.007   1.476   6.732 -0.1470 -0.3079  0.1626
  192POPC   H2X22161   0.006   1.546   6.818  1.3456 -1.8947  1.5640
  192POPC   H2Y22162   0.083   1.403   6.769  1.3595  2.5117  3.1150
  192POPC   C2322163   0.626   1.700   6.909 -0.1766 -0.6914 -0.5290
  192POPC   H3R22164   0.523   1.721   6.945  0.5907  2.3837  0.1737
  192POPC   H3S22165   0.682   1.794   6.929  0.1621 -1.3950  2.2712
  192POPC   C2422166   0.679   1.587   7.001 -0.0221 -0.2817 -0.0403
  192POPC   H4R22167   0.782   1.558   6.973 -0.0100  1.7165 -2.4604
  192POPC   H4S22168   0.610   1.500   6.999 -1.6651  0.9154  1.4658
  192POPC   C2522169   0.691   1.625   7.146  0.4395 -0.0084  1.0525
  192POPC   H5R22170   0.595   1.616   7.201  0.8611 -1.8861  1.5652
  192POPC   H5S22171   0.721   1.732   7.150 -0.9300  0.4411  0.0252
  192POPC   C2622172   0.804   1.545   7.219  0.0428  0.6363  1.2107
  192POPC   H6R22173   0.845   1.602   7.305  1.4563 -0.0443  1.0091
  192POPC   H6S22174   0.890   1.533   7.150 -1.1172 -0.8797 -0.0575
  192POPC   C2722175   0.764   1.404   7.277  0.9732  0.0137 -0.8525
  192POPC   H7R22176   0.852   1.345   7.309  1.6566  1.1350 -0.6316
  192POPC   H7S22177   0.709   1.344   7.200 -0.1490  0.7225 -0.6266
  192POPC   C2822178   0.654   1.406   7.391  0.0399  0.7478  0.2013
  192POPC   H8R22179   0.624   1.302   7.416  0.9192  0.5682  0.5525
  192POPC   H8S22180   0.558   1.454   7.363  0.7728  1.8795 -0.4328
  192POPC   C2922181   0.706   1.469   7.516  0.0275  0.1985  0.0157
  192POPC   H9122182   0.657   1.563   7.545 -0.4045 -0.7346  2.5801
  192POPC  C21022183   0.807   1.425   7.590 -0.2064  0.5994 -0.1007
  192POPC  H10122184   0.832   1.488   7.677 -0.6232  2.3120 -1.1782
  192POPC  C21122185   0.886   1.299   7.564 -0.1291 -0.4333 -0.8254
  192POPC  H11R22186   0.976   1.317   7.502  0.2602 -0.7258 -0.3449
  192POPC  H11S22187   0.824   1.222   7.512  0.5696  0.1510 -2.5975
  192POPC  C21222188   0.940   1.234   7.695 -0.1641 -0.1029  0.2026
  192POPC  H12R22189   1.029   1.294   7.723  0.6423 -0.5788 -1.2390
  192POPC  H12S22190   0.983   1.138   7.660  0.5428  0.5521 -0.7862
  192POPC  C21322191   0.828   1.211   7.798 -0.0161 -0.6627  0.1176
  192POPC  H13R22192   0.749   1.146   7.755 -0.1648 -0.9003  0.7450
  192POPC  H13S22193   0.781   1.311   7.810  2.3505  0.6834 -0.9591
  192POPC  C21422194   0.887   1.138   7.921 -0.6625 -0.7615 -0.2332
  192POPC  H14R22195   0.956   1.200   7.982 -0.8093  0.4362 -1.2384
  192POPC  H14S22196   0.954   1.061   7.877  0.4883 -2.1019  3.5150
  192POPC  C21522197   0.776   1.084   8.010  0.1642 -0.3963 -0.3345
  192POPC  H15R22198   0.686   1.044   7.957  0.7752  0.3860 -2.0538
  192POPC  H15S22199   0.741   1.170   8.070 -0.0803  0.5831 -1.8199
  192POPC  C21622200   0.832   0.974   8.111  0.2399  0.2305  0.2444
  192POPC  H16R22201   0.907   1.021   8.179 -0.1054  0.6528  0.3376
  192POPC  H16S22202   0.893   0.906   8.048 -0.3843  0.2057 -0.3376
  192POPC  C21722203   0.725   0.914   8.191 -0.1941  0.2030 -0.8770
  192POPC  H17R22204   0.768   0.846   8.267 -3.2049  2.0676  2.8229
  192POPC  H17S22205   0.667   0.838   8.133  0.6181 -1.5811  0.5505
  192POPC  C21822206   0.626   1.011   8.260  0.1577 -0.4282  0.5987
  192POPC  H18R22207   0.676   1.107   8.282 -0.9257  0.1774  0.5134
  192POPC  H18S22208   0.569   0.970   8.346 -0.3347 -1.5983 -0.2504
  192POPC  H18T22209   0.559   1.036   8.175  1.5302  2.5212  0.2509
  192POPC   C3322210  -0.140   1.435   6.710  0.0359 -0.4851  0.6836
  192POPC   H3X22211  -0.145   1.354   6.634 -0.2980  0.2038 -0.0381
  192POPC   H3Y22212  -0.208   1.517   6.680  0.7887 -1.0981 -3.1187
  192POPC   C3422213  -0.205   1.375   6.838 -0.0739  0.1574  0.6754
  192POPC   H4X22214  -0.314   1.393   6.823  0.2159  0.4929 -1.4327
  192POPC   H4Y22215  -0.163   1.432   6.923 -1.4117  1.1714  0.6939
  192POPC   C3522216  -0.171   1.226   6.851 -0.1659 -0.0377  0.8058
  192POPC   H5X22217  -0.060   1.218   6.858  0.0731  1.5301 -0.6278
  192POPC   H5Y22218  -0.200   1.172   6.759  2.5852  1.1229 -0.8678
  192POPC   C3622219  -0.235   1.157   6.975 -0.2060 -0.0100 -0.0600
  192POPC   H6X22220  -0.257   1.050   6.957 -0.1122 -0.1176  0.4509
  192POPC   H6Y22221  -0.336   1.202   6.983 -0.3631 -0.6759  2.4527
  192POPC   C3722222  -0.147   1.168   7.093 -0.7745  0.9011 -0.2317
  192POPC   H7X22223  -0.150   1.275   7.122 -2.2326  0.7288  0.3620
  192POPC   H7Y22224  -0.040   1.141   7.078 -0.2066  3.4138 -1.1104
  192POPC   C3822225  -0.191   1.085   7.213  0.4457  0.4160 -0.5219
  192POPC   H8X22226  -0.183   0.977   7.187 -0.0209 -0.3866  2.3874
  192POPC   H8Y22227  -0.290   1.131   7.236  0.0703 -0.3675 -0.5410
  192POPC   C3922228  -0.113   1.109   7.346 -0.3218  0.0663  0.6229
  192POPC   H9X22229  -0.111   1.218   7.366 -0.8205  0.0616  0.7196
  192POPC   H9Y22230  -0.018   1.058   7.316 -0.8942 -0.2946 -0.6847
  192POPC  C31022231  -0.177   1.031   7.468  0.4489 -0.2036 -0.3385
  192POPC  H10X22232  -0.203   0.928   7.436  0.5860  0.0464 -1.2794
  192POPC  H10Y22233  -0.265   1.089   7.505 -0.7561 -2.8335  1.2042
  192POPC  C31122234  -0.075   1.022   7.583 -0.9393 -0.3166  0.9396
  192POPC  H11X22235  -0.047   1.124   7.616 -0.3460 -0.6705  1.5443
  192POPC  H11Y22236   0.016   0.972   7.545 -2.0373 -1.1755 -0.7053
  192POPC  C31222237  -0.132   0.942   7.702  0.0516  0.5369 -0.1076
  192POPC  H12X22238  -0.157   0.847   7.651  3.6861 -0.3958 -0.4105
  192POPC  H12Y22239  -0.227   0.979   7.747 -0.5548 -0.7376 -0.3014
  192POPC  C31322240  -0.020   0.929   7.804 -0.4613 -0.2016 -0.9257
  192POPC  H13X22241  -0.010   1.016   7.873  0.9326 -1.1720  0.1670
  192POPC  H13Y22242   0.079   0.926   7.752 -0.1040 -1.6394 -0.2178
  192POPC  C31422243  -0.040   0.811   7.902 -0.5508  0.1252  0.4742
  192POPC  H14X22244   0.060   0.772   7.930 -0.1521  0.4326 -0.4823
  192POPC  H14Y22245  -0.081   0.724   7.846 -0.8819 -0.8923  2.2291
  192POPC  C31522246  -0.126   0.835   8.016  0.0014 -0.1282 -0.3723
  192POPC  H15X22247  -0.235   0.850   8.003  0.0890  0.4288 -0.4988
  192POPC  H15Y22248  -0.079   0.925   8.061  3.2445 -1.7649 -0.2059
  192POPC  C31622249  -0.124   0.712   8.113  0.2394 -0.4035  0.2941
  192POPC  H16X22250  -0.180   0.626   8.071  0.0606 -0.4449  0.6099
  192POPC  H16Y22251  -0.172   0.743   8.209  0.3201 -2.1479  0.9272
  192POPC  H16Z22252  -0.020   0.681   8.135  2.0658  3.3262 -1.9842
  193SOD    SOD22253   6.125   5.233  17.261 -0.1037  0.0234  0.4095
  194SOD    SOD22254   0.196   6.556  13.927 -0.6106  0.1370  0.1161
  195SOD    SOD22255   4.796   0.404  16.963  0.1738 -0.2046  0.1604
  196SOD    SOD22256   2.135   6.080   3.765  0.2141 -0.3057 -0.3039
  197SOD    SOD22257   1.671   2.912  14.749 -0.1594  0.3352 -0.0997
  198SOD    SOD22258   6.622   3.081   1.061 -0.1002  0.2573 -0.2348
  199SOD    SOD22259   1.548   6.750  14.525 -0.1471  0.0371 -0.7469
  200SOD    SOD22260   2.816   4.598   6.637 -0.1049  0.0789  0.0959
  201SOD    SOD22261   2.387   6.320   4.489 -0.5266 -0.0964 -0.4324
  202SOD    SOD22262   1.768   2.529   0.093  0.0866 -0.1636 -0.6936
  203SOD    SOD22263   6.502   5.112  13.810  0.0725 -0.4393 -0.0073
  204SOD    SOD22264   2.735   1.255  12.903  0.3255 -0.2610 -0.1079
  205SOD    SOD22265   3.926   0.283   1.149 -0.1776  0.7806 -0.1356
  206SOD    SOD22266   0.955   1.476  13.125 -0.1275  0.1579 -0.5305
  207SOD    SOD22267   2.156   4.554  10.775  0.2136  0.4262  0.1329
  208SOD    SOD22268   4.020   5.550  14.678 -0.3759  0.1962 -0.1328
  209SOD    SOD22269   6.755   6.581  11.066  0.1147 -0.0602 -0.8668
  210SOD    SOD22270   0.693   1.117  12.278  0.4565  0.0455  0.1790
  211SOD    SOD22271   2.736   1.424  11.978  0.5776 -0.2451 -0.2588
  212SOD    SOD22272   3.322   5.897  15.079 -0.3666 -0.2907 -0.0792
  213SOD    SOD22273   0.348   0.452   4.722 -0.2334 -0.0993  0.1309
  214SOD    SOD22274   4.891   4.658   2.216  0.2050  0.2369  0.1748
  215SOD    SOD22275   6.747   4.702  11.685 -0.2639  0.4676  0.0480
  216SOD    SOD22276   6.256   0.125  17.131 -0.6079  0.1369 -0.2383
  217SOD    SOD22277   1.323   1.279   4.088  0.1019  0.5407 -0.3187
  218SOD    SOD22278   3.877   2.153  17.203 -0.1513  0.3133 -0.2369
  219SOD    SOD22279   1.939   4.285   6.665 -0.3962  0.2583  0.3587
  220SOD    SOD22280   2.950   4.924   1.969  0.4394  0.0086 -0.1728
  221SOD    SOD22281   3.633   3.359   4.334 -0.1353 -0.2738 -0.1917
  222SOD    SOD22282   0.976   3.822   3.337 -0.1180  0.4742  0.3299
  223SOD    SOD22283   3.194   3.242   4.581 -0.1766  0.1023  0.5501
  224SOD    SOD22284   3.346   3.454  16.751  0.0660 -0.3386  0.3240
  225SOD    SOD22285   3.589   0.118   1.355  0.0813  0.3495 -0.0135
  226SOD    SOD22286   3.405   0.503  15.343 -0.0756  0.6240 -0.1797
  227SOD    SOD22287   6.057   1.211  11.407  0.1903  0.0023 -0.6647
  228SOD    SOD22288   5.138   2.251  13.898 -0.0190 -0.0750  0.0430
  229SOD    SOD22289   0.093   6.177  11.282 -0.3714  0.0564  0.3900
  230SOD    SOD22290   5.283   0.635   6.173 -0.5754  0.0164  0.3719
  231SOD    SOD22291   4.830   1.264   3.522 -0.4251 -0.1167 -0.1159
  232SOD    SOD22292   2.635   5.457   5.267 -0.3095 -0.2312  0.0948
  233SOD    SOD22293   5.167   6.676   4.159  0.6460  0.3606 -0.2271
  234SOD    SOD22294   4.033   5.951   1.859  0.3444  0.1972 -0.3783
  235SOD    SOD22295   6.096   0.422   5.131  0.1380 -0.2735 -0.1796
  236SOD    SOD22296   2.165   5.549  15.114 -0.2192 -0.0976  0.0195
  237SOD    SOD22297   3.355   0.453  11.404  0.1259  0.2210 -0.1834
  238SOD    SOD22298   0.717   1.952   6.518  0.3769 -0.1035 -0.0715
  239SOD    SOD22299   4.978   2.023   1.408 -0.0451 -0.1629  0.0445
  240SOD    SOD22300   5.808   5.468  12.484  0.4272 -0.2746  0.3116
  241SOD    SOD22301   6.649   4.032  10.735 -0.3180 -0.4561  0.7809
  242SOD    SOD22302   1.543   6.466   6.096 -0.1430 -0.0946 -0.1298
  243SOD    SOD22303   2.496   4.576  12.612  0.1640 -0.2791  0.3442
  244SOD    SOD22304   2.875   5.405  11.864 -0.0376 -0.0490  0.1379
  245SOD    SOD22305   5.819   6.459  12.125  0.1028 -0.3259  0.4346
  246SOD    SOD22306   5.067   1.352  12.635 -0.1325  0.0901 -0.3668
  247SOD    SOD22307   1.929   0.646   5.786 -0.1629 -0.3940 -0.1209
  248SOD    SOD22308   5.596   0.012  15.559 -0.4174 -0.2763 -0.4400
  249SOD    SOD22309   3.568   1.712   0.512 -0.2873 -0.2790  0.4998
  250SOD    SOD22310   5.770   6.235   2.196  0.0422  0.1565 -0.0418
  251SOD    SOD22311   6.348   1.333   6.236  0.5646  0.6428  0.1975
  252SOD    SOD22312   1.475   3.253  11.619 -0.1061 -0.0780 -0.0920
  253SOD    SOD22313   4.342   1.615  13.329  0.3445 -0.4812  0.2177
  254SOD    SOD22314   1.207   4.356   4.638  0.1731  0.6028 -0.5032
  255SOD    SOD22315   0.981   0.459   0.061  0.0566 -0.4373 -0.3453
  256SOD    SOD22316   1.501   2.809   3.362  0.1162 -0.2499 -0.4751
  257SOD    SOD22317   5.934   6.061  16.203  0.3953  0.2720  0.6348
  258SOD    SOD22318   1.810   5.690   2.062  0.3561  0.3015 -0.0155
  259SOD    SOD22319   2.744   5.992   0.620  0.1176  0.6020 -0.8190
  260SOD    SOD22320   2.250   0.269  12.343  0.1029  0.4344  0.1480
  261SOD    SOD22321   2.231   4.866   0.505  0.2646  0.0441 -0.5541
  262SOD    SOD22322   6.054   4.628  11.436 -0.1884 -0.3252  0.2412
  263SOD    SOD22323   3.756   2.956   2.224  0.0788  0.1278  0.4173
  264SOD    SOD22324   5.285   2.204   6.460  0.3888 -0.3563  0.4366
  265SOD    SOD22325   4.878   3.393   4.967  0.5579  0.1379  0.3457
  266SOD    SOD22326   0.742   1.555  12.061 -0.4271  0.4890  0.5272
  267SOD    SOD22327   1.240   4.731  16.655 -0.2011  0.5403  0.8043
  268SOD    SOD22328   4.711   6.154   6.404 -0.3764 -0.3540  1.3448
  269SOD    SOD22329   6.288   0.129  15.747 -0.0683 -0.1524 -0.1382
  270CLA    CLA22330   5.901   3.983  17.324  0.1660 -0.0664 -0.0230
  271CLA    CLA22331   1.748   3.702   3.097  0.3177  0.2397 -0.0378
  272CLA    CLA22332   1.725   0.670  14.446 -0.2089 -0.3300 -0.0268
  273CLA    CLA22333   2.626   5.425  16.795 -0.0357  0.4924  0.1348
  274CLA    CLA22334   6.223   6.765  16.478  0.2144  0.3279  0.0644
  275CLA    CLA22335   0.868   6.427  12.579  0.2522  0.3031  0.1669
  276CLA    CLA22336   3.669   0.435  15.404 -0.2914  0.3415  0.3003
  277CLA    CLA22337   2.940   5.606   0.868  0.3071  0.1064 -0.5887
  278CLA    CLA22338   3.409   6.037  17.270  0.1221 -0.3200 -0.1734
  279CLA    CLA22339   2.036   4.569   0.205 -0.2174 -0.2809  0.7162
  280CLA    CLA22340   2.307   6.466  11.269 -0.2278 -0.3953  0.0264
  281CLA    CLA22341   5.720   0.466  11.957  0.1909  0.3564 -0.0715
  282CLA    CLA22342   3.189   3.034   0.481 -0.4283 -0.0721 -0.2277
  283CLA    CLA22343   2.696   0.422   3.433 -0.2042 -0.1077  0.1664
  284CLA    CLA22344   5.173   1.165   0.552  0.2266 -0.1325 -0.0999
  285CLA    CLA22345   5.191   3.869  17.034  0.1883  0.4524 -0.0356
  286CLA    CLA22346   5.846   1.003  13.813  0.4033  0.4804 -0.1767
  287CLA    CLA22347   6.294   6.046  11.869 -0.0067 -0.1832 -0.2442
  288CLA    CLA22348   1.133   1.939   1.203  0.1001  0.7037  0.1775
  289CLA    CLA22349   0.743   6.163   3.753 -0.0302 -0.4539  0.1435
  290CLA    CLA22350   0.290   2.644  15.121 -0.4803  0.0460 -0.0578
  291CLA    CLA22351   6.215   2.926   5.606  0.1226 -0.0519  0.4650
  292CLA    CLA22352   1.678   5.266   2.466 -0.0852 -0.0270 -0.5075
  293CLA    CLA22353   0.158   0.263   5.584  0.1764 -0.2515  0.1538
  294CLA    CLA22354   2.275   4.877  15.477 -0.0215 -0.3021 -0.0709
  295CLA    CLA22355   4.800   6.369  16.586 -0.5995 -0.0412  0.1733
  296CLA    CLA22356   1.825   0.187  13.849 -0.2317  0.4271  0.5527
  297CLA    CLA22357   0.688   1.996  17.118 -0.3249 -0.5412  0.2173
  298CLA    CLA22358   6.075   5.580  15.573  0.1537 -0.0416 -0.1565
  299CLA    CLA22359   0.503   1.086  16.382  0.5129  0.3988 -0.3857
  300CLA    CLA22360   1.657   2.354   2.378  0.2029 -0.1419  0.3457
  301CLA    CLA22361   1.467   1.254   2.223  0.0454  0.2962  0.2998
  302CLA    CLA22362   6.221   1.367   3.381 -0.2510 -0.4376  0.6459
  303CLA    CLA22363   4.476   3.615  15.578  0.1550 -0.1577 -0.0898
  304CLA    CLA22364   0.958   5.604  13.174 -0.1451  0.1460  0.1444
  305CLA    CLA22365   4.453   5.731  14.726  0.0088  0.0051 -0.3278
  306CLA    CLA22366   2.460   0.627  12.075 -0.1974  0.0075  0.2566
  307CLA    CLA22367   5.146   2.639  14.226 -0.3967  0.5727  0.1792
  308CLA    CLA22368   2.846   1.789  13.272  0.3354 -0.0968  0.1133
  309CLA    CLA22369   4.953   6.173   1.520  0.1555  0.0795 -0.1303
  310CLA    CLA22370   4.165   5.193   2.629  0.0718 -0.3933  0.1456
  311CLA    CLA22371   2.085   2.503   0.458  0.2621  0.2726 -0.2423
  312CLA    CLA22372   1.416   6.040  15.153 -0.0463 -0.1636  0.6706
  313CLA    CLA22373   3.006   1.513   4.401  0.2457 -0.0206  0.2054
  314CLA    CLA22374   2.340   4.065  11.984  0.0631  0.2099 -0.1337
  315CLA    CLA22375   0.505   3.057  14.206  0.1252 -0.1711  0.0300
  316CLA    CLA22376   6.691   0.706   5.421  0.0434  0.1268  0.0295
  317CLA    CLA22377   4.626   4.735   3.225 -0.0917 -0.1604 -0.1041
  318CLA    CLA22378   3.530   6.517   2.357  0.0944  0.2592 -0.1812
  319CLA    CLA22379   4.465   3.812   1.719 -0.1631  0.5279  0.0145
  320CLA    CLA22380   4.576   0.944  12.298 -0.3634 -0.0499 -0.5557
  321CLA    CLA22381   6.144   4.258  14.338 -0.2967  0.3701  0.2327
  322CLA    CLA22382   1.716   2.598   3.212  0.3893  0.5782  0.1706
  323TIP3   OH222383   1.464   4.925  12.778 -0.1764 -0.6597 -0.5723
  323TIP3    H122384   1.394   4.898  12.719 -0.1713  0.8247 -1.3092
  323TIP3    H222385   1.418   4.948  12.859 -0.3940 -0.9560 -0.6080
  324TIP3   OH222386   6.019   1.451  15.129 -0.2549 -0.4030 -0.2264
  324TIP3    H122387   6.089   1.482  15.187 -1.6179 -1.3378  2.0278
  324TIP3    H222388   6.061   1.386  15.073  0.8830 -0.2276  0.3930
  325TIP3   OH222389   6.150   2.462   4.952  0.8253 -0.4257 -0.5846
  325TIP3    H122390   6.179   2.553   4.959 -0.0683 -0.1846  0.1203
  325TIP3    H222391   6.056   2.465   4.971  0.7145 -1.4512 -0.9035
  326TIP3   OH222392   1.425   0.305  15.859  0.0198  0.6582  0.5256
  326TIP3    H122393   1.402   0.397  15.865  0.2916  0.6858  1.2157
  326TIP3    H222394   1.349   0.258  15.893 -0.7659  0.5365 -1.2901
  327TIP3   OH222395   2.362   5.315   4.500 -0.1631 -0.0851  0.3713
  327TIP3    H122396   2.345   5.235   4.451 -3.0388 -0.0357  1.0934
  327TIP3    H222397   2.330   5.297   4.588 -0.4678  1.6799  0.6723
  328TIP3   OH222398   5.781   2.674   2.171  0.0966 -0.0354  0.2661
  328TIP3    H122399   5.762   2.705   2.082 -0.2429  1.0740  0.7067
  328TIP3    H222400   5.863   2.719   2.195  0.6150 -0.9445  0.2248
  329TIP3   OH222401   5.054   4.424  11.109  0.2575  0.5316  0.0666
  329TIP3    H122402   5.054   4.391  11.199  1.3263  0.7965  0.1787
  329TIP3    H222403   5.101   4.507  11.114  1.9431 -0.2956 -1.0111
  330TIP3   OH222404   6.169   2.414   2.017  0.4222  0.0653  0.2038
  330TIP3    H122405   6.207   2.327   2.030 -1.0827 -0.7678 -0.7784
  330TIP3    H222406   6.076   2.403   2.034 -0.4147  0.6439 -3.2694
  331TIP3   OH222407   6.156   1.279   5.061  0.1834  0.1982 -0.2920
  331TIP3    H122408   6.146   1.357   5.116  1.0090 -0.4636  0.8386
  331TIP3    H222409   6.221   1.305   4.995 -0.7285  0.9608 -0.9133
  332TIP3   OH222410   5.061   5.374  12.340 -0.1445  0.2292 -0.0232
  332TIP3    H122411   5.128   5.439  12.360  1.2692 -1.7246  2.0229
  332TIP3    H222412   5.108   5.303  12.297 -1.2947 -0.3070 -0.4346
  333TIP3   OH222413   4.214   1.866  11.032  0.2820 -0.1259 -0.3099
  333TIP3    H122414   4.130   1.908  11.013 -0.0712 -0.7490 -0.1582
  333TIP3    H222415   4.279   1.936  11.023 -0.0759  0.0383 -1.9493
  334TIP3   OH222416   0.328   3.603   2.595  0.2117  0.0194 -0.2609
  334TIP3    H122417   0.363   3.693   2.600 -0.9178  0.4264  0.9573
  334TIP3    H222418   0.292   3.597   2.507  0.6204  0.6296 -0.4861
  335TIP3   OH222419   6.720   2.816   5.637 -0.5293 -0.5406 -0.2979
  335TIP3    H122420   6.766   2.838   5.718 -0.6025  1.1831 -0.6964
  335TIP3    H222421   6.663   2.743   5.661 -2.1684  1.3123  1.8029
  336TIP3   OH222422   3.059   5.106  10.353  0.0180  0.2689 -0.0508
  336TIP3    H122423   3.044   5.199  10.335  0.4275 -0.0028 -2.0745
  336TIP3    H222424   3.153   5.099  10.366 -0.0436  0.1563  0.3585
  337TIP3   OH222425   1.852   0.144  16.139 -0.5415  0.5944 -0.7375
  337TIP3    H122426   1.769   0.191  16.147  0.0268  1.3139  1.6334
  337TIP3    H222427   1.876   0.123  16.229  0.4155 -2.2326 -1.5541
  338TIP3   OH222428   3.314   1.539   1.653  0.0981  0.2885 -0.4992
  338TIP3    H122429   3.393   1.493   1.684 -1.0284 -1.4823 -0.0790
  338TIP3    H222430   3.332   1.631   1.669  2.3344  0.0134 -0.9931
  339TIP3   OH222431   4.243   6.532  12.688 -0.6534  0.8977 -0.6255
  339TIP3    H122432   4.320   6.589  12.688  1.2110 -1.3542 -2.3244
  339TIP3    H222433   4.249   6.484  12.770  1.7026 -1.4223 -1.9824
  340TIP3   OH222434   2.547   5.914   4.729 -0.0461 -0.1440  0.8416
  340TIP3    H122435   2.618   5.924   4.793  1.5688  0.7516 -0.9967
  340TIP3    H222436   2.509   5.828   4.748  1.2894 -0.4965  2.0831
  341TIP3   OH222437   4.952   5.653   2.212 -0.4126 -0.3883 -0.3544
  341TIP3    H122438   4.910   5.635   2.128 -0.9014 -1.4547  0.0944
  341TIP3    H222439   5.030   5.599   2.211  0.2624  0.5697 -0.6312
  342TIP3   OH222440   0.576   1.206  10.346  0.5801 -0.2836 -0.8137
  342TIP3    H122441   0.643   1.263  10.309  0.2036  1.5951  1.1701
  342TIP3    H222442   0.513   1.194  10.276  1.2928  0.7718 -1.6714
  343TIP3   OH222443   0.009   5.210  12.897 -0.5901 -0.4559 -0.7046
  343TIP3    H122444  -0.080   5.176  12.890 -0.6528 -0.9240  1.5777
  343TIP3    H222445   0.060   5.137  12.932  0.0514  0.6011  0.7037
  344TIP3   OH222446   1.960   2.583  13.651 -0.0738  0.9182  0.6464
  344TIP3    H122447   1.959   2.644  13.578  2.9093 -1.5359 -1.7695
  344TIP3    H222448   2.046   2.597  13.692  0.9053 -1.7121 -0.2608
  345TIP3   OH222449   6.439   1.784  14.626  0.1397 -0.0273  0.3801
  345TIP3    H122450   6.420   1.696  14.593  2.3223 -0.2259 -0.5546
  345TIP3    H222451   6.456   1.772  14.719  0.1603 -0.5607  0.3120
  346TIP3   OH222452   2.597   0.531  16.750 -0.2453 -0.0536  0.1697
  346TIP3    H122453   2.622   0.455  16.803  1.0704 -1.0240 -1.7256
  346TIP3    H222454   2.508   0.512  16.721  0.0147 -0.8021 -0.1513
  347TIP3   OH222455   3.452   1.892   1.337  0.3152 -0.4377  0.8457
  347TIP3    H122456   3.444   1.934   1.422  0.3939 -1.2040  1.2348
  347TIP3    H222457   3.415   1.805   1.350 -1.4942  0.0714 -0.3842
  348TIP3   OH222458   5.385   6.071  13.708 -0.2929  0.2871 -0.1684
  348TIP3    H122459   5.365   6.043  13.619  0.5274 -0.1538 -0.2243
  348TIP3    H222460   5.342   6.156  13.717  0.4082  0.7749 -1.3045
  349TIP3   OH222461   2.277   2.931   2.671 -0.1531 -0.2311  0.6352
  349TIP3    H122462   2.257   2.993   2.742 -2.0279 -2.0880  1.8581
  349TIP3    H222463   2.331   2.864   2.713 -0.8813 -1.1043  0.1999
  350TIP3   OH222464   4.955   5.091  11.359 -0.3860 -0.5493 -0.2083
  350TIP3    H122465   4.901   5.070  11.283 -1.0622  0.7315 -0.1131
  350TIP3    H222466   4.948   5.015  11.416  0.1343 -1.5260 -1.4216
  351TIP3   OH222467   0.283   4.741   3.581 -0.4494 -0.7033 -0.9528
  351TIP3    H122468   0.228   4.745   3.504  0.2870  1.0100 -1.4277
  351TIP3    H222469   0.247   4.668   3.632 -2.9119  0.0934 -1.4004
  352TIP3   OH222470   3.304   2.433   5.522 -0.3908 -0.1465  0.4681
  352TIP3    H122471   3.340   2.408   5.607 -1.4119 -0.5822  0.7988
  352TIP3    H222472   3.376   2.419   5.460  0.9042  1.7742  1.4530
  353TIP3   OH222473   6.600   6.696   0.742  0.2103 -0.0592  0.2178
  353TIP3    H122474   6.533   6.715   0.677 -0.3137 -1.4803  0.2977
  353TIP3    H222475   6.601   6.600   0.748  3.1801 -0.1706 -0.7230
  354TIP3   OH222476   3.006   0.610   0.646  0.2656  0.2768  0.2710
  354TIP3    H122477   3.089   0.618   0.599 -1.4184  1.4215 -2.7694
  354TIP3    H222478   2.964   0.696   0.635 -1.0013  0.0211  2.4906
  355TIP3   OH222479   6.715   5.624  17.242 -0.5343 -0.6776  0.2946
  355TIP3    H122480   6.681   5.691  17.183  0.3092 -0.8403 -0.3989
  355TIP3    H222481   6.780   5.576  17.189  0.7929 -0.3448  1.5610
  356TIP3   OH222482   6.316   6.713  15.859 -0.0413  0.1330  0.7300
  356TIP3    H122483   6.375   6.699  15.933 -1.1772 -0.0237  1.6466
  356TIP3    H222484   6.318   6.630  15.811  0.4891  0.1356  0.7388
  357TIP3   OH222485   4.891   5.743   2.479 -0.2532 -0.2127  0.3352
  357TIP3    H122486   4.899   5.668   2.537  2.0856 -0.2103  0.0840
  357TIP3    H222487   4.936   5.718   2.399 -1.8114  0.4826 -0.8299
  358TIP3   OH222488   2.780   2.313   3.457  0.2984 -0.2068 -0.1086
  358TIP3    H122489   2.703   2.319   3.400  0.4066  0.7456 -0.1687
  358TIP3    H222490   2.744   2.307   3.545  0.1310  2.4015  0.0587
  359TIP3   OH222491   4.256   6.321  14.374  0.4428 -0.5801  0.5584
  359TIP3    H122492   4.181   6.370  14.342  0.9010 -0.4983 -0.4183
  359TIP3    H222493   4.292   6.376  14.444  0.8846  0.4368 -0.4401
  360TIP3   OH222494   5.068   4.720   4.955 -0.1747 -0.5552  0.0405
  360TIP3    H122495   5.111   4.667   5.022  1.2283 -0.7053 -0.9252
  360TIP3    H222496   5.008   4.777   5.003 -0.1267 -1.5142  1.2901
  361TIP3   OH222497   0.135   3.100   0.608 -0.2960  0.6298 -0.1921
  361TIP3    H122498   0.166   3.018   0.646  0.4629  1.1451  0.3214
  361TIP3    H222499   0.200   3.122   0.542  0.3271  1.5700  0.6983
  362TIP3   OH222500   2.079   3.377   3.061  0.0553  0.8357 -0.1030
  362TIP3    H122501   2.091   3.469   3.038 -0.5474  0.7046 -1.0264
  362TIP3    H222502   2.150   3.332   3.017  0.1748  0.8239  0.1012
  363TIP3   OH222503   4.695   2.568   0.521  0.1095  0.3603  0.5465
  363TIP3    H122504   4.664   2.657   0.535  1.0838  0.8839 -0.4207
  363TIP3    H222505   4.660   2.518   0.594 -2.2899  1.0573 -0.0295
  364TIP3   OH222506   5.523   0.712  16.578  0.2221 -0.3873  0.0868
  364TIP3    H122507   5.571   0.710  16.496 -1.7118 -3.1061 -1.1392
  364TIP3    H222508   5.530   0.803  16.608  2.1010  0.3819 -2.3521
  365TIP3   OH222509   2.109   0.028  11.928  0.1106  0.1158 -0.6500
  365TIP3    H122510   2.161  -0.019  11.993  0.3417 -1.5815 -2.0038
  365TIP3    H222511   2.174   0.073  11.874 -0.0652  1.2356  0.0310
  366TIP3   OH222512   4.182   3.656  16.168  0.5988 -0.4362 -0.2788
  366TIP3    H122513   4.207   3.724  16.106 -0.4919 -0.9549 -1.3511
  366TIP3    H222514   4.263   3.632  16.212  1.1094  1.1027 -0.3169
  367TIP3   OH222515   3.988   6.686  14.862 -0.6317 -0.1939 -0.3015
  367TIP3    H122516   3.905   6.658  14.825 -1.0749 -0.1632  0.6560
  367TIP3    H222517   3.967   6.763  14.916  0.2013  0.5510 -0.9961
  368TIP3   OH222518   5.116   4.332   2.206  0.4363  0.7672  0.4210
  368TIP3    H122519   5.056   4.281   2.261 -0.3218 -0.4130 -1.4241
  368TIP3    H222520   5.098   4.303   2.117  2.7796  1.4304 -0.3408
  369TIP3   OH222521   3.633   5.732  11.636 -0.5923 -0.3646  0.2806
  369TIP3    H122522   3.705   5.670  11.647 -0.6329 -0.5147 -0.2334
  369TIP3    H222523   3.608   5.722  11.544 -0.4106  0.6193  0.1146
  370TIP3   OH222524   1.319   3.989   5.573 -0.2821  0.6222 -0.0305
  370TIP3    H122525   1.408   4.000   5.605  0.1753 -2.0725 -0.1196
  370TIP3    H222526   1.329   3.960   5.483 -1.3393  1.7339 -0.5371
  371TIP3   OH222527   4.092   1.187  15.867 -0.2042  0.5351  0.4350
  371TIP3    H122528   4.104   1.278  15.839  2.0484  0.3946  0.7352
  371TIP3    H222529   4.050   1.144  15.793 -0.1866  1.5538 -0.1771
  372TIP3   OH222530   3.720   4.651   1.733  0.1780 -0.3730 -0.5371
  372TIP3    H122531   3.648   4.708   1.759  1.6033  0.3742  2.2052
  372TIP3    H222532   3.746   4.682   1.647 -0.7758  1.4117 -0.2202
  373TIP3   OH222533   1.573   1.482   0.497 -0.4295 -0.2097 -0.4807
  373TIP3    H122534   1.630   1.444   0.430 -0.1305  0.7250 -0.7714
  373TIP3    H222535   1.509   1.414   0.515  1.8261 -2.0394  1.2142
  374TIP3   OH222536   5.001   3.933   3.520  0.4730  0.2646 -0.4835
  374TIP3    H122537   4.919   3.921   3.569  1.9173 -0.4255  1.9759
  374TIP3    H222538   4.999   3.865   3.453 -0.3069 -0.7251  0.5067
  375TIP3   OH222539   6.414   5.225   6.181 -0.5138  0.3658 -0.5101
  375TIP3    H122540   6.394   5.246   6.089 -0.3422  1.6440 -0.2629
  375TIP3    H222541   6.502   5.189   6.179  0.2411  2.1392 -0.6435
  376TIP3   OH222542   2.890   2.806   5.445  0.7430 -0.0875 -0.0083
  376TIP3    H122543   2.955   2.753   5.491  0.2368 -0.4399  0.3001
  376TIP3    H222544   2.809   2.756   5.451  0.3480  0.5399 -0.0422
  377TIP3   OH222545   6.019   4.667  15.520 -0.0211 -0.3076  0.5164
  377TIP3    H122546   6.065   4.659  15.437  0.7766 -0.4755  0.9540
  377TIP3    H222547   6.030   4.759  15.545  1.3859 -0.6560  1.3206
  378TIP3   OH222548   1.205   4.291   4.384 -0.0016 -0.2756 -0.1486
  378TIP3    H122549   1.194   4.361   4.319  1.1953  0.7299  0.7063
  378TIP3    H222550   1.128   4.235   4.371 -0.5983  0.7727 -1.3613
  379TIP3   OH222551   0.571   2.949  13.904  0.0618  0.5954 -0.7983
  379TIP3    H122552   0.562   3.004  13.982 -0.3393 -0.9941  0.3563
  379TIP3    H222553   0.591   3.009  13.833  1.1642  2.0539  0.6666
  380TIP3   OH222554   4.259   1.944   3.724 -0.0407  0.1497  0.0414
  380TIP3    H122555   4.279   1.930   3.632  0.9324  0.2884  0.2154
  380TIP3    H222556   4.172   1.985   3.725  0.1598  0.6038 -0.8377
  381TIP3   OH222557   3.906   4.761   5.541  0.1955 -0.4320  0.2955
  381TIP3    H122558   3.862   4.733   5.461  1.3074 -0.9484 -0.1472
  381TIP3    H222559   3.871   4.849   5.558  0.6542  0.0894 -1.3087
  382TIP3   OH222560   1.617   6.648   0.986 -0.0777  0.2102  0.2932
  382TIP3    H122561   1.627   6.666   0.892 -0.7101  4.3863  0.8518
  382TIP3    H222562   1.703   6.618   1.014  0.6409  0.6770 -1.3058
  383TIP3   OH222563   3.399   1.910   3.585  0.4581 -0.0149 -0.1282
  383TIP3    H122564   3.416   1.984   3.527  0.3334  0.1844  0.0918
  383TIP3    H222565   3.327   1.863   3.544  2.5271 -1.8202 -1.9971
  384TIP3   OH222566   1.740   0.764   5.726 -0.2971 -0.1379 -0.0585
  384TIP3    H122567   1.771   0.828   5.663 -1.2054  1.6285  1.1907
  384TIP3    H222568   1.674   0.714   5.678  1.2952 -1.0313 -1.4216
  385TIP3   OH222569   2.111   2.441   5.396  0.7898 -0.7464  0.0968
  385TIP3    H122570   2.081   2.428   5.486 -1.6527 -1.0513 -0.6793
  385TIP3    H222571   2.185   2.382   5.386 -0.3040 -2.4111  1.2803
  386TIP3   OH222572   4.653   4.969   1.667 -0.2144  0.0561  0.3562
  386TIP3    H122573   4.620   4.883   1.640  2.7337 -0.4576 -2.2155
  386TIP3    H222574   4.581   5.029   1.647 -1.3622 -1.4861 -0.4039
  387TIP3   OH222575   6.303   3.063  13.869 -0.1899 -0.2206 -0.2881
  387TIP3    H122576   6.281   3.136  13.928 -0.2448 -0.2769 -0.2387
  387TIP3    H222577   6.277   3.094  13.782 -2.4138 -1.0578  0.0058
  388TIP3   OH222578   1.058   3.824   3.111  0.2591 -0.3528  0.4055
  388TIP3    H122579   1.146   3.787   3.110  0.5783  0.3350 -1.2496
  388TIP3    H222580   1.038   3.840   3.019 -0.7695  1.4466  0.8991
  389TIP3   OH222581   2.017   6.287   3.009  0.2829  0.1653  0.0534
  389TIP3    H122582   2.084   6.219   2.998  0.1460 -0.3396  1.9307
  389TIP3    H222583   1.959   6.253   3.077 -0.7168  1.4728 -0.0991
  390TIP3   OH222584   1.236   1.839  12.292 -0.2876  0.0768  0.4164
  390TIP3    H122585   1.165   1.879  12.243 -0.6388 -0.1013  0.7769
  390TIP3    H222586   1.263   1.906  12.355 -0.6845 -0.1497  0.8281
  391TIP3   OH222587   5.073   0.043   2.105  0.4506  0.3371 -0.2606
  391TIP3    H122588   5.044  -0.006   2.028 -1.9690 -0.0707  0.8311
  391TIP3    H222589   5.166   0.022   2.112  0.3377 -1.0373 -2.0439
  392TIP3   OH222590   3.041   1.111  12.653  0.1399 -0.7756  0.1656
  392TIP3    H122591   3.099   1.180  12.621 -1.6795  0.7661 -0.0098
  392TIP3    H222592   3.041   1.045  12.584 -0.5326  0.5818 -1.2074
  393TIP3   OH222593   0.730   1.172   1.143  0.2097 -0.5713 -0.4756
  393TIP3    H122594   0.825   1.185   1.152 -0.0884  0.4436  1.6054
  393TIP3    H222595   0.718   1.077   1.153  0.8844 -0.5378  0.8645
  394TIP3   OH222596   3.376   6.085  15.422  0.0991  0.3595  0.7005
  394TIP3    H122597   3.455   6.085  15.477  0.7073 -0.6360 -0.1435
  394TIP3    H222598   3.346   6.176  15.424  1.2258  0.7416  1.0938
  395TIP3   OH222599   2.770   0.087   1.623  0.1491 -1.1687  0.2349
  395TIP3    H122600   2.694   0.142   1.644 -0.8905 -1.8529 -1.5193
  395TIP3    H222601   2.786   0.103   1.530  2.6994 -0.4431  0.7283
  396TIP3   OH222602   1.872   1.591  13.560 -0.1150 -0.7776  0.3491
  396TIP3    H122603   1.882   1.678  13.522  3.2501 -1.5029 -0.7374
  396TIP3    H222604   1.785   1.563  13.532 -0.6304  1.5806 -0.6636
  397TIP3   OH222605   6.205   3.835  12.891  0.9534  0.0378 -0.0079
  397TIP3    H122606   6.151   3.760  12.867 -0.2742  0.8283  0.2091
  397TIP3    H222607   6.181   3.854  12.981 -1.0554  2.5146 -0.9149
  398TIP3   OH222608   1.337   6.460   5.990 -0.4987 -0.1903  0.5465
  398TIP3    H122609   1.254   6.476   6.036 -0.9876  0.7688 -0.6053
  398TIP3    H222610   1.321   6.491   5.901  1.1621  0.1906  0.3515
  399TIP3   OH222611   3.390   0.303   2.378 -0.5074 -0.1072 -0.0524
  399TIP3    H122612   3.365   0.212   2.395  2.1251 -1.4204 -2.4092
  399TIP3    H222613   3.436   0.331   2.457 -0.7585 -1.0497  0.4388
  400TIP3   OH222614   1.157   4.267  15.816 -0.1619 -0.3889 -0.4416
  400TIP3    H122615   1.179   4.279  15.908 -0.4122 -0.6810 -0.3416
  400TIP3    H222616   1.063   4.251  15.816 -0.1999 -0.1655 -0.7689
  401TIP3   OH222617   2.485   5.498   5.950  0.6426  0.1209 -0.2621
  401TIP3    H122618   2.514   5.418   5.993 -1.4901  0.2954  1.6796
  401TIP3    H222619   2.493   5.566   6.017 -0.0125  1.0117 -1.0497
  402TIP3   OH222620   4.412   3.611   5.761 -0.4224  0.2878  0.3570
  402TIP3    H122621   4.327   3.582   5.793 -0.4428  1.6565  1.6664
  402TIP3    H222622   4.456   3.645   5.839 -0.2264  3.2329 -0.9273
  403TIP3   OH222623   5.917   3.906   5.182 -0.0863  0.3998  0.0817
  403TIP3    H122624   5.962   3.881   5.262  1.8680  1.5461 -0.6062
  403TIP3    H222625   5.919   3.827   5.127  2.3309  0.7791 -0.4554
  404TIP3   OH222626   5.184   3.211  14.829  0.0751 -0.0182 -0.2060
  404TIP3    H122627   5.255   3.258  14.785 -0.0795  0.5270  0.1175
  404TIP3    H222628   5.116   3.277  14.842 -0.4431 -0.5065 -0.3998
  405TIP3   OH222629   2.143   1.479  16.118  0.1331 -0.4950 -0.1115
  405TIP3    H122630   2.066   1.426  16.142 -1.0842  0.8170 -0.9715
  405TIP3    H222631   2.148   1.546  16.186  1.0297 -1.0310  0.3792
  406TIP3   OH222632   1.740   6.359   1.317  0.0616  0.9349  0.3406
  406TIP3    H122633   1.747   6.307   1.237 -2.5474  0.5512  0.2856
  406TIP3    H222634   1.818   6.335   1.368 -0.5436 -2.4412 -0.0582
  407TIP3   OH222635   5.028   4.432  13.224  0.5476  0.0503  0.4885
  407TIP3    H122636   4.969   4.366  13.187 -0.0677 -0.8642  2.9193
  407TIP3    H222637   4.981   4.465  13.301  2.0867  1.2567  0.9504
  408TIP3   OH222638   0.475   0.560  14.909 -0.2321  0.3442 -0.0202
  408TIP3    H122639   0.534   0.537  14.980 -1.1471 -0.7761  0.4014
  408TIP3    H222640   0.493   0.653  14.892  0.3164  0.5070  1.3551
  409TIP3   OH222641   1.885   6.124  14.369  0.3583 -0.0772 -0.3247
  409TIP3    H122642   1.904   6.036  14.401 -0.3285 -0.0011  0.2890
  409TIP3    H222643   1.916   6.123  14.278 -0.5425 -1.2580 -0.6312
  410TIP3   OH222644   1.114   2.488   3.120 -0.3877  0.0981  0.0332
  410TIP3    H122645   1.188   2.445   3.076 -0.1658 -0.3806  0.8616
  410TIP3    H222646   1.107   2.573   3.076  0.3999 -0.0083 -0.3215
  411TIP3   OH222647   1.276   3.189   4.755  0.7302 -0.0101  0.2041
  411TIP3    H122648   1.218   3.265   4.753  0.7672  0.0207  0.2917
  411TIP3    H222649   1.232   3.124   4.700  0.8389  0.1750 -0.1074
  412TIP3   OH222650   5.111   1.628   4.167 -0.2630  0.0796  0.4037
  412TIP3    H122651   5.136   1.535   4.165  0.3651  0.2219  1.0773
  412TIP3    H222652   5.016   1.627   4.168 -0.2737 -0.5427 -0.1927
  413TIP3   OH222653   2.470   0.574   5.947 -0.1385  0.1253  0.0313
  413TIP3    H122654   2.480   0.605   5.857 -0.7785  0.2560  0.0028
  413TIP3    H222655   2.413   0.497   5.940  2.2126 -1.7150 -0.0232
  414TIP3   OH222656   2.310   5.921  13.734 -0.1314 -0.2914  0.0014
  414TIP3    H122657   2.383   5.860  13.727  0.5572  0.6097 -0.9113
  414TIP3    H222658   2.252   5.897  13.661 -0.3611 -0.4869  0.2440
  415TIP3   OH222659   1.332   3.242   5.480 -0.3802  0.0015 -0.2741
  415TIP3    H122660   1.380   3.194   5.413  1.2626 -0.5784  1.2495
  415TIP3    H222661   1.242   3.209   5.474 -0.1429 -0.4484 -1.7766
  416TIP3   OH222662   6.153   3.326   6.077  0.2575  0.0071 -0.2792
  416TIP3    H122663   6.218   3.390   6.104 -1.6313  2.2731 -0.7499
  416TIP3    H222664   6.113   3.296   6.159 -0.9235  1.8481 -0.1078
  417TIP3   OH222665   1.728   2.327  11.254  0.6816  1.0185 -0.6588
  417TIP3    H122666   1.733   2.285  11.168  1.4388  0.6226 -0.4298
  417TIP3    H222667   1.767   2.413  11.242  0.5511  1.0636 -0.7660
  418TIP3   OH222668   5.837   1.900   5.803  0.0988  0.8234 -0.6216
  418TIP3    H122669   5.874   1.962   5.741  1.0993  2.1687  1.2126
  418TIP3    H222670   5.864   1.933   5.889 -2.2307 -0.2460  0.6295
  419TIP3   OH222671   5.507   0.681  12.011 -0.3206 -0.7734 -0.2556
  419TIP3    H122672   5.548   0.596  11.991 -1.1066 -1.1187 -0.4341
  419TIP3    H222673   5.552   0.712  12.090 -0.6413 -1.7878  0.3422
  420TIP3   OH222674   6.373   3.251   5.481  0.6885  0.5269  0.4389
  420TIP3    H122675   6.295   3.292   5.517 -0.9106 -0.5960 -1.5139
  420TIP3    H222676   6.392   3.178   5.540 -0.8894 -0.3089 -0.0260
  421TIP3   OH222677   2.698   0.611  12.570  0.0309  0.4782  0.0784
  421TIP3    H122678   2.746   0.542  12.617 -0.5770 -0.1888 -0.2606
  421TIP3    H222679   2.741   0.615  12.484 -1.3171 -1.0508 -0.7148
  422TIP3   OH222680   3.215   4.415   4.069  0.4143  0.1409  0.0495
  422TIP3    H122681   3.121   4.409   4.086  0.7342 -1.4974  1.6264
  422TIP3    H222682   3.223   4.412   3.974 -1.1702  1.8822 -0.2054
  423TIP3   OH222683   5.849   2.929  16.022 -0.0812 -0.0291 -0.0238
  423TIP3    H122684   5.914   2.872  16.061  1.4144 -0.3796 -2.7724
  423TIP3    H222685   5.899   3.004  15.990 -1.6561  1.6835  1.3082
  424TIP3   OH222686   5.598   1.773  17.046  0.1675 -0.2985 -0.3659
  424TIP3    H122687   5.517   1.803  17.006  1.1643  1.3997 -1.2713
  424TIP3    H222688   5.584   1.781  17.140 -0.4503  0.8104 -0.5346
  425TIP3   OH222689   6.194   0.708   3.195  0.4921 -0.0291  0.7529
  425TIP3    H122690   6.172   0.670   3.280 -0.4708  2.2966  1.6168
  425TIP3    H222691   6.277   0.667   3.172 -0.4002 -2.5241  1.6126
  426TIP3   OH222692   5.133   1.579   1.553  0.0706 -0.1275 -0.4022
  426TIP3    H122693   5.211   1.635   1.552  0.5081 -0.7139 -1.3938
  426TIP3    H222694   5.124   1.552   1.644 -0.3417  1.7789  0.1717
  427TIP3   OH222695   3.458   0.702   1.956 -0.0912  0.2307  0.6421
  427TIP3    H122696   3.400   0.773   1.983  0.3052  0.2120  1.5777
  427TIP3    H222697   3.488   0.663   2.039  0.0687 -0.7173  0.1473
  428TIP3   OH222698   4.421   6.306   5.979 -0.4862  0.2294  0.6877
  428TIP3    H122699   4.439   6.247   5.906  0.4398  0.1563  0.9505
  428TIP3    H222700   4.460   6.261   6.055  0.7454  1.4186  0.7957
  429TIP3   OH222701   2.948   3.894   4.332  0.0631  0.6745 -0.4351
  429TIP3    H122702   2.857   3.869   4.346 -0.5142  1.5994 -2.2401
  429TIP3    H222703   2.975   3.844   4.255  1.5537 -0.6182  0.8516
  430TIP3   OH222704   3.804   2.762  12.815 -0.1596  0.6398  0.0974
  430TIP3    H122705   3.794   2.738  12.723 -0.2304 -1.1739  0.5317
  430TIP3    H222706   3.898   2.775  12.826  0.2145 -1.8426  0.3250
  431TIP3   OH222707   2.416   0.146   1.318  0.1049  0.7381  0.0623
  431TIP3    H122708   2.424   0.119   1.409  1.2706 -2.5191 -0.8694
  431TIP3    H222709   2.391   0.238   1.322  0.0187  0.6771  3.6351
  432TIP3   OH222710   5.971   3.624   3.908 -0.5986  0.1273 -0.1628
  432TIP3    H122711   5.931   3.711   3.912  0.2459  0.6191 -1.5882
  432TIP3    H222712   6.064   3.641   3.929 -0.8677 -0.8319  2.0814
  433TIP3   OH222713   0.433   6.371  15.017 -0.2623 -0.6282  0.1327
  433TIP3    H122714   0.351   6.327  14.997 -1.5208  2.5003 -2.4832
  433TIP3    H222715   0.409   6.442  15.077  1.1260 -1.3392  1.6389
  434TIP3   OH222716   1.891   4.709  14.144  0.2032  0.1296  0.1807
  434TIP3    H122717   1.947   4.719  14.221 -0.7460  1.4279  0.7387
  434TIP3    H222718   1.951   4.712  14.070  1.0292 -0.1219  0.8233
  435TIP3   OH222719   5.206   4.182  15.905 -0.0266  0.5579 -0.5538
  435TIP3    H122720   5.268   4.231  15.959 -0.4574  1.6763 -1.0376
  435TIP3    H222721   5.190   4.101  15.954  0.6340  0.9398  0.3141
  436TIP3   OH222722   0.349   4.260  14.645  0.4871 -0.4830 -0.1176
  436TIP3    H122723   0.310   4.347  14.641 -0.6357 -0.9955 -1.6581
  436TIP3    H222724   0.274   4.202  14.661  0.9986 -1.2922 -0.6113
  437TIP3   OH222725   6.118   0.428  13.435  0.0870  0.1375 -0.3182
  437TIP3    H122726   6.167   0.498  13.392  0.5018 -0.1765 -0.3641
  437TIP3    H222727   6.118   0.452  13.528 -0.3255  0.5238 -0.4115
  438TIP3   OH222728   1.889   5.569  16.664  0.2913 -0.3361 -0.6814
  438TIP3    H122729   1.965   5.512  16.661 -0.9079 -2.2664  2.0629
  438TIP3    H222730   1.858   5.564  16.754 -1.0908  3.1417 -0.8003
  439TIP3   OH222731   2.513   1.593   0.799  0.3976  0.8199  0.4909
  439TIP3    H122732   2.432   1.639   0.777  0.1738 -0.4217 -1.6677
  439TIP3    H222733   2.486   1.503   0.815  1.4172 -0.0439 -2.0123
  440TIP3   OH222734   0.495   4.922  13.802  0.1659 -0.1020 -0.0898
  440TIP3    H122735   0.584   4.928  13.767  0.2067  1.4810  0.2120
  440TIP3    H222736   0.507   4.889  13.892  0.4745  0.3325  0.0331
  441TIP3   OH222737   4.968   4.051  13.706  0.2380  0.1135 -0.1633
  441TIP3    H122738   5.031   4.117  13.675 -1.7367  0.6649 -3.5558
  441TIP3    H222739   4.959   3.991  13.633 -4.3366  1.0532 -0.6998
  442TIP3   OH222740   4.580   2.617   2.421  0.1811  0.2102 -0.4390
  442TIP3    H122741   4.610   2.628   2.331  0.8519  2.1547 -0.0436
  442TIP3    H222742   4.534   2.699   2.441  0.0326 -0.1916  0.9743
  443TIP3   OH222743   0.450   2.617  16.528 -0.3305 -0.0389 -0.1269
  443TIP3    H122744   0.378   2.597  16.588 -0.8061 -0.2986 -0.7667
  443TIP3    H222745   0.406   2.644  16.447  0.2914 -0.1593 -0.5094
  444TIP3   OH222746   3.941   4.950   3.108 -0.1580  0.3138  0.0033
  444TIP3    H122747   3.879   4.881   3.131 -0.3458  0.9008  1.3537
  444TIP3    H222748   4.027   4.913   3.130 -0.2839  0.6095  1.0741
  445TIP3   OH222749   2.084   5.533   5.399 -0.3320  0.0367 -0.0543
  445TIP3    H122750   2.001   5.510   5.442 -0.2637 -1.4487 -0.6726
  445TIP3    H222751   2.130   5.587   5.463 -1.8874  1.1199  0.1885
  446TIP3   OH222752   2.111   0.834  11.254 -0.5173 -0.0492  0.3931
  446TIP3    H122753   2.123   0.768  11.323 -1.0709 -0.0912  0.4551
  446TIP3    H222754   2.030   0.808  11.211 -0.2262  0.0345 -0.2132
  447TIP3   OH222755   0.738   1.294  17.318 -0.1090 -0.1669 -0.4491
  447TIP3    H122756   0.686   1.264  17.393  2.0370  0.1298  1.2362
  447TIP3    H222757   0.701   1.380  17.297 -0.7238 -0.2384  0.2694
  448TIP3   OH222758   5.914   0.693  13.188  0.2882 -0.4439 -0.1186
  448TIP3    H122759   5.894   0.614  13.238 -0.9350  0.3243  0.6579
  448TIP3    H222760   5.947   0.661  13.104  0.4119 -1.7594  0.4126
  449TIP3   OH222761   4.175   0.450   2.580  0.2370  0.3805 -0.3244
  449TIP3    H122762   4.237   0.401   2.525  0.1503  0.5063 -0.5340
  449TIP3    H222763   4.221   0.532   2.600  0.7010 -0.0966  0.6699
  450TIP3   OH222764   3.747   6.115   3.138 -0.0646 -0.2064  0.1213
  450TIP3    H122765   3.718   6.194   3.185 -1.7284 -1.3348  1.0988
  450TIP3    H222766   3.737   6.045   3.202  0.6603 -1.3338 -0.9695
  451TIP3   OH222767   3.246   6.202  13.448  0.1311  0.1073  0.2659
  451TIP3    H122768   3.324   6.221  13.394 -0.1048  0.5703  0.0767
  451TIP3    H222769   3.260   6.113  13.480 -0.6611 -0.9993 -2.2138
  452TIP3   OH222770   4.469   3.288  16.793 -0.0458 -0.0761 -0.2511
  452TIP3    H122771   4.561   3.262  16.800  0.8137  2.4774 -0.9273
  452TIP3    H222772   4.451   3.335  16.875 -0.0039  1.3743 -1.0326
  453TIP3   OH222773   3.901   0.061   4.531 -0.0903 -0.2275 -0.0465
  453TIP3    H122774   3.931   0.073   4.441 -2.0053  0.5452 -0.6278
  453TIP3    H222775   3.857  -0.024   4.530  1.4460 -1.0750  0.6544
  454TIP3   OH222776   3.122   2.287  11.847  0.5032 -0.3682  0.1375
  454TIP3    H122777   3.108   2.350  11.776  1.5378 -0.2602  0.0088
  454TIP3    H222778   3.050   2.302  11.907 -0.0324 -0.0199 -0.5831
  455TIP3   OH222779   5.045   2.184   2.209  0.1050  0.3731 -0.0261
  455TIP3    H122780   5.138   2.191   2.231  0.1053 -0.6792  0.3757
  455TIP3    H222781   5.018   2.101   2.249 -0.2960 -0.8308 -2.5858
  456TIP3   OH222782   6.572   2.225  15.891 -0.1142 -0.3740 -0.3180
  456TIP3    H122783   6.509   2.227  15.963 -0.9866  1.5668 -1.0534
  456TIP3    H222784   6.517   2.222  15.812  0.6433  1.5931 -0.9888
  457TIP3   OH222785   4.099   0.385   0.749  0.0130 -0.1426  0.0104
  457TIP3    H122786   4.110   0.291   0.741 -0.3446 -0.1645 -0.2290
  457TIP3    H222787   4.123   0.404   0.840  2.6360 -0.0849 -0.6144
  458TIP3   OH222788   6.719   2.725  16.103  0.0674  0.4057 -0.6194
  458TIP3    H122789   6.792   2.753  16.048  0.3998  1.8597  0.4940
  458TIP3    H222790   6.646   2.713  16.042  0.1624  2.8904 -1.3425
  459TIP3   OH222791   0.180   5.150   1.019  0.1591  0.5498 -0.7501
  459TIP3    H122792   0.153   5.148   0.928  1.5434 -2.6752 -1.2270
  459TIP3    H222793   0.099   5.144   1.069 -0.8341  4.6032 -1.5111
  460TIP3   OH222794   1.878   1.718   0.292 -0.0949 -0.4928 -0.6192
  460TIP3    H122795   1.863   1.659   0.219 -0.3338  0.4571 -1.3582
  460TIP3    H222796   1.857   1.805   0.258  2.7025  0.3816 -0.3785
  461TIP3   OH222797   6.350   0.880  15.582  0.0417  0.7632 -0.1644
  461TIP3    H122798   6.344   0.904  15.674 -0.0410  3.8605 -0.8892
  461TIP3    H222799   6.436   0.837  15.574  0.2739  0.9396  1.2438
  462TIP3   OH222800   6.081   1.178  13.896  0.0842 -0.0800 -0.1688
  462TIP3    H122801   6.006   1.130  13.862  1.1181 -2.1355  0.2735
  462TIP3    H222802   6.044   1.240  13.959 -1.2747 -0.5215 -0.5045
  463TIP3   OH222803   1.735   2.241  16.662  0.5343 -0.2971  0.4855
  463TIP3    H122804   1.700   2.173  16.720 -0.2433 -1.9674 -1.7890
  463TIP3    H222805   1.666   2.254  16.597  1.9513  0.4200 -0.9248
  464TIP3   OH222806   4.037   3.567  11.832  0.6534  0.5165  0.0995
  464TIP3    H122807   3.990   3.490  11.799  0.5196  0.3057  0.7614
  464TIP3    H222808   3.983   3.599  11.905  0.9743  0.9284  0.1622
  465TIP3   OH222809   2.536   2.771   2.301  0.0724  0.3666 -0.4937
  465TIP3    H122810   2.608   2.791   2.242  1.0715  0.3039  0.6621
  465TIP3    H222811   2.470   2.837   2.282 -0.8181 -1.1747 -3.5138
  466TIP3   OH222812   0.318   3.103  11.242 -0.1325 -0.3571  0.2239
  466TIP3    H122813   0.346   3.038  11.178 -0.5343  0.0812 -0.4112
  466TIP3    H222814   0.317   3.186  11.194 -1.4135 -0.1730  0.5097
  467TIP3   OH222815   3.733   0.567   2.045  0.0472  0.5634 -0.0576
  467TIP3    H122816   3.769   0.551   1.957  0.9166  0.4563  0.3073
  467TIP3    H222817   3.714   0.480   2.079  3.0709  0.2870  1.2205
  468TIP3   OH222818   4.842   2.303   5.224  0.0482  0.8490 -0.4396
  468TIP3    H122819   4.815   2.267   5.140 -0.1979 -0.4695  0.1661
  468TIP3    H222820   4.832   2.397   5.215  2.8172  1.0576 -2.8737
  469TIP3   OH222821   4.828   1.608  15.700 -0.2607 -0.1450  0.1521
  469TIP3    H122822   4.747   1.659  15.701  0.4948  1.1121  1.5323
  469TIP3    H222823   4.849   1.595  15.793  1.8277  0.8017 -0.1244
  470TIP3   OH222824   5.909   2.830   3.229 -0.4846  0.5001  0.0958
  470TIP3    H122825   5.892   2.824   3.135  2.4484  0.1364 -0.4983
  470TIP3    H222826   5.943   2.744   3.254 -1.4020  0.5182  1.5889
  471TIP3   OH222827   3.018   0.011  17.106 -0.3026 -0.0795  0.3037
  471TIP3    H122828   2.996  -0.064  17.050  1.5798  0.3164 -1.0616
  471TIP3    H222829   3.107  -0.008  17.137  0.1425  1.4995  0.0667
  472TIP3   OH222830   1.693   5.593   3.370 -0.2503  0.5348 -0.3452
  472TIP3    H122831   1.756   5.655   3.333 -0.0450  0.0545 -0.8240
  472TIP3    H222832   1.674   5.533   3.298  1.1157 -1.1880  0.6658
  473TIP3   OH222833   6.242   4.758  17.351  0.1801 -0.2067  0.2386
  473TIP3    H122834   6.177   4.693  17.324  1.3345 -1.3562  0.1264
  473TIP3    H222835   6.233   4.764  17.446 -2.0151  1.8046 -0.0042
  474TIP3   OH222836   1.556   1.241   2.546 -0.5511 -0.7807 -0.1581
  474TIP3    H122837   1.498   1.246   2.470 -0.4474  0.9374 -0.1518
  474TIP3    H222838   1.644   1.232   2.508 -0.6973 -2.7717 -0.1697
  475TIP3   OH222839   6.690   2.430   1.296  0.2445 -0.6638 -0.2071
  475TIP3    H122840   6.768   2.375   1.304 -0.5226 -1.8379 -0.6454
  475TIP3    H222841   6.654   2.433   1.385  0.3223 -0.8103 -0.1705
  476TIP3   OH222842   4.194   3.061   3.823 -0.9326 -0.2806 -0.4449
  476TIP3    H122843   4.223   3.147   3.854 -1.0634 -0.6008  0.5740
  476TIP3    H222844   4.223   3.058   3.731 -2.0773  1.3715 -0.9046
  477TIP3   OH222845   1.568   3.146  12.652 -0.5079 -0.2546  0.2894
  477TIP3    H122846   1.517   3.223  12.628 -1.4008 -0.7823  0.4355
  477TIP3    H222847   1.647   3.181  12.693 -1.5339  0.5624  1.6351
  478TIP3   OH222848   4.414   5.327   3.699  0.0565 -0.2670 -0.3609
  478TIP3    H122849   4.355   5.296   3.630  0.4028 -0.3171 -0.6343
  478TIP3    H222850   4.364   5.316   3.780 -1.3832  2.2051 -0.8039
  479TIP3   OH222851   3.584   2.129   4.837 -0.1749  0.1752 -0.4130
  479TIP3    H122852   3.542   2.045   4.816 -1.7905  1.1514 -1.2827
  479TIP3    H222853   3.669   2.126   4.793 -0.2137 -0.9874 -0.4302
  480TIP3   OH222854   3.027   4.062  15.212  0.1816 -0.6015 -0.1284
  480TIP3    H122855   2.980   4.077  15.295  0.4689 -1.9063  0.3063
  480TIP3    H222856   3.037   3.967  15.209  1.7461 -0.4279 -0.8119
  481TIP3   OH222857   5.987   1.582  15.820 -0.1198  0.0188 -0.2055
  481TIP3    H122858   6.058   1.539  15.774 -0.4935  1.4887 -2.2734
  481TIP3    H222859   5.936   1.626  15.752 -1.1503  1.6821  1.5239
  482TIP3   OH222860   2.944   2.430  15.477  0.3715 -0.1535 -0.4595
  482TIP3    H122861   2.981   2.461  15.394  0.3407  1.9560  0.2560
  482TIP3    H222862   3.011   2.448  15.542 -0.8499  1.3211  0.4513
  483TIP3   OH222863   3.776   5.990   3.612  0.2963 -0.0982  0.5188
  483TIP3    H122864   3.749   6.031   3.694 -1.3509  0.3436 -0.1886
  483TIP3    H222865   3.856   6.036   3.586 -0.8842  1.9550  0.3274
  484TIP3   OH222866   2.753   5.457   3.651  0.2596 -0.9565 -0.5336
  484TIP3    H122867   2.700   5.471   3.573  2.2474  0.5533 -1.7185
  484TIP3    H222868   2.714   5.381   3.694 -2.7275  0.0073 -1.3375
  485TIP3   OH222869   3.507   5.412   1.899 -0.2915 -0.3737 -0.0612
  485TIP3    H122870   3.427   5.463   1.900 -0.3980 -0.3534 -2.4308
  485TIP3    H222871   3.522   5.393   1.806  1.0172 -2.6259  0.5214
  486TIP3   OH222872   2.559   2.313  12.581  0.4408 -0.5737  0.1936
  486TIP3    H122873   2.556   2.223  12.551 -1.6523 -0.3950 -0.2508
  486TIP3    H222874   2.653   2.335  12.583  0.8771 -1.9322 -2.1191
  487TIP3   OH222875   5.900   5.872  15.444  0.5270  0.1794 -0.5487
  487TIP3    H122876   5.883   5.778  15.453 -2.2978  0.6313 -0.1832
  487TIP3    H222877   5.986   5.885  15.483 -0.2159 -1.8626  2.0812
  488TIP3   OH222878   1.864   3.701  15.481 -0.5043 -0.5872  0.3686
  488TIP3    H122879   1.957   3.681  15.494 -0.7605 -1.0585  1.5079
  488TIP3    H222880   1.825   3.692  15.567 -1.8658 -1.6692 -0.3234
  489TIP3   OH222881   3.362   4.724  16.255 -0.1158  0.9721 -0.2312
  489TIP3    H122882   3.371   4.819  16.269  0.6967  0.8879 -0.1577
  489TIP3    H222883   3.379   4.686  16.341  2.6626  0.5851 -0.8645
  490TIP3   OH222884   4.496   0.881   0.880 -0.0546 -0.5797  0.9019
  490TIP3    H122885   4.429   0.867   0.946 -2.5880 -0.2839 -1.4017
  490TIP3    H222886   4.447   0.905   0.801  2.7207 -1.3879 -1.2450
  491TIP3   OH222887   0.542   6.454  12.471  0.1916 -0.2082  0.0446
  491TIP3    H122888   0.623   6.495  12.440 -0.6622  1.2105 -0.4046
  491TIP3    H222889   0.563   6.421  12.558  0.8139  1.6702  0.6507
  492TIP3   OH222890   2.220   2.640   1.392  0.1578 -0.4064 -0.9742
  492TIP3    H122891   2.263   2.613   1.473 -0.5677  0.9068 -0.1085
  492TIP3    H222892   2.253   2.729   1.376  0.1628 -0.5864 -2.0304
  493TIP3   OH222893   5.513   6.703  15.945 -0.0112  0.2208 -0.4565
  493TIP3    H122894   5.513   6.713  15.850 -0.4729 -0.6366 -0.5586
  493TIP3    H222895   5.568   6.774  15.977  1.8473 -0.6713 -1.4988
  494TIP3   OH222896   0.058   2.655  12.404  0.2436  0.7009 -0.2616
  494TIP3    H122897   0.090   2.572  12.369  0.5336  0.4890  0.4807
  494TIP3    H222898   0.109   2.669  12.484 -0.5065  1.0777  0.1708
  495TIP3   OH222899   1.295   2.317  12.398  0.1389  0.0348 -0.8021
  495TIP3    H122900   1.247   2.359  12.469 -0.7459  0.1307 -1.4294
  495TIP3    H222901   1.360   2.382  12.371 -0.6310  0.6773 -1.1750
  496TIP3   OH222902   5.465   4.465   2.628  0.1838 -0.2044  0.6781
  496TIP3    H122903   5.474   4.438   2.720 -1.6955 -1.2274  0.6114
  496TIP3    H222904   5.505   4.393   2.578 -1.5697 -1.1932  0.6276
  497TIP3   OH222905   0.569   5.691   4.697  0.1444  0.7138 -0.3225
  497TIP3    H122906   0.524   5.729   4.622 -0.5941 -1.7796 -1.2323
  497TIP3    H222907   0.626   5.624   4.660 -0.1932 -0.5458  1.3178
  498TIP3   OH222908   6.205   4.611   3.568  0.4452 -0.2628  0.7955
  498TIP3    H122909   6.142   4.676   3.596  1.2656  1.0109 -0.2221
  498TIP3    H222910   6.158   4.528   3.572 -0.4586  0.2813  2.6408
  499TIP3   OH222911   4.937   1.805   5.863 -0.6204 -0.0064  0.6740
  499TIP3    H122912   4.858   1.843   5.901 -0.9077  0.3024 -0.2284
  499TIP3    H222913   5.009   1.851   5.906 -0.9556  1.5284 -0.3523
  500TIP3   OH222914   5.226   6.214  14.182 -0.5769  0.0025 -0.0533
  500TIP3    H122915   5.156   6.183  14.125 -0.3159  0.8206 -0.8416
  500TIP3    H222916   5.182   6.275  14.242 -0.7932 -0.6053  0.4075
  501TIP3   OH222917   5.424   5.408  14.006  0.2662  0.1203  0.1194
  501TIP3    H122918   5.514   5.380  13.989  0.0456 -0.2676 -0.4872
  501TIP3    H222919   5.430   5.501  14.024  0.7570  0.1550 -0.2095
  502TIP3   OH222920   5.575   2.334  15.630  0.0256  0.5364  0.2955
  502TIP3    H122921   5.630   2.264  15.594 -0.5790 -0.2017  0.7789
  502TIP3    H222922   5.559   2.308  15.720 -3.1402 -0.5819 -0.4803
  503TIP3   OH222923   4.227   2.802  16.049 -0.5076  0.4189  0.4749
  503TIP3    H122924   4.270   2.881  16.079  0.0365 -0.0446  0.9413
  503TIP3    H222925   4.239   2.802  15.954  1.7129 -0.3540  0.6904
  504TIP3   OH222926   1.912   2.366   0.086  0.3115  0.1091  0.5506
  504TIP3    H122927   2.005   2.387   0.089  0.7782 -1.7216  0.0532
  504TIP3    H222928   1.908   2.271   0.092 -1.3581 -0.0959 -2.0395
  505TIP3   OH222929   3.261   3.123   5.056 -0.2777  0.2034 -0.4460
  505TIP3    H122930   3.190   3.180   5.024 -0.3668  0.4277  0.1392
  505TIP3    H222931   3.325   3.184   5.092 -0.4664 -0.0758  0.3733
  506TIP3   OH222932   3.411   4.088   4.605 -0.3575 -0.2076 -0.0006
  506TIP3    H122933   3.483   4.069   4.665 -1.2562  1.0931  1.5693
  506TIP3    H222934   3.332   4.081   4.659 -1.4485 -1.3652 -1.6176
  507TIP3   OH222935   1.789   1.427  13.043  0.7548 -0.9753 -0.1584
  507TIP3    H122936   1.712   1.371  13.045 -0.6427  0.8469  1.3236
  507TIP3    H222937   1.770   1.496  13.107  2.8854  0.5036 -0.9977
  508TIP3   OH222938   6.181   6.515  15.652 -0.3112 -0.2596 -0.1852
  508TIP3    H122939   6.274   6.493  15.645 -0.1761  0.1919  0.1418
  508TIP3    H222940   6.151   6.525  15.561  0.0728  0.0552 -0.2777
  509TIP3   OH222941   0.280   1.778  15.519 -0.5488 -0.1009 -0.0930
  509TIP3    H122942   0.302   1.819  15.603 -1.3111 -1.3629  0.7666
  509TIP3    H222943   0.324   1.832  15.453  2.2938 -0.5812  1.2679
  510TIP3   OH222944   2.695   6.421  12.047  0.0768 -0.2682 -0.6476
  510TIP3    H122945   2.679   6.473  12.126 -0.0737 -2.1525  0.6505
  510TIP3    H222946   2.789   6.403  12.049 -0.2130 -1.9012  0.2168
  511TIP3   OH222947   1.967   4.534   5.408 -0.2372 -0.7878 -0.1446
  511TIP3    H122948   1.975   4.450   5.452  1.3401 -0.5348  0.1118
  511TIP3    H222949   2.007   4.520   5.322  0.2243 -0.2464 -0.0197
  512TIP3   OH222950   5.565   4.663   1.711 -0.0210 -0.8992 -0.0802
  512TIP3    H122951   5.526   4.739   1.754 -0.4801 -1.8133  1.1869
  512TIP3    H222952   5.656   4.664   1.741  0.3467 -0.0967 -1.1633
  513TIP3   OH222953   2.959   5.423   6.087 -0.2565 -0.1188 -0.0269
  513TIP3    H122954   3.003   5.499   6.123 -1.5756  0.3801  0.6129
  513TIP3    H222955   3.016   5.392   6.016  0.2736  1.4913 -0.3320
  514TIP3   OH222956   1.349   1.765   3.638 -0.4216  0.1627 -0.3323
  514TIP3    H122957   1.308   1.679   3.643 -0.3053  0.0680 -1.0208
  514TIP3    H222958   1.281   1.822   3.602  0.1753 -0.0943 -1.9478
  515TIP3   OH222959   2.877   3.600   1.878  0.8758  0.0851 -0.1171
  515TIP3    H122960   2.921   3.516   1.891  0.1241 -0.1475  1.0261
  515TIP3    H222961   2.784   3.579   1.877  0.6444  0.9723  0.9094
  516TIP3   OH222962   3.823   6.319  11.798  0.4550 -0.3650 -0.0359
  516TIP3    H122963   3.850   6.349  11.884 -1.3239 -0.3216  0.5363
  516TIP3    H222964   3.728   6.312  11.803  0.1079  1.2392 -2.4965
  517TIP3   OH222965   6.458   4.239  12.688 -0.2028 -0.7128 -0.3672
  517TIP3    H122966   6.430   4.291  12.613 -0.3254  1.3741  1.0516
  517TIP3    H222967   6.379   4.229  12.741  0.4397  0.2069  0.8087
  518TIP3   OH222968   3.372   3.377  14.687 -0.1723 -0.1486 -0.4878
  518TIP3    H122969   3.432   3.447  14.713  0.0354 -0.7055  0.5530
  518TIP3    H222970   3.413   3.338  14.610  0.3786  0.0164 -0.2798
  519TIP3   OH222971   3.529   6.121  15.700  0.2712 -0.1139 -0.4097
  519TIP3    H122972   3.475   6.058  15.748  1.7939 -0.0718  1.5001
  519TIP3    H222973   3.468   6.190  15.674 -0.6263  0.0009  1.7806
  520TIP3   OH222974   3.559   6.490   0.336  0.6090  0.0562 -1.0669
  520TIP3    H122975   3.558   6.492   0.241  0.0539 -0.9204 -1.0971
  520TIP3    H222976   3.497   6.558   0.363 -0.5479 -0.7902 -1.4626
  521TIP3   OH222977   4.945   1.493   5.186  0.8797  0.4716  0.0373
  521TIP3    H122978   4.977   1.405   5.207  2.1287  0.8879 -0.0687
  521TIP3    H222979   4.997   1.521   5.111 -0.7418  0.6167 -1.1012
  522TIP3   OH222980   2.085   5.047  11.265 -0.0226 -0.1020  0.1803
  522TIP3    H122981   2.072   5.078  11.176 -0.6600  0.6170  0.5175
  522TIP3    H222982   2.098   5.126  11.317 -1.7206 -0.3661  1.0584
  523TIP3   OH222983   3.725   3.942  14.698  0.3973  0.0336 -0.3581
  523TIP3    H122984   3.679   3.960  14.616 -2.0552 -1.9691  0.4288
  523TIP3    H222985   3.752   3.851  14.691  0.3267 -0.1112  0.9506
  524TIP3   OH222986   5.207   3.894  13.803  0.2998 -0.0055  0.6631
  524TIP3    H122987   5.251   3.957  13.860 -0.7456 -1.0639  2.7892
  524TIP3    H222988   5.140   3.945  13.758 -0.3792  0.4836  2.1767
  525TIP3   OH222989   5.556   0.647   2.852 -0.2362 -0.0369  0.3419
  525TIP3    H122990   5.630   0.705   2.836  1.9707 -2.9296 -1.0424
  525TIP3    H222991   5.529   0.619   2.764 -2.2931  0.1061  0.8904
  526TIP3   OH222992   1.804   6.414  15.933 -0.3687 -0.7176  0.0490
  526TIP3    H122993   1.790   6.502  15.966 -0.2338  0.3069 -2.4250
  526TIP3    H222994   1.855   6.370  16.001  0.5851  1.4855  0.8314
  527TIP3   OH222995   6.479   4.824   2.378  0.4760  0.1291 -0.7856
  527TIP3    H122996   6.543   4.818   2.306  0.8514 -0.0648 -0.4403
  527TIP3    H222997   6.522   4.880   2.443  0.4632 -0.3287 -0.3782
  528TIP3   OH222998   4.110   1.636   3.567  0.0828  0.1004  0.1075
  528TIP3    H122999   4.094   1.588   3.648  0.1426 -0.6117 -0.2947
  528TIP3    H223000   4.184   1.694   3.587 -1.1392  1.3489  1.1309
  529TIP3   OH223001   0.722   2.278   1.681 -0.4757  0.8640  0.1623
  529TIP3    H123002   0.755   2.366   1.664  0.5492  0.7195  1.2906
  529TIP3    H223003   0.789   2.237   1.735 -0.1558 -1.1843 -1.6248
  530TIP3   OH223004   0.218   0.821   4.510 -0.2061 -0.5451  0.1328
  530TIP3    H123005   0.207   0.916   4.516 -1.3994 -0.5710 -1.1196
  530TIP3    H223006   0.253   0.807   4.423 -0.7792 -1.2967  0.0124
  531TIP3   OH223007   2.880   1.353   0.585 -0.1732  0.0576  0.4296
  531TIP3    H123008   2.948   1.398   0.636 -1.7335  2.1846  0.7376
  531TIP3    H223009   2.839   1.422   0.533 -0.8788 -1.5022 -1.1983
  532TIP3   OH223010   4.504   3.291  11.146  0.8555 -0.3168 -0.0547
  532TIP3    H123011   4.439   3.279  11.214 -0.8361 -1.7926 -1.8138
  532TIP3    H223012   4.489   3.380  11.113  1.9007  0.5339  1.5927
  533TIP3   OH223013   0.510   3.380   3.520 -0.1135  0.0652 -0.0006
  533TIP3    H123014   0.456   3.322   3.468 -0.8294 -1.2756  2.1030
  533TIP3    H223015   0.451   3.449   3.549  0.2791  0.8020 -0.9075
  534TIP3   OH223016   4.364   2.298  10.450  0.4549  0.2616  0.3891
  534TIP3    H123017   4.417   2.308  10.371  1.2463 -1.6479  0.6450
  534TIP3    H223018   4.390   2.214  10.487 -1.1995  0.2765  1.7191
  535TIP3   OH223019   3.006   1.967   5.371  1.0030 -0.0104 -0.0569
  535TIP3    H123020   3.007   1.989   5.464 -2.8155 -1.3146  0.5114
  535TIP3    H223021   3.026   1.873   5.368 -1.7821 -0.7137 -0.0305
  536TIP3   OH223022   5.557   5.167  15.061 -0.3549 -0.2563  0.1475
  536TIP3    H123023   5.484   5.110  15.038  0.1881 -0.8628 -0.1015
  536TIP3    H223024   5.635   5.114  15.043  0.1548  0.5783 -0.1057
  537TIP3   OH223025   4.703   2.084   6.407 -0.1693  0.3955  0.3509
  537TIP3    H123026   4.759   2.039   6.469  0.0305  0.2728  0.0837
  537TIP3    H223027   4.647   2.140   6.461 -1.3864 -1.1894  0.8152
  538TIP3   OH223028   2.994   1.402  12.507  0.0184  0.1565  0.0719
  538TIP3    H123029   2.960   1.486  12.538 -0.2829  1.1559 -2.6236
  538TIP3    H223030   2.929   1.338  12.533 -0.5489  1.0151  0.8014
  539TIP3   OH223031   2.809   5.620  16.983 -1.4339  0.3238 -0.0732
  539TIP3    H123032   2.783   5.610  17.074  0.0758 -0.8693  0.2740
  539TIP3    H223033   2.766   5.548  16.938  1.3798 -1.9700  0.5926
  540TIP3   OH223034   4.324   2.565  12.601  0.0961 -0.0525  0.0369
  540TIP3    H123035   4.326   2.515  12.520 -0.2910  0.3036 -0.1934
  540TIP3    H223036   4.332   2.656  12.574  1.7203 -0.0254  0.5038
  541TIP3   OH223037   2.668   3.769   4.043  0.6199  0.2063 -0.8502
  541TIP3    H123038   2.612   3.816   3.982  0.0900 -0.8412 -1.1882
  541TIP3    H223039   2.626   3.781   4.128 -0.9719 -1.7474 -1.2876
  542TIP3   OH223040   1.209   2.531   2.178  0.3224  0.1422 -0.1542
  542TIP3    H123041   1.283   2.589   2.161  0.6609 -0.4348 -0.7036
  542TIP3    H223042   1.247   2.456   2.224 -0.0706  0.2442  0.3460
  543TIP3   OH223043   0.141   6.286  14.836  0.7275  0.1705 -0.4953
  543TIP3    H123044   0.091   6.307  14.756  1.7005  0.3832 -1.0625
  543TIP3    H223045   0.074   6.277  14.904 -0.2601 -1.4371 -1.6008
  544TIP3   OH223046   2.454   3.001  16.647  0.0831 -0.3941 -0.2933
  544TIP3    H123047   2.419   3.070  16.703  1.3782  0.1068 -0.0727
  544TIP3    H223048   2.505   2.945  16.706 -1.6209 -2.0913 -0.2977
  545TIP3   OH223049   1.794   3.198  15.629 -0.5297  0.0623  0.6618
  545TIP3    H123050   1.767   3.269  15.571 -2.6945 -0.5236  0.8444
  545TIP3    H223051   1.822   3.241  15.710 -0.2587  0.7539  0.2048
  546TIP3   OH223052   6.610   0.497  12.856 -0.2768 -0.0487  0.5801
  546TIP3    H123053   6.653   0.577  12.826 -1.5989  0.5505  0.1914
  546TIP3    H223054   6.682   0.440  12.883  0.6470  1.8047  2.2744
  547TIP3   OH223055   5.384   5.735   6.602  0.5273  0.8818  0.3474
  547TIP3    H123056   5.307   5.744   6.657  0.7645  0.3271  0.7732
  547TIP3    H223057   5.358   5.773   6.518  0.3577  2.2736  1.0000
  548TIP3   OH223058   1.365   2.106   1.319  0.2359 -0.4100 -0.4525
  548TIP3    H123059   1.362   2.116   1.414  0.2385  1.7750 -0.6310
  548TIP3    H223060   1.275   2.083   1.294  0.2916 -1.2455  0.0764
  549TIP3   OH223061   2.655   0.699   3.561  0.2904 -0.2987 -0.1692
  549TIP3    H123062   2.679   0.722   3.472 -1.5988 -0.0278 -0.6530
  549TIP3    H223063   2.648   0.604   3.561  1.9339 -0.4514  0.1714
  550TIP3   OH223064   3.857   6.099   1.887 -0.5177  0.0074  0.4364
  550TIP3    H123065   3.784   6.111   1.826 -0.2852 -0.5589  0.0386
  550TIP3    H223066   3.822   6.126   1.972 -1.0066  0.3013  0.1477
  551TIP3   OH223067   0.605   0.283   5.000  0.1047  0.0166  0.0902
  551TIP3    H123068   0.674   0.295   4.936 -0.2084  0.3292 -0.1936
  551TIP3    H223069   0.603   0.188   5.016 -0.0960 -0.1127 -0.6806
  552TIP3   OH223070   3.073   4.081   1.507  0.1679  0.7550  0.4970
  552TIP3    H123071   3.030   3.996   1.510 -1.3326  1.4799  0.6325
  552TIP3    H223072   3.126   4.084   1.587  0.7504 -0.2926  0.1619
  553TIP3   OH223073   5.900   6.567  13.832  0.2279  0.1929  0.6486
  553TIP3    H123074   5.868   6.627  13.765  2.2226  0.1822 -0.4008
  553TIP3    H223075   5.991   6.593  13.846 -0.0172 -0.0290  3.1455
  554TIP3   OH223076   0.320   4.141   1.232  0.7796 -0.7751 -0.2440
  554TIP3    H123077   0.386   4.145   1.163  0.8034  2.1882 -0.2102
  554TIP3    H223078   0.369   4.149   1.314  0.5120 -0.0966 -0.1397
  555TIP3   OH223079   4.688   2.065   3.304  0.2707  0.5494 -0.1008
  555TIP3    H123080   4.691   2.085   3.398 -0.6464  0.0485  0.0436
  555TIP3    H223081   4.733   1.981   3.296  0.3050  0.5683 -0.1106
  556TIP3   OH223082   4.839   0.934   5.622  0.0039 -0.0382  0.1654
  556TIP3    H123083   4.788   0.870   5.671 -0.7480  1.3941  1.3279
  556TIP3    H223084   4.859   0.890   5.539 -1.6901 -1.2375  0.3371
  557TIP3   OH223085   1.349   2.832   3.850 -0.0016 -0.2427 -0.1569
  557TIP3    H123086   1.332   2.903   3.789 -1.6189 -0.7520 -0.3255
  557TIP3    H223087   1.263   2.806   3.883  0.4989 -2.3684 -0.3803
  558TIP3   OH223088   6.536   5.378   1.461  0.3058  1.2658 -0.2196
  558TIP3    H123089   6.444   5.391   1.484  0.2966  1.9833 -0.6475
  558TIP3    H223090   6.536   5.370   1.366  0.1652 -3.0702 -0.0429
  559TIP3   OH223091   1.452   0.015   3.819  0.3226  0.0861  0.2285
  559TIP3    H123092   1.387   0.076   3.787 -0.9119 -1.2969 -0.0026
  559TIP3    H223093   1.428  -0.000   3.911  0.8571  0.2310  0.4000
  560TIP3   OH223094   5.415   3.839   2.681  0.1716  0.0689 -0.0454
  560TIP3    H123095   5.437   3.931   2.694 -0.9366  0.2968  0.3258
  560TIP3    H223096   5.326   3.840   2.645  0.1800 -0.8521 -0.1372
  561TIP3   OH223097   1.989   3.095   0.928 -1.0312  0.0742  0.4072
  561TIP3    H123098   1.925   3.056   0.987 -0.2207  0.1978  1.3848
  561TIP3    H223099   2.029   3.021   0.882 -0.7102 -0.1258  1.0055
  562TIP3   OH223100   4.998   6.062  12.549  0.7505  0.3462  0.2831
  562TIP3    H123101   4.948   5.983  12.570 -0.4536  1.1197  0.4520
  562TIP3    H223102   5.058   6.035  12.480  1.0541 -0.9508  1.0269
  563TIP3   OH223103   6.010   0.384  17.008  0.5278  0.0415 -0.1680
  563TIP3    H123104   5.939   0.320  17.017 -1.2744  1.6338 -2.0380
  563TIP3    H223105   6.079   0.336  16.961 -0.5397 -0.7118 -1.0242
  564TIP3   OH223106   3.622   2.584   3.137  0.0582 -0.6595 -0.5370
  564TIP3    H123107   3.537   2.624   3.157  1.2880  1.8685  0.0995
  564TIP3    H223108   3.612   2.550   3.048 -1.2238  0.8811 -1.0350
  565TIP3   OH223109   5.702   3.645  13.085  0.0491  0.1177 -0.2696
  565TIP3    H123110   5.725   3.704  13.157  0.2959 -0.9615  0.5593
  565TIP3    H223111   5.728   3.558  13.116 -1.8183 -0.6737 -0.7729
  566TIP3   OH223112   1.434   4.916  14.748 -0.0429  0.2637 -0.1962
  566TIP3    H123113   1.488   4.853  14.795 -0.1309 -0.8188 -1.4949
  566TIP3    H223114   1.448   4.896  14.655 -0.2974  1.9683 -0.6453
  567TIP3   OH223115   4.325   3.072   3.306 -0.1223 -0.5133 -0.1477
  567TIP3    H123116   4.291   3.109   3.388  0.4737 -2.7943  1.2230
  567TIP3    H223117   4.251   3.075   3.245 -0.3102  2.1081  0.1102
  568TIP3   OH223118   3.410   2.608   5.108  0.4441  0.2205 -0.2661
  568TIP3    H123119   3.489   2.568   5.146  1.2481  1.6956 -0.3172
  568TIP3    H223120   3.364   2.645   5.184 -0.3595 -0.8496 -0.2048
  569TIP3   OH223121   5.211   0.627   3.586 -0.4665 -0.6231 -0.3287
  569TIP3    H123122   5.292   0.650   3.631 -2.3492  0.2335  2.9785
  569TIP3    H223123   5.218   0.533   3.571  1.2908 -0.4879 -0.5325
  570TIP3   OH223124   1.619   3.764   1.875 -0.2148 -0.0472 -0.1050
  570TIP3    H123125   1.620   3.687   1.818 -0.4151 -0.6907  0.7388
  570TIP3    H223126   1.635   3.729   1.962 -1.5162  0.7347  0.4658
  571TIP3   OH223127   6.085   5.054   3.366 -0.0135  0.3779 -0.1028
  571TIP3    H123128   6.147   5.103   3.311 -0.3144  1.3669  0.4202
  571TIP3    H223129   6.110   5.076   3.456  0.4862 -1.2428  0.1844
  572TIP3   OH223130   1.304   5.592   3.161  0.2146  0.3190 -0.0353
  572TIP3    H123131   1.372   5.647   3.122  0.9321  1.1341  2.2139
  572TIP3    H223132   1.349   5.511   3.184 -0.4432 -0.5838 -1.7088
  573TIP3   OH223133   5.077   6.652   2.555 -0.3894  0.4150 -0.4177
  573TIP3    H123134   5.156   6.675   2.507 -0.5088  0.6671 -0.4954
  573TIP3    H223135   5.006   6.674   2.495 -0.4945 -0.7851 -0.7774
  574TIP3   OH223136   0.528   5.457  12.999  0.2457 -0.6629  0.0082
  574TIP3    H123137   0.605   5.412  12.963  0.6570  0.2428 -0.2675
  574TIP3    H223138   0.564   5.523  13.058 -0.1359  1.5309 -2.0493
  575TIP3   OH223139   1.406   1.620  12.686  0.2754 -0.5446  0.1588
  575TIP3    H123140   1.481   1.640  12.742  1.0836  0.6199 -1.2887
  575TIP3    H223141   1.440   1.623  12.597 -1.2006 -1.3567 -0.4746
  576TIP3   OH223142   3.262   1.002  14.028 -0.3439 -0.3010 -0.0197
  576TIP3    H123143   3.323   0.999  14.102  0.4927 -0.1805 -0.6917
  576TIP3    H223144   3.175   1.001  14.069  0.0968 -0.6628  0.9475
  577TIP3   OH223145   2.708   0.366  14.200 -0.0723  0.0167 -0.0053
  577TIP3    H123146   2.757   0.287  14.178  0.5382  0.5289 -0.4847
  577TIP3    H223147   2.633   0.365  14.140  0.7028  0.5432 -1.0155
  578TIP3   OH223148   5.322   1.972  16.643  0.4038 -0.7812 -0.2505
  578TIP3    H123149   5.383   1.912  16.599 -0.0884 -1.5982  0.1755
  578TIP3    H223150   5.330   2.054  16.593  2.1752 -0.7254  0.0568
  579TIP3   OH223151   0.578   3.180   5.060  0.3694  0.1306  0.0399
  579TIP3    H123152   0.503   3.175   5.120  0.7334 -1.8362  0.4223
  579TIP3    H223153   0.639   3.240   5.103  1.1917 -2.2011  2.4606
  580TIP3   OH223154   0.403   3.375  14.766  0.2736  0.1205 -0.1368
  580TIP3    H123155   0.495   3.351  14.773 -0.1098 -1.6962 -0.7041
  580TIP3    H223156   0.395   3.413  14.679  0.4237 -0.0572 -0.2298
  581TIP3   OH223157   0.727   0.938   4.162 -0.1058 -0.5058  0.1673
  581TIP3    H123158   0.742   1.021   4.118  0.8471 -1.2944 -1.0851
  581TIP3    H223159   0.653   0.899   4.116 -0.1089 -0.6569  0.2972
  582TIP3   OH223160   2.564   6.080  14.586  0.5354  0.1331 -0.1241
  582TIP3    H123161   2.644   6.052  14.629 -0.0832 -2.0497 -0.2631
  582TIP3    H223162   2.590   6.100  14.497  1.0710  0.3845  0.0831
  583TIP3   OH223163   2.275   3.838  14.746  0.0832 -0.0467  0.9492
  583TIP3    H123164   2.351   3.890  14.718  1.4313 -1.4774  1.7750
  583TIP3    H223165   2.253   3.873  14.832  0.6861 -0.5141  1.2997
  584TIP3   OH223166   3.965   0.223  16.422 -0.4791 -0.1261 -0.2643
  584TIP3    H123167   3.941   0.244  16.512  1.7385 -1.5351  0.7445
  584TIP3    H223168   3.933   0.297  16.370  0.3321  1.9478  2.0218
  585TIP3   OH223169   5.594   3.866   0.004  0.6182 -0.3360  0.0623
  585TIP3    H123170   5.568   3.874  -0.088  1.0183  4.0551  0.1359
  585TIP3    H223171   5.689   3.873   0.003  0.5921  0.1624  0.8457
  586TIP3   OH223172   1.212   2.015  11.427  0.4012  0.7579  0.2952
  586TIP3    H123173   1.201   1.928  11.388  0.3149  0.9735 -0.1679
  586TIP3    H223174   1.302   2.040  11.406 -0.0062  1.3699 -0.8014
  587TIP3   OH223175   2.219   5.018   4.889 -0.2328  0.0305 -0.0083
  587TIP3    H123176   2.284   4.949   4.873 -0.7028 -0.3767 -0.1917
  587TIP3    H223177   2.138   4.983   4.853 -0.3795  0.8905 -0.5300
  588TIP3   OH223178   2.882   1.192  17.029  0.2602 -0.4748 -0.1469
  588TIP3    H123179   2.866   1.125  16.962 -0.3259 -0.2108 -0.2782
  588TIP3    H223180   2.796   1.230  17.046  0.8997  1.9114 -1.7884
  589TIP3   OH223181   5.262   5.214   1.206 -0.8646 -0.0660  0.3168
  589TIP3    H123182   5.340   5.169   1.172 -1.3514  0.7357 -2.0653
  589TIP3    H223183   5.297   5.291   1.251 -0.2519 -0.1075 -0.0769
  590TIP3   OH223184   2.163   4.547  14.073  0.2036 -0.1398 -0.1977
  590TIP3    H123185   2.237   4.584  14.122  0.8964 -0.9635 -0.6081
  590TIP3    H223186   2.112   4.500  14.140  0.4757 -0.2273 -0.0491
  591TIP3   OH223187   1.222   1.690  15.525  0.0658 -0.4335 -0.4484
  591TIP3    H123188   1.225   1.595  15.510 -0.4995 -0.1808 -2.5093
  591TIP3    H223189   1.252   1.701  15.615  1.7835 -2.4339 -0.7046
  592TIP3   OH223190   5.007   3.023  15.560 -0.4328 -0.2016 -0.3888
  592TIP3    H123191   5.076   3.089  15.563  1.0907 -1.6992 -1.0955
  592TIP3    H223192   4.963   3.032  15.645 -0.8465  2.2387 -0.7729
  593TIP3   OH223193   1.005   4.186  14.485  0.4648 -0.5554  0.4776
  593TIP3    H123194   0.951   4.160  14.561  1.7276 -1.6872  1.0302
  593TIP3    H223195   1.070   4.245  14.522  1.0656 -1.0868  0.2751
  594TIP3   OH223196   6.051   2.815  16.199  0.3610 -0.3374 -0.2759
  594TIP3    H123197   6.131   2.767  16.175  0.7627 -0.1675  0.6762
  594TIP3    H223198   6.039   2.796  16.292  1.9110  3.2350  0.8551
  595TIP3   OH223199   0.837   4.541   6.354  0.3629  0.1160  0.5528
  595TIP3    H123200   0.745   4.546   6.329  0.7385  1.1957 -0.7239
  595TIP3    H223201   0.839   4.577   6.443 -0.1430  2.5768 -0.3492
  596TIP3   OH223202   1.336   6.254  11.031  0.3839  0.3982 -0.7440
  596TIP3    H123203   1.311   6.165  11.007  0.7805  0.0127  0.1944
  596TIP3    H223204   1.419   6.244  11.077  0.9286  1.3641 -1.4731
  597TIP3   OH223205   5.383   4.028   1.344 -0.3345 -0.1035 -0.4779
  597TIP3    H123206   5.370   3.956   1.405  1.8299 -0.9038 -0.8711
  597TIP3    H223207   5.306   4.083   1.355 -0.8657 -1.1719  1.6477
  598TIP3   OH223208   5.667   6.699  13.399 -0.2937  0.1433  0.0671
  598TIP3    H123209   5.586   6.649  13.386  0.5548 -0.8429 -1.7568
  598TIP3    H223210   5.653   6.779  13.348  0.5749 -0.8973 -1.9082
  599TIP3   OH223211   6.511   3.924   4.720  0.2797  0.5323 -0.4531
  599TIP3    H123212   6.545   3.886   4.638 -0.0631 -1.0894  0.1165
  599TIP3    H223213   6.465   3.852   4.762 -2.2618  2.1189 -0.2795
  600TIP3   OH223214   0.421   0.725  15.262 -0.7529  0.4835 -0.2956
  600TIP3    H123215   0.445   0.643  15.305 -5.0956 -1.4952 -1.0795
  600TIP3    H223216   0.501   0.778  15.264  1.4888 -2.5703  2.8627
  601TIP3   OH223217   0.578   3.941   3.098  0.1057 -0.2911 -0.0527
  601TIP3    H123218   0.516   3.883   3.054 -0.0802 -0.2943  0.2129
  601TIP3    H223219   0.609   3.999   3.028 -1.5109  0.8555  0.1306
  602TIP3   OH223220   5.613   5.050   4.058  0.1309 -0.6450  0.2283
  602TIP3    H123221   5.638   5.110   3.989  3.0635 -0.6031  1.2090
  602TIP3    H223222   5.657   5.083   4.136 -1.1261 -2.0488  1.6163
  603TIP3   OH223223   6.320   3.375  14.341  0.0741 -0.0855 -0.0143
  603TIP3    H123224   6.407   3.404  14.313 -0.6514  0.7399 -1.5440
  603TIP3    H223225   6.323   3.280  14.337  2.0664 -0.3756  3.7259
  604TIP3   OH223226   4.846   2.758  13.726 -0.4682 -0.0074  0.5878
  604TIP3    H123227   4.789   2.684  13.744  1.7120 -2.0154 -0.1363
  604TIP3    H223228   4.904   2.764  13.802  1.3351 -1.1070 -0.6156
  605TIP3   OH223229   4.118   0.898  15.328 -0.4866 -0.2342 -0.0835
  605TIP3    H123230   4.191   0.947  15.290  0.1148 -1.1433 -0.1408
  605TIP3    H223231   4.041   0.929  15.281  0.0163 -0.0655 -0.8135
  606TIP3   OH223232   6.464   2.602   5.058 -0.4403 -0.1546  0.6033
  606TIP3    H123233   6.526   2.540   5.096 -0.2256  0.1698  0.7905
  606TIP3    H223234   6.419   2.640   5.133 -1.3766 -0.8968  0.4378
  607TIP3   OH223235   0.272   5.941  12.498  0.3672  0.2211 -0.3014
  607TIP3    H123236   0.362   5.974  12.500  0.5193 -0.2348  0.9773
  607TIP3    H223237   0.223   6.002  12.554  0.0479 -0.0084 -0.3282
  608TIP3   OH223238   0.662   0.260   0.239 -0.4982  0.1953 -0.9835
  608TIP3    H123239   0.567   0.251   0.254 -0.4087 -0.2322 -0.6249
  608TIP3    H223240   0.670   0.274   0.145 -0.8799 -0.5125 -1.1342
  609TIP3   OH223241   3.006   3.470   6.722 -0.4851  0.5429 -0.1635
  609TIP3    H123242   3.002   3.542   6.659  3.3730  0.1573 -1.1017
  609TIP3    H223243   3.093   3.475   6.759 -1.5834 -1.1153  3.0175
  610TIP3   OH223244   3.782   3.005   5.662  0.2848 -0.2983 -0.0435
  610TIP3    H123245   3.815   3.025   5.749 -2.2647  0.2578  0.8561
  610TIP3    H223246   3.836   3.059   5.603 -0.0242  1.7641  1.4784
  611TIP3   OH223247   1.035   0.947  15.114  0.4657 -0.7573  0.1181
  611TIP3    H123248   0.962   1.005  15.139  1.6387 -0.0978  2.3390
  611TIP3    H223249   1.069   0.985  15.033 -1.7050 -1.1903 -1.0903
  612TIP3   OH223250   4.058   1.191  12.607 -0.3129  0.0014  0.3316
  612TIP3    H123251   4.149   1.162  12.598 -1.0944 -2.3681 -1.0745
  612TIP3    H223252   4.028   1.204  12.517 -1.1358  1.6730  0.8020
  613TIP3   OH223253   3.058   0.644   4.161  0.1518  0.0588  0.1059
  613TIP3    H123254   3.009   0.614   4.238  1.8984 -0.3806  1.1070
  613TIP3    H223255   3.108   0.720   4.192 -1.4809  1.8667 -1.4679
  614TIP3   OH223256   0.714   4.879  14.034  0.8109 -0.4243  0.1973
  614TIP3    H123257   0.760   4.867  14.117  1.0711 -0.8541 -0.0070
  614TIP3    H223258   0.735   4.801  13.983  1.0316  0.0534 -0.4496
  615TIP3   OH223259   0.731   1.224   0.681  0.4814  0.1403 -0.4763
  615TIP3    H123260   0.700   1.269   0.603  1.4042 -1.1922 -1.6536
  615TIP3    H223261   0.651   1.195   0.725 -0.0368  0.1155 -1.4079
  616TIP3   OH223262   4.899   3.015   0.114 -0.0316  0.3885 -0.4175
  616TIP3    H123263   4.850   2.949   0.065  1.4883 -1.5014  0.4421
  616TIP3    H223264   4.957   3.055   0.050  0.5945 -0.7109 -0.5532
  617TIP3   OH223265   3.298   4.661   4.733  0.3055 -0.3503  0.2414
  617TIP3    H123266   3.299   4.749   4.694 -0.6217 -0.4308  0.0038
  617TIP3    H223267   3.338   4.605   4.667  0.6804 -0.1537  0.2949
  618TIP3   OH223268   1.352   4.565  17.026  0.6468 -0.1677  0.2399
  618TIP3    H123269   1.331   4.584  17.117  0.5891 -1.6883  0.5776
  618TIP3    H223270   1.432   4.613  17.008 -0.3667  1.6845  0.4905
  619TIP3   OH223271   3.213   2.959   3.981 -0.2155  0.5254  0.0995
  619TIP3    H123272   3.251   2.913   3.907 -0.3018 -0.9046  0.9018
  619TIP3    H223273   3.128   2.990   3.950  0.0523  0.5667 -0.5957
  620TIP3   OH223274   1.883   4.534  11.174 -0.0249  0.1146 -0.1900
  620TIP3    H123275   1.814   4.501  11.116  0.1143 -1.7169  0.6154
  620TIP3    H223276   1.837   4.588  11.238 -0.8815 -1.7053  0.8064
  621TIP3   OH223277   4.876   5.907  15.561 -0.8628 -0.4850 -0.0229
  621TIP3    H123278   4.929   5.896  15.482  0.1655  1.3890  0.3395
  621TIP3    H223279   4.785   5.896  15.531 -0.5107  0.3764 -1.5417
  622TIP3   OH223280   6.260   4.753  13.099 -0.3554 -0.0710  0.1621
  622TIP3    H123281   6.350   4.759  13.066 -0.0733  0.5410  0.9973
  622TIP3    H223282   6.245   4.660  13.111  0.7731 -0.1094  1.5534
  623TIP3   OH223283   2.922   2.242  12.803  0.7383 -0.0447  0.6254
  623TIP3    H123284   2.924   2.149  12.782 -0.2617  0.2785 -1.0679
  623TIP3    H223285   3.012   2.262  12.831  1.3990 -1.1899 -0.5780
  624TIP3   OH223286   6.551   1.422   6.132  0.3347 -0.2145  0.3784
  624TIP3    H123287   6.631   1.415   6.184 -0.2379 -0.2666  1.2780
  624TIP3    H223288   6.572   1.380   6.049  1.8589  1.4790 -0.1618
  625TIP3   OH223289   2.749   2.571  13.546 -0.1611 -0.1595  0.0320
  625TIP3    H123290   2.709   2.540  13.628 -1.4427 -1.4848 -1.0338
  625TIP3    H223291   2.783   2.658  13.567 -2.8049  0.6709  1.3214
  626TIP3   OH223292   6.442   0.589   1.000  0.0713 -0.4692  0.3140
  626TIP3    H123293   6.479   0.661   0.950 -0.7060 -0.4435 -0.2408
  626TIP3    H223294   6.355   0.619   1.025 -0.4713 -1.4093 -0.3752
  627TIP3   OH223295   6.316   6.217   1.024 -0.1203  0.0651 -0.2022
  627TIP3    H123296   6.233   6.260   1.004  0.2915  0.5490 -0.8928
  627TIP3    H223297   6.291   6.134   1.063 -0.9493 -0.3526 -1.5759
  628TIP3   OH223298   0.517   1.570  16.756 -0.1076 -0.7800 -0.3221
  628TIP3    H123299   0.537   1.565  16.663  2.0968  1.9983 -0.1223
  628TIP3    H223300   0.550   1.656  16.783 -0.5965 -1.5238  3.0464
  629TIP3   OH223301   0.067   1.464  14.481 -0.1594 -0.1010  0.2476
  629TIP3    H123302   0.123   1.541  14.491 -0.9939  0.2537  3.7380
  629TIP3    H223303   0.025   1.475  14.396  4.3428 -0.0393 -2.2838
  630TIP3   OH223304   6.437   3.316   4.728  0.5404 -0.2229 -0.4740
  630TIP3    H123305   6.370   3.363   4.778 -1.0778 -0.8608 -1.9525
  630TIP3    H223306   6.511   3.309   4.788 -0.4487  1.1203  0.9805
  631TIP3   OH223307   4.041   3.434   3.783 -0.4368 -0.5475 -0.8118
  631TIP3    H123308   4.090   3.512   3.754 -1.1810  0.1844 -0.1494
  631TIP3    H223309   4.109   3.371   3.807  0.1974  0.3376 -0.2072
  632TIP3   OH223310   2.378   4.424   3.862 -0.5712  0.4058 -0.5383
  632TIP3    H123311   2.468   4.452   3.882  0.7692 -1.6129 -3.0771
  632TIP3    H223312   2.329   4.443   3.942  2.0713  1.7247  0.9209
  633TIP3   OH223313   1.612   4.891  17.318 -0.4477  0.2975 -0.4579
  633TIP3    H123314   1.679   4.827  17.342 -1.0369 -0.9892 -2.0702
  633TIP3    H223315   1.600   4.944  17.397  3.1160  1.2357 -0.3817
  634TIP3   OH223316   0.934   2.815  12.020  0.0122 -0.1379 -0.7796
  634TIP3    H123317   0.848   2.848  12.046  0.1670 -0.8561  0.7426
  634TIP3    H223318   0.919   2.723  12.000 -0.0088  0.2710 -2.9679
  635TIP3   OH223319   3.901   3.565   0.801 -0.3363 -0.6661  0.3950
  635TIP3    H123320   3.937   3.527   0.881  0.3536 -0.7061  0.0733
  635TIP3    H223321   3.821   3.516   0.785 -0.6555 -0.4452  1.2336
  636TIP3   OH223322   6.299   3.770  16.621  0.5794  0.7413  0.4047
  636TIP3    H123323   6.236   3.699  16.616 -0.6847  1.7819  0.8040
  636TIP3    H223324   6.373   3.741  16.568  0.6013 -1.3242  1.4535
  637TIP3   OH223325   3.436   6.153   1.511 -0.5068 -0.2307  0.7326
  637TIP3    H123326   3.452   6.171   1.418  0.3853 -2.5827  0.3506
  637TIP3    H223327   3.451   6.237   1.554 -1.8508  1.1680 -1.2943
  638TIP3   OH223328   1.954   1.988  17.080 -0.1141  0.0016 -0.3935
  638TIP3    H123329   1.992   1.976  16.993  0.7338  0.0032 -0.0334
  638TIP3    H223330   2.029   2.000  17.138 -0.6179 -0.7910  0.4667
  639TIP3   OH223331   2.624   3.924  14.632 -0.7094 -0.3651 -0.0118
  639TIP3    H123332   2.615   3.831  14.655  0.1121 -0.3581  0.4091
  639TIP3    H223333   2.708   3.928  14.586 -1.0281  0.0763 -0.5550
  640TIP3   OH223334   6.649   5.736   3.725 -0.2840  0.4449 -0.2548
  640TIP3    H123335   6.728   5.681   3.725 -0.0599  0.6930  1.6552
  640TIP3    H223336   6.652   5.783   3.642 -0.0456 -1.7875 -1.5779
  641TIP3   OH223337   2.322   1.811   6.849  0.6283 -0.4494  0.4757
  641TIP3    H123338   2.388   1.746   6.828 -0.1807 -0.6036 -1.9811
  641TIP3    H223339   2.351   1.890   6.803 -1.7743 -1.0796 -2.4863
  642TIP3   OH223340   0.886   1.073  17.152 -0.0334 -0.0260 -0.4919
  642TIP3    H123341   0.814   1.031  17.105 -0.3518  0.5598 -0.5418
  642TIP3    H223342   0.843   1.137  17.209  0.3351 -0.7739  0.6751
  643TIP3   OH223343   6.312   6.135   3.307  0.1319  0.3323  0.2483
  643TIP3    H123344   6.371   6.181   3.367  2.1627  0.5333 -1.7825
  643TIP3    H223345   6.324   6.180   3.223 -0.4637 -1.7055 -0.9810
  644TIP3   OH223346   5.306   3.732   4.408  0.2115 -0.0162 -0.4425
  644TIP3    H123347   5.307   3.828   4.412  0.0709  0.0694 -1.7852
  644TIP3    H223348   5.364   3.711   4.334 -0.0357 -0.9470 -0.3839
  645TIP3   OH223349   2.896   0.734   3.689 -0.3019  0.4631  0.2984
  645TIP3    H123350   2.910   0.813   3.741  0.1611  0.0599  0.8057
  645TIP3    H223351   2.812   0.747   3.647  0.6424  2.0800 -1.1970
  646TIP3   OH223352   3.551   6.367   1.099  0.2162 -0.5224 -0.5762
  646TIP3    H123353   3.505   6.440   1.139  1.1206  0.2612 -0.9246
  646TIP3    H223354   3.570   6.397   1.010  0.6231 -1.1751 -0.7146
  647TIP3   OH223355   4.979   5.442   3.068  0.1557  0.0649  0.6983
  647TIP3    H123356   4.981   5.536   3.049 -4.1415  0.2834  0.5182
  647TIP3    H223357   4.963   5.437   3.162  0.0811 -0.5071  0.6574
  648TIP3   OH223358   6.322   3.627  15.823  0.0595 -0.7028  0.0900
  648TIP3    H123359   6.356   3.716  15.832  0.1908 -0.6414 -0.9042
  648TIP3    H223360   6.399   3.571  15.837 -0.2555 -0.7424  1.9890
  649TIP3   OH223361   6.543   1.839  12.814 -0.4349  0.0352 -0.3372
  649TIP3    H123362   6.474   1.774  12.820 -0.3586  0.0020  0.2318
  649TIP3    H223363   6.606   1.814  12.881 -0.9168  1.2877  0.6217
  650TIP3   OH223364   5.072   5.679  12.007 -0.2140 -0.4741 -0.8407
  650TIP3    H123365   5.023   5.655  11.928  1.1922 -0.8721 -1.6234
  650TIP3    H223366   5.161   5.693  11.976 -0.2880  2.8026  0.1093
  651TIP3   OH223367   1.896   3.598   2.646  1.0299  0.0197 -0.3442
  651TIP3    H123368   1.987   3.624   2.663  0.4385  0.8609  1.8351
  651TIP3    H223369   1.889   3.510   2.682  1.3681 -0.7370 -2.0249
  652TIP3   OH223370   3.100   2.016  13.128 -0.0427  0.3782  0.5844
  652TIP3    H123371   3.112   2.100  13.173 -0.9836 -0.6826  2.9944
  652TIP3    H223372   3.059   1.960  13.194 -0.7668 -1.5613 -1.4153
  653TIP3   OH223373   4.324   5.564  13.674 -0.2344 -0.4871 -0.1062
  653TIP3    H123374   4.260   5.611  13.620 -0.3316 -0.8015 -0.2635
  653TIP3    H223375   4.409   5.590  13.639 -0.2756 -0.1631  0.0252
  654TIP3   OH223376   1.182   4.471   4.185  0.0759  0.0957  0.5525
  654TIP3    H123377   1.175   4.406   4.116 -1.2761 -1.2461  1.8729
  654TIP3    H223378   1.232   4.543   4.146 -0.6627 -0.5910 -1.7878
  655TIP3   OH223379   3.800   1.282  10.739 -0.0243  0.0855 -0.6872
  655TIP3    H123380   3.827   1.202  10.696  1.0992 -0.8176  1.5174
  655TIP3    H223381   3.813   1.265  10.833 -1.8267  2.0752  0.0241
  656TIP3   OH223382   6.278   4.400  14.682  0.6956  0.1880 -1.1603
  656TIP3    H123383   6.208   4.419  14.620 -1.2140 -1.6956  0.2680
  656TIP3    H223384   6.274   4.305  14.694  1.5360  0.3990  1.2059
  657TIP3   OH223385   0.007   6.440  15.590  0.0971  0.1250 -0.1655
  657TIP3    H123386  -0.029   6.477  15.671 -0.7919 -0.3680 -0.3225
  657TIP3    H223387  -0.019   6.501  15.522  0.2194  0.1628 -0.1783
  658TIP3   OH223388   2.845   1.481   1.320  0.0493  0.3947 -0.3800
  658TIP3    H123389   2.875   1.521   1.401  0.8833 -2.6716  0.9692
  658TIP3    H223390   2.874   1.390   1.326 -0.9020 -0.2528 -3.6090
  659TIP3   OH223391   3.202   3.577  13.254  0.5986  0.0479  0.5494
  659TIP3    H123392   3.264   3.650  13.253  0.6973 -0.0009  1.9466
  659TIP3    H223393   3.256   3.499  13.242  0.6021  0.1243  0.0401
  660TIP3   OH223394   5.157   5.042   5.774  0.1189  0.1589 -0.4581
  660TIP3    H123395   5.231   5.095   5.746 -0.8200  1.8417  0.1614
  660TIP3    H223396   5.085   5.068   5.717 -0.9186  1.1755  1.2151
  661TIP3   OH223397   0.157   2.524  14.718  0.2225 -0.3447 -0.1100
  661TIP3    H123398   0.098   2.582  14.766 -0.9772 -1.7262  0.1628
  661TIP3    H223399   0.201   2.474  14.786  1.0548  0.0444 -0.3525
  662TIP3   OH223400   3.408   4.728  16.568 -0.3707 -0.0486  0.2968
  662TIP3    H123401   3.366   4.779  16.638 -1.3562 -1.1938  0.5692
  662TIP3    H223402   3.499   4.758  16.568 -1.0481  2.2364 -0.0299
  663TIP3   OH223403   2.487   6.508   4.609  0.1035  0.2847 -0.0792
  663TIP3    H123404   2.515   6.581   4.554 -0.0711  0.8270  0.5392
  663TIP3    H223405   2.561   6.493   4.668 -0.1499  0.4545  0.2846
  664TIP3   OH223406   0.715   0.319  11.700 -0.0273 -0.3063  0.0942
  664TIP3    H123407   0.774   0.394  11.702  0.9111 -1.0385  2.0353
  664TIP3    H223408   0.773   0.244  11.684 -0.5297 -0.9334  1.1457
  665TIP3   OH223409   0.557   0.393  14.670  0.2585  0.0674 -0.2973
  665TIP3    H123410   0.569   0.440  14.753  2.3487 -0.7987 -0.0650
  665TIP3    H223411   0.466   0.412  14.645 -1.0713 -1.1120  3.0973
  666TIP3   OH223412   2.967   0.166   3.100 -0.4468 -0.0799  0.6415
  666TIP3    H123413   2.969   0.106   3.174 -1.0491  1.5432  2.0335
  666TIP3    H223414   2.876   0.196   3.095 -0.6951 -0.9858 -1.5042
  667TIP3   OH223415   3.494   0.437   2.906 -0.3024 -0.3375  0.0762
  667TIP3    H123416   3.581   0.403   2.926  0.3798  1.2342 -0.0964
  667TIP3    H223417   3.436   0.397   2.971  0.7756 -0.3035  1.0687
  668TIP3   OH223418   4.439   3.310   0.847 -0.5017  0.7149 -0.1498
  668TIP3    H123419   4.467   3.336   0.759 -0.1761  0.0912 -0.2373
  668TIP3    H223420   4.514   3.331   0.903 -0.0684 -0.4061 -0.2899
  669TIP3   OH223421   3.492   2.887  17.119 -0.0504 -0.0431  0.2561
  669TIP3    H123422   3.547   2.965  17.134 -0.4835  0.8847 -2.4337
  669TIP3    H223423   3.552   2.823  17.082  0.0479 -0.6167  1.3536
  670TIP3   OH223424   1.544   5.543  14.583 -0.4725  0.4434 -0.2610
  670TIP3    H123425   1.513   5.602  14.652  0.8281  0.7616  0.0870
  670TIP3    H223426   1.470   5.487  14.564 -1.4390  1.5607  0.0967
  671TIP3   OH223427   1.627   1.600   0.167  0.7205 -0.4618 -0.4631
  671TIP3    H123428   1.549   1.578   0.116  0.4312 -0.7312  0.0944
  671TIP3    H223429   1.610   1.689   0.198  0.0072 -1.0238  0.8164
  672TIP3   OH223430   6.335   4.417   1.646 -0.1557 -0.0503 -0.4697
  672TIP3    H123431   6.401   4.426   1.577 -0.6366 -0.2109 -0.9493
  672TIP3    H223432   6.272   4.487   1.628 -0.7456 -0.6345 -0.7098
  673TIP3   OH223433   0.813   3.101   1.078  0.1772  0.1802  0.0556
  673TIP3    H123434   0.751   3.119   1.007 -0.2622 -0.4609  0.2730
  673TIP3    H223435   0.758   3.079   1.153  0.6459  0.7843  0.5809
  674TIP3   OH223436   6.232   6.598   5.319 -0.4934 -0.1680  0.4450
  674TIP3    H123437   6.214   6.569   5.408 -0.1821 -1.1964  0.1800
  674TIP3    H223438   6.237   6.694   5.325 -2.2367 -0.0817  1.2173
  675TIP3   OH223439   0.397   5.407  15.934  0.0429 -0.0151  0.2141
  675TIP3    H123440   0.312   5.450  15.940  0.5674  0.9307  1.1194
  675TIP3    H223441   0.422   5.415  15.841 -0.1612  1.0741  0.2407
  676TIP3   OH223442   0.268   1.130  15.808 -0.4026  0.4320  0.1344
  676TIP3    H123443   0.231   1.213  15.837  0.3633  0.3305  1.4887
  676TIP3    H223444   0.230   1.115  15.721 -1.8241  1.3680  0.5680
  677TIP3   OH223445   2.595   2.233   4.045  0.6518  0.1777  0.1222
  677TIP3    H123446   2.558   2.169   4.107 -1.0141  0.5922 -0.3862
  677TIP3    H223447   2.535   2.308   4.049  1.7173  1.0927 -0.4204
  678TIP3   OH223448   6.241   3.027   4.654  0.4933  0.4200 -0.0903
  678TIP3    H123449   6.337   3.030   4.662  0.4267  1.1434  0.6156
  678TIP3    H223450   6.210   3.087   4.722 -0.5855 -2.2109  1.8838
  679TIP3   OH223451   1.727   5.571   4.165  0.3815  0.0965 -0.1842
  679TIP3    H123452   1.669   5.495   4.168  0.0255  0.3272 -1.0938
  679TIP3    H223453   1.669   5.646   4.175  0.6910  0.2686  0.3494
  680TIP3   OH223454   3.439   1.842   0.645 -0.1012  0.5013  0.5637
  680TIP3    H123455   3.421   1.843   0.739 -0.0159 -1.0367  0.6285
  680TIP3    H223456   3.400   1.922   0.611 -2.0237  0.0381  1.5874
  681TIP3   OH223457   2.429   2.448   4.809  0.7093  0.3747 -0.3924
  681TIP3    H123458   2.479   2.518   4.851  0.8002  0.8251 -1.2289
  681TIP3    H223459   2.360   2.427   4.871  1.1158  0.7012  0.1801
  682TIP3   OH223460   6.505   6.448  11.440 -0.4130  0.2958 -1.0621
  682TIP3    H123461   6.410   6.447  11.441 -0.4313  1.2423 -0.5357
  682TIP3    H223462   6.528   6.539  11.458  0.6090 -0.2810  0.7402
  683TIP3   OH223463   1.635   3.713  16.080  0.1097 -0.1881  0.0949
  683TIP3    H123464   1.541   3.706  16.093  0.4136 -1.6635  1.8044
  683TIP3    H223465   1.655   3.651  16.009 -0.1611 -0.0260 -0.1258
  684TIP3   OH223466   1.783   6.150  16.932  0.2564 -0.1688 -0.0888
  684TIP3    H123467   1.826   6.098  17.000  1.8559 -0.2709 -1.1421
  684TIP3    H223468   1.722   6.206  16.980  0.4777 -1.0804  1.3140
  685TIP3   OH223469   1.425   6.377   4.307  0.3107  1.1112  0.4208
  685TIP3    H123470   1.501   6.407   4.357  0.0129 -0.8457  2.2134
  685TIP3    H223471   1.462   6.344   4.225  1.1300  2.0287  0.3994
  686TIP3   OH223472   0.398   2.248   0.984 -0.0247 -0.2524  0.4020
  686TIP3    H123473   0.438   2.170   1.021  0.1659 -0.5921 -0.5053
  686TIP3    H223474   0.311   2.251   1.023  0.1460 -0.6366  0.8219
  687TIP3   OH223475   2.539   2.754  14.298 -0.3058  0.0206  0.1386
  687TIP3    H123476   2.595   2.820  14.339 -1.3774 -0.1884  2.0381
  687TIP3    H223477   2.534   2.684  14.363  0.9221 -2.0822 -1.8689
  688TIP3   OH223478   2.761   5.988  16.022 -0.0035  0.1556 -0.4065
  688TIP3    H123479   2.786   5.922  15.957  1.1668  0.6693 -0.5052
  688TIP3    H223480   2.699   5.943  16.079  0.6453 -0.9974 -0.5693
  689TIP3   OH223481   5.758   1.180   3.565 -0.2214  0.1472  0.2730
  689TIP3    H123482   5.806   1.260   3.544  1.0492 -1.0339 -1.6402
  689TIP3    H223483   5.745   1.137   3.480  1.9636 -3.1897  1.4349
  690TIP3   OH223484   2.424   6.473   0.670 -0.2024  0.4645  0.5913
  690TIP3    H123485   2.433   6.394   0.723 -1.3123  0.4972  0.8593
  690TIP3    H223486   2.481   6.458   0.595 -0.3759 -0.5950  0.6454
  691TIP3   OH223487   0.199   1.983   2.506 -0.4868 -0.7017  0.0303
  691TIP3    H123488   0.177   1.903   2.555  2.5562  0.6313  4.1736
  691TIP3    H223489   0.130   2.045   2.530 -0.3284 -0.7747  0.7087
  692TIP3   OH223490   0.029   1.445  15.177 -0.0309 -0.1264  0.1076
  692TIP3    H123491   0.048   1.378  15.111 -1.2161  0.1237 -0.5222
  692TIP3    H223492   0.102   1.506  15.171  0.1239 -0.3723 -0.6331
  693TIP3   OH223493   5.614   5.552   1.726  0.5860  0.4885  0.0968
  693TIP3    H123494   5.613   5.506   1.642  0.3354 -1.6264  1.2086
  693TIP3    H223495   5.530   5.529   1.767  0.7742  1.3662  1.0079
  694TIP3   OH223496   0.046   3.066  13.885  0.2564  0.1549 -0.2329
  694TIP3    H123497   0.035   2.995  13.821 -2.0950 -0.1256  0.3681
  694TIP3    H223498   0.132   3.050  13.924  0.4981 -1.3779 -1.2929
  695TIP3   OH223499   0.733   2.739   1.221  0.5964 -0.0139 -0.0099
  695TIP3    H123500   0.691   2.789   1.291  1.6492 -1.1708  1.5225
  695TIP3    H223501   0.670   2.741   1.149 -0.5008  1.2731  0.9345
  696TIP3   OH223502   3.694   5.902   0.478 -0.2769 -0.2070 -0.1594
  696TIP3    H123503   3.678   5.912   0.572  0.7289  0.7361 -0.0718
  696TIP3    H223504   3.674   5.810   0.460 -1.6345 -0.1169  0.7316
  697TIP3   OH223505   4.126   3.599  15.704 -0.0527 -0.2990 -0.1137
  697TIP3    H123506   4.214   3.563  15.692 -0.5582 -1.9766  0.7919
  697TIP3    H223507   4.097   3.622  15.616  0.8245 -0.9040 -0.5761
  698TIP3   OH223508   0.282   4.338  12.000 -0.2426  0.1403  0.2384
  698TIP3    H123509   0.232   4.323  11.920  0.1333 -1.5657  0.2694
  698TIP3    H223510   0.345   4.265  12.003 -1.0770 -0.5914  2.6913
  699TIP3   OH223511   1.869   4.257   6.882 -0.2376  0.4426 -0.1060
  699TIP3    H123512   1.820   4.306   6.948  1.1695  1.1542  0.4721
  699TIP3    H223513   1.935   4.209   6.932  0.8456  0.9726 -0.9620
  700TIP3   OH223514   5.873   4.924   2.919  0.0683 -0.3097  0.3386
  700TIP3    H123515   5.936   4.983   2.960 -0.8876 -0.8245  2.6897
  700TIP3    H223516   5.789   4.951   2.954 -0.8382 -0.7703 -1.3864
  701TIP3   OH223517   6.716   2.145  16.237 -0.6644  0.2105 -0.2686
  701TIP3    H123518   6.763   2.211  16.287  0.6124 -2.3786  2.2284
  701TIP3    H223519   6.624   2.175  16.240 -0.0086  2.4364 -0.3231
  702TIP3   OH223520   2.833   4.101  15.418  0.1320 -0.1021  0.1429
  702TIP3    H123521   2.744   4.067  15.423 -0.3379  1.1432  0.5914
  702TIP3    H223522   2.841   4.158  15.494  1.7048 -1.0654  0.7513
  703TIP3   OH223523   4.143   5.582  15.636  0.1468  0.3523  0.4722
  703TIP3    H123524   4.056   5.572  15.675  0.7042 -0.1039  1.6110
  703TIP3    H223525   4.181   5.657  15.681  1.3263 -1.0212  1.8178
  704TIP3   OH223526   5.003   5.714  16.186 -0.2376  0.4128 -0.2887
  704TIP3    H123527   4.951   5.664  16.123 -0.5699  1.9703 -1.2979
  704TIP3    H223528   5.031   5.792  16.138 -0.0224  1.3722  1.3275
  705TIP3   OH223529   0.106   5.337  13.169 -0.3969  0.3307  0.1084
  705TIP3    H123530   0.127   5.427  13.144 -0.7125 -0.3200 -2.8293
  705TIP3    H223531   0.176   5.285  13.129 -1.5889 -0.9111 -0.4200
  706TIP3   OH223532   4.186   3.479   0.882 -0.4411  0.0254  0.5215
  706TIP3    H123533   4.110   3.456   0.936 -1.3330  0.6821 -0.4307
  706TIP3    H223534   4.201   3.401   0.828 -1.4774  0.4618 -0.4424
  707TIP3   OH223535   0.481   5.239  12.130  0.6966 -0.2677 -0.3921
  707TIP3    H123536   0.570   5.248  12.096  0.3608 -0.4080 -1.3298
  707TIP3    H223537   0.467   5.144  12.134  1.3421 -0.3316  1.8170
  708TIP3   OH223538   3.868   0.331  15.194 -0.2803 -0.1486  0.1796
  708TIP3    H123539   3.943   0.342  15.251  0.1091  0.4857 -0.4388
  708TIP3    H223540   3.793   0.359  15.246 -0.2762 -1.9115  1.2175
  709TIP3   OH223541   6.179   2.301  13.672  0.0312 -0.1715 -0.1106
  709TIP3    H123542   6.131   2.224  13.643 -0.0759  0.0471 -0.5259
  709TIP3    H223543   6.184   2.292  13.767 -0.4842 -0.4021 -0.1005
  710TIP3   OH223544   4.820   6.539  17.179  0.4213 -0.4847  0.0033
  710TIP3    H123545   4.741   6.498  17.143  0.4338 -1.8227  1.3588
  710TIP3    H223546   4.866   6.574  17.103 -1.8382  1.0784 -0.7758
  711TIP3   OH223547   0.040   2.845  13.342 -0.4927 -0.5769  0.1636
  711TIP3    H123548   0.020   2.758  13.308 -0.7531 -0.6046  0.3771
  711TIP3    H223549  -0.045   2.879  13.371 -0.5566  0.1492 -0.8279
  712TIP3   OH223550   6.743   5.648  15.450  0.2972 -0.1369  0.5740
  712TIP3    H123551   6.692   5.706  15.507  1.4087  1.0960  0.3638
  712TIP3    H223552   6.757   5.699  15.370 -0.4941 -1.5129 -0.4708
  713TIP3   OH223553   0.413   2.143   4.455 -0.7794 -0.3693 -0.1451
  713TIP3    H123554   0.423   2.209   4.524 -0.4855 -0.0047 -0.5357
  713TIP3    H223555   0.391   2.193   4.377  0.6760 -0.6172 -0.7347
  714TIP3   OH223556   2.615   1.408  12.781  0.8026  0.4467 -0.1782
  714TIP3    H123557   2.639   1.488  12.735  2.6336 -0.0758 -0.2175
  714TIP3    H223558   2.529   1.384  12.745  0.2410  2.3413 -0.1818
  715TIP3   OH223559   2.034   4.271  12.139 -0.1919  0.4246 -0.3683
  715TIP3    H123560   2.111   4.285  12.194 -1.4047  1.8173  1.0647
  715TIP3    H223561   2.045   4.182  12.105  1.7079  0.3452  0.3259
  716TIP3   OH223562   6.709   6.553   3.508  0.2197  0.5570  0.2731
  716TIP3    H123563   6.653   6.520   3.579  0.6551 -0.9725 -0.0615
  716TIP3    H223564   6.764   6.479   3.485 -0.1293  0.9105 -1.9042
  717TIP3   OH223565   0.344   3.019   0.396  0.2511  0.4882  0.1032
  717TIP3    H123566   0.361   3.054   0.308 -1.2841 -0.1925 -0.4841
  717TIP3    H223567   0.324   2.927   0.382  0.6524  0.2075  1.2568
  718TIP3   OH223568   2.001   6.127  11.996  0.4306 -0.3157  0.3573
  718TIP3    H123569   1.923   6.072  12.005  0.2895 -0.3904 -1.0456
  718TIP3    H223570   1.968   6.207  11.955  1.2334 -0.7829 -1.2905
  719TIP3   OH223571   0.018   1.760   2.866 -0.0204  0.2541  0.9745
  719TIP3    H123572   0.078   1.713   2.924 -0.0287 -0.9233  0.0620
  719TIP3    H223573  -0.062   1.707   2.866 -0.0842  0.3340  0.0432
  720TIP3   OH223574   6.438   5.274   5.909  0.3521  0.5738  0.1492
  720TIP3    H123575   6.366   5.335   5.894 -0.7212 -0.8343 -0.6918
  720TIP3    H223576   6.426   5.206   5.842  0.9433 -1.0328  1.6025
  721TIP3   OH223577   3.846   5.539   4.517  0.2818  0.0365  0.7461
  721TIP3    H123578   3.830   5.459   4.567  0.6336 -0.9417 -0.6392
  721TIP3    H223579   3.862   5.606   4.583  0.3435 -1.1123  1.9345
  722TIP3   OH223580   6.344   2.270   0.912 -0.1303  0.4383 -0.3081
  722TIP3    H123581   6.387   2.230   0.837 -0.4548 -0.1386 -0.1870
  722TIP3    H223582   6.394   2.239   0.988  1.7092  2.8757 -0.3777
  723TIP3   OH223583   3.657   5.622  11.387  0.4988  0.4775  0.2998
  723TIP3    H123584   3.634   5.674  11.310 -0.6632  0.1050  0.3732
  723TIP3    H223585   3.695   5.542  11.351 -1.4108 -0.3513  0.0262
  724TIP3   OH223586   3.519   0.186  15.849 -0.1627  0.5090  1.1246
  724TIP3    H123587   3.463   0.127  15.799 -0.4479  1.4667  0.2681
  724TIP3    H223588   3.559   0.243  15.782 -0.2397  1.5618  1.9463
  725TIP3   OH223589   1.289   5.609   5.034 -0.1669  0.1076 -0.6547
  725TIP3    H123590   1.342   5.560   5.097 -1.0652  0.3950  0.3409
  725TIP3    H223591   1.203   5.618   5.075 -0.6240  0.7536 -1.6978
  726TIP3   OH223592   0.695   4.301   2.248 -0.0514  0.0516 -0.2739
  726TIP3    H123593   0.684   4.306   2.153  0.1724 -1.3935 -0.4060
  726TIP3    H223594   0.626   4.357   2.283 -0.5004  0.1555 -1.2805
  727TIP3   OH223595   1.105   1.170   3.736 -0.1623 -0.2065 -0.2364
  727TIP3    H123596   1.164   1.095   3.742  1.0288  0.7526  0.7036
  727TIP3    H223597   1.079   1.173   3.644  0.7941 -1.0007 -0.5545
  728TIP3   OH223598   3.953   3.103  11.142 -0.5320  0.6662 -0.2500
  728TIP3    H123599   3.901   3.068  11.070 -1.6699 -0.2151  0.9722
  728TIP3    H223600   3.934   3.197  11.142  1.3949  1.1708 -2.6059
  729TIP3   OH223601   0.103   5.270  16.518 -0.1799 -0.3302 -0.0801
  729TIP3    H123602   0.187   5.242  16.556 -0.3407 -0.7064 -0.0046
  729TIP3    H223603   0.043   5.199  16.538 -0.2500 -0.5819 -1.1375
  730TIP3   OH223604   4.891   5.973   3.179  0.1415  0.0131  0.7268
  730TIP3    H123605   4.892   5.921   3.260 -2.0709 -0.5250  0.4628
  730TIP3    H223606   4.802   6.006   3.173  0.0138 -0.6160 -1.9106
  731TIP3   OH223607   5.570   0.386   0.724 -0.2003  0.4004  0.1478
  731TIP3    H123608   5.515   0.389   0.645 -1.1821  0.8320  0.8201
  731TIP3    H223609   5.612   0.301   0.721  1.0835  1.0364 -1.6824
  732TIP3   OH223610   5.385   4.224  15.225 -0.7815  0.6917 -0.3004
  732TIP3    H123611   5.372   4.153  15.288 -4.5404  2.1065  0.7557
  732TIP3    H223612   5.359   4.187  15.141  0.5718 -0.0893 -0.4061
  733TIP3   OH223613   3.610   1.780   5.226 -0.2411  0.2988  0.4729
  733TIP3    H123614   3.644   1.715   5.288 -0.8171 -0.5259 -0.0545
  733TIP3    H223615   3.622   1.740   5.140 -1.3901  0.5173  0.1917
  734TIP3   OH223616   4.043   0.553  14.290 -0.2527  0.1422  0.4111
  734TIP3    H123617   4.081   0.623  14.343  0.1643 -0.2629  0.6476
  734TIP3    H223618   4.009   0.598  14.213 -0.2628  0.6474  0.7040
  735TIP3   OH223619   0.278   5.331  11.207  0.2852  0.6243 -0.3257
  735TIP3    H123620   0.362   5.344  11.163  0.0484  0.0663 -0.9634
  735TIP3    H223621   0.271   5.236  11.217 -0.4966  0.6329 -0.7254
  736TIP3   OH223622   5.106   2.574  12.651 -0.1656 -0.5236  0.1959
  736TIP3    H123623   5.013   2.572  12.675  0.1644 -2.9765  1.6553
  736TIP3    H223624   5.135   2.483  12.659  1.8491 -0.2700 -2.6010
  737TIP3   OH223625   2.487   2.314  15.188  0.5907 -0.2006  0.6657
  737TIP3    H123626   2.559   2.329  15.250  0.4744 -0.2800  0.8211
  737TIP3    H223627   2.425   2.385  15.205  1.1821  0.5615 -0.2893
  738TIP3   OH223628   5.438   0.110  15.420 -0.3972 -0.0158 -0.1061
  738TIP3    H123629   5.471   0.124  15.332 -1.5429 -1.5238 -0.8255
  738TIP3    H223630   5.402   0.195  15.446  0.9145  0.7216 -0.6481
  739TIP3   OH223631   0.072   1.799   1.529 -0.0908 -0.0149  1.0915
  739TIP3    H123632   0.005   1.824   1.592  0.2957  3.3561  0.3919
  739TIP3    H223633   0.135   1.747   1.579 -2.3347 -1.8916  2.1353
  740TIP3   OH223634   3.446   2.147  14.398 -0.1442 -0.5687  1.2161
  740TIP3    H123635   3.480   2.106  14.477  0.0172 -2.0293  0.4338
  740TIP3    H223636   3.396   2.077  14.355  0.6798 -0.1356 -0.5147
  741TIP3   OH223637   1.449   2.870   5.568  0.4189  0.6489  0.3227
  741TIP3    H123638   1.528   2.879   5.515  0.6969  1.8890  0.9150
  741TIP3    H223639   1.380   2.909   5.514 -0.1036 -1.6288 -0.7715
  742TIP3   OH223640   4.427   1.971  15.266 -0.0472 -0.5918 -0.3918
  742TIP3    H123641   4.412   2.017  15.348  0.4865 -0.4899 -0.3496
  742TIP3    H223642   4.482   2.029  15.214 -1.1744 -0.2152 -1.2314
  743TIP3   OH223643   3.218   3.317  14.062 -0.0996  0.2794 -0.5205
  743TIP3    H123644   3.299   3.285  14.023  1.5196  3.7818 -0.4567
  743TIP3    H223645   3.244   3.351  14.147 -1.7293  1.0547 -0.2885
  744TIP3   OH223646   3.954   5.135   0.959 -0.1268  0.5038 -0.4742
  744TIP3    H123647   3.879   5.135   0.899 -0.9180 -0.4826  0.4829
  744TIP3    H223648   3.931   5.073   1.027  1.4194  0.4478  0.0506
  745TIP3   OH223649   4.238   2.352   5.131  0.9545 -0.9199 -0.0078
  745TIP3    H123650   4.252   2.278   5.190  0.7318 -2.1631 -1.4537
  745TIP3    H223651   4.194   2.314   5.055  0.4614  0.7863 -0.6156
  746TIP3   OH223652   2.385   3.050   0.324 -0.0684  0.3469  0.1208
  746TIP3    H123653   2.463   3.104   0.314  0.0001 -0.1121 -2.4997
  746TIP3    H223654   2.418   2.964   0.348 -0.0925  0.9972  2.8278
  747TIP3   OH223655   4.356   5.934  13.318  0.1536  0.0661  0.1004
  747TIP3    H123656   4.438   5.926  13.268  0.0082 -1.6485  0.0909
  747TIP3    H223657   4.384   5.930  13.409 -0.0350 -2.8657  0.1226
  748TIP3   OH223658   1.707   3.239   3.379 -0.1794  0.5388  0.1671
  748TIP3    H123659   1.615   3.260   3.364 -0.1330  1.1458  0.7095
  748TIP3    H223660   1.740   3.312   3.431  0.6998  0.4972 -0.3137
  749TIP3   OH223661   0.661   0.847  13.128 -0.0741  0.0690  0.5515
  749TIP3    H123662   0.596   0.836  13.059 -0.3823 -0.7885  0.9609
  749TIP3    H223663   0.743   0.817  13.088  0.0227  0.8915  0.1215
  750TIP3   OH223664   4.989   5.759  17.130 -0.4563  0.1412  0.0628
  750TIP3    H123665   5.050   5.782  17.201 -0.7562  0.1258  0.3277
  750TIP3    H223666   5.018   5.812  17.056  0.7800 -0.9072 -0.2610
  751TIP3   OH223667   6.118   4.665  12.229 -0.6184  0.4452 -0.4616
  751TIP3    H123668   6.134   4.582  12.184 -0.9529  1.0174 -1.7084
  751TIP3    H223669   6.046   4.647  12.289  0.6339 -0.6448  0.7696
  752TIP3   OH223670   0.040   0.901  15.492  0.6064 -0.7293 -0.0645
  752TIP3    H123671   0.104   0.900  15.420  1.1169  0.0409  0.3609
  752TIP3    H223672   0.047   0.989  15.529 -0.0125 -0.9516  0.6062
  753TIP3   OH223673   4.839   4.415  12.494 -0.2286  0.4639 -0.5282
  753TIP3    H123674   4.809   4.325  12.485 -2.2396  1.0689 -0.3852
  753TIP3    H223675   4.908   4.412  12.561 -0.8187 -0.8357  0.0375
  754TIP3   OH223676   1.603   1.475  13.896 -0.0067  0.0064  0.6105
  754TIP3    H123677   1.531   1.415  13.914 -1.3911 -0.1287 -3.9053
  754TIP3    H223678   1.561   1.561  13.887  0.6286  0.2443 -0.2973
  755TIP3   OH223679   4.698   5.580   0.019  0.1964 -0.6033 -0.2398
  755TIP3    H123680   4.743   5.573  -0.065  0.1239 -0.9698 -0.2522
  755TIP3    H223681   4.767   5.564   0.084  1.0365  3.0896 -0.0391
  756TIP3   OH223682   1.059   2.901  15.603  0.1653 -0.2226 -0.1616
  756TIP3    H123683   1.149   2.926  15.585  0.8578 -0.9945  1.8776
  756TIP3    H223684   1.060   2.805  15.600  0.0168 -0.3556  2.1124
  757TIP3   OH223685   6.682   2.301   4.431  0.8629  0.3252 -0.1433
  757TIP3    H123686   6.714   2.380   4.385  1.4782  0.0851 -0.1420
  757TIP3    H223687   6.587   2.307   4.426  0.8082  2.1589  1.6620
  758TIP3   OH223688   4.287   3.557  14.668 -0.3355 -0.7648  0.5801
  758TIP3    H123689   4.302   3.463  14.664  0.0381 -0.7145  0.7230
  758TIP3    H223690   4.205   3.567  14.716 -0.4637 -1.0245  0.4155
  759TIP3   OH223691   5.123   6.498   3.024 -0.5842 -0.2283  0.5104
  759TIP3    H123692   5.040   6.516   2.980 -1.3039  1.1867  2.3230
  759TIP3    H223693   5.127   6.561   3.095  1.8325 -0.6023  0.7968
  760TIP3   OH223694   2.530   3.215  17.238 -0.4837 -0.1041  0.0540
  760TIP3    H123695   2.450   3.165  17.224 -0.1497 -0.5949 -0.1393
  760TIP3    H223696   2.542   3.215  17.333 -0.2173 -0.8249  0.0253
  761TIP3   OH223697   4.153   6.377  15.286 -0.0455 -0.3145  0.0704
  761TIP3    H123698   4.161   6.323  15.365  0.0701  0.0544  0.3115
  761TIP3    H223699   4.236   6.364  15.240 -0.3811 -1.0699 -0.3383
  762TIP3   OH223700   5.741   3.801   4.549 -0.0085 -0.4851  0.0873
  762TIP3    H123701   5.803   3.734   4.575  0.4398 -1.1487 -2.4740
  762TIP3    H223702   5.777   3.838   4.468 -1.3322  1.3569  0.2689
  763TIP3   OH223703   4.754   3.453  15.142  0.1438  0.1767 -0.0725
  763TIP3    H123704   4.845   3.466  15.169  0.3615  0.3260 -0.8435
  763TIP3    H223705   4.758   3.384  15.076 -0.2577  0.4234 -0.3584
  764TIP3   OH223706   3.342   6.574   1.453 -0.7590  0.2916 -0.4168
  764TIP3    H123707   3.260   6.584   1.502 -0.2406 -0.2541  0.5987
  764TIP3    H223708   3.375   6.488   1.479  0.3298  0.6714 -0.4916
  765TIP3   OH223709   5.046   4.401   5.900  0.5559  0.3941  0.7891
  765TIP3    H123710   5.130   4.446   5.894  0.2028  1.0485  0.6058
  765TIP3    H223711   4.994   4.456   5.959  0.5996 -0.5643  1.7579
  766TIP3   OH223712   3.257   2.170   5.633  0.1478 -0.1600 -0.3729
  766TIP3    H123713   3.310   2.231   5.685 -1.8092 -0.1932  1.8182
  766TIP3    H223714   3.308   2.157   5.553  2.9580  0.5561  1.1400
  767TIP3   OH223715   2.192   4.452   1.748 -0.1553  0.3315 -0.2997
  767TIP3    H123716   2.177   4.357   1.740 -1.3195  0.5322 -0.6517
  767TIP3    H223717   2.269   4.459   1.805 -1.1413 -0.8006  1.2639
  768TIP3   OH223718   5.000   2.378  10.076  0.7719  0.3362  0.2769
  768TIP3    H123719   5.033   2.318  10.144  0.2781  0.7087  0.8613
  768TIP3    H223720   4.932   2.327  10.031 -0.2656  0.7266  1.3463
  769TIP3   OH223721   4.856   5.093  12.701 -0.6586  0.2443 -0.0326
  769TIP3    H123722   4.884   5.180  12.673 -1.7364 -0.1193 -2.4294
  769TIP3    H223723   4.761   5.096  12.700 -0.8970  0.2095  3.9758
  770TIP3   OH223724   2.894   4.768  12.784  0.1239  0.3883 -0.3674
  770TIP3    H123725   2.914   4.682  12.821 -0.9662  0.1356 -0.3340
  770TIP3    H223726   2.975   4.818  12.794  0.6168 -0.4769  0.0589
  771TIP3   OH223727   0.265   0.821   3.609  0.1702 -0.3464  0.1291
  771TIP3    H123728   0.238   0.913   3.616 -1.6764 -0.9276  1.6120
  771TIP3    H223729   0.310   0.803   3.692 -1.8148 -1.4097  1.0568
  772TIP3   OH223730   0.576   0.706  17.266  0.0512 -0.4180  0.2159
  772TIP3    H123731   0.560   0.788  17.313  0.3267 -0.3977  0.2765
  772TIP3    H223732   0.500   0.651  17.288  0.6546 -0.7804  1.5121
  773TIP3   OH223733   1.351   6.076  12.915 -0.1795 -0.3999 -0.0705
  773TIP3    H123734   1.397   6.152  12.953 -0.8129 -1.6578  3.6589
  773TIP3    H223735   1.418   6.009  12.908  0.3143  0.2798 -3.1030
  774TIP3   OH223736   3.186   6.504  13.066 -0.9824 -0.1474  0.2538
  774TIP3    H123737   3.171   6.411  13.045 -1.3195 -0.2456  0.9083
  774TIP3    H223738   3.183   6.508  13.161  2.0984  0.0143  0.4554
  775TIP3   OH223739   1.803   4.093  13.759 -0.1271  0.0544 -0.0651
  775TIP3    H123740   1.772   4.060  13.675 -0.4736  2.5917 -1.0156
  775TIP3    H223741   1.869   4.158  13.736 -0.6139  1.1908  1.5875
  776TIP3   OH223742   0.660   0.060   3.537 -0.4839  0.2824  0.3556
  776TIP3    H123743   0.711  -0.018   3.520 -1.3064 -0.8771  2.7374
  776TIP3    H223744   0.579   0.048   3.487 -0.1383  0.1730 -0.1789
  777TIP3   OH223745   4.643   6.203   1.243  0.2837 -0.3843  0.0814
  777TIP3    H123746   4.552   6.210   1.271  0.3046  0.8795 -0.0978
  777TIP3    H223747   4.639   6.157   1.159 -0.4125  1.2782 -0.8553
  778TIP3   OH223748   1.315   4.148  13.599 -0.9464 -0.5531  0.3130
  778TIP3    H123749   1.323   4.125  13.692 -1.4832 -0.4537  0.3875
  778TIP3    H223750   1.360   4.232  13.591  1.4716 -1.8065 -0.0580
  779TIP3   OH223751   2.273   0.999   4.204  0.0052  0.0554 -0.7171
  779TIP3    H123752   2.277   1.091   4.179  1.5040  0.1279 -0.3043
  779TIP3    H223753   2.308   0.996   4.292 -0.4512 -0.8688 -0.5455
  780TIP3   OH223754   2.526   0.657   3.131 -0.0674 -0.2181 -0.2948
  780TIP3    H123755   2.573   0.725   3.179  1.4837 -1.8690  0.6501
  780TIP3    H223756   2.582   0.580   3.137 -2.0350 -1.7804 -0.7793
  781TIP3   OH223757   0.120   1.764  16.233 -0.0887  0.3206 -0.2533
  781TIP3    H123758   0.032   1.796  16.253 -0.2548  2.0997 -3.1420
  781TIP3    H223759   0.160   1.836  16.184  2.8119 -0.6652  0.4943
  782TIP3   OH223760   0.325   3.864  15.839  0.1815 -0.3774 -0.3052
  782TIP3    H123761   0.356   3.851  15.929  2.5458  0.0613 -0.9721
  782TIP3    H223762   0.367   3.945  15.811 -1.7432  0.3211 -1.3406
  783TIP3   OH223763   0.313   6.748  15.596 -0.3375  0.0819  0.4244
  783TIP3    H123764   0.288   6.804  15.522 -1.1149 -0.1472  0.5131
  783TIP3    H223765   0.302   6.659  15.564 -0.1978 -0.0209  0.6594
  784TIP3   OH223766   3.448   0.682   2.694  0.0892  0.0963 -0.2823
  784TIP3    H123767   3.460   0.588   2.703  1.1207  0.3951  2.0063
  784TIP3    H223768   3.504   0.721   2.761  1.0312  2.4408 -2.2380
  785TIP3   OH223769   5.802   3.116   5.680  0.4078  0.0754 -0.0271
  785TIP3    H123770   5.799   3.046   5.615 -2.1935  1.8016 -1.9614
  785TIP3    H223771   5.726   3.101   5.736 -0.1831  1.2795 -0.4624
  786TIP3   OH223772   1.643   2.290  13.934  0.2430 -0.4986 -0.6948
  786TIP3    H123773   1.681   2.202  13.926 -0.1300 -0.6216 -1.1858
  786TIP3    H223774   1.678   2.338  13.859  0.9670 -0.0207 -0.0662
  787TIP3   OH223775   0.479   2.320   6.184 -0.2660  0.4853 -1.1836
  787TIP3    H123776   0.493   2.369   6.265 -0.1220  0.8992 -1.4578
  787TIP3    H223777   0.416   2.252   6.209  0.3546  0.1263 -0.5404
  788TIP3   OH223778   2.039   2.005  12.654 -0.3658  0.3798  0.7305
  788TIP3    H123779   2.020   2.093  12.685 -1.1631  0.3520  0.3455
  788TIP3    H223780   1.987   1.996  12.574  3.1058  1.1735 -1.8367
  789TIP3   OH223781   2.256   1.032  15.116 -0.3014 -0.1310 -0.0980
  789TIP3    H123782   2.272   0.974  15.042 -0.3003 -0.6098  0.2727
  789TIP3    H223783   2.297   0.988  15.191  0.8723  0.9928 -0.0549
  790TIP3   OH223784   1.017   5.858   0.496 -0.5860 -0.7804  0.7131
  790TIP3    H123785   1.003   5.766   0.517 -1.3975 -0.6763  0.6570
  790TIP3    H223786   0.930   5.898   0.502 -0.3855 -0.1853 -0.0760
  791TIP3   OH223787   0.705   2.954   4.817 -0.6258  0.2337 -0.3844
  791TIP3    H123788   0.678   3.027   4.873 -0.9182  0.4452 -0.7943
  791TIP3    H223789   0.738   2.995   4.738 -1.3228 -0.0861 -0.8531
  792TIP3   OH223790   4.305   5.833  12.130 -0.3524 -0.3156  0.1453
  792TIP3    H123791   4.272   5.923  12.128 -0.3385 -0.2114  2.4153
  792TIP3    H223792   4.227   5.779  12.115 -0.3502  0.0406 -1.2918
  793TIP3   OH223793   1.795   6.027   4.559  0.5261 -0.6600 -0.1624
  793TIP3    H123794   1.879   5.983   4.574  0.7088  0.0741  1.1881
  793TIP3    H223795   1.750   5.972   4.494  1.3387 -2.0113  0.3658
  794TIP3   OH223796   2.855   4.341  14.832 -0.2402  0.2392  0.1988
  794TIP3    H123797   2.839   4.384  14.916 -0.2389 -0.7052  0.7021
  794TIP3    H223798   2.901   4.260  14.855  1.3510  0.8001 -0.8686
  795TIP3   OH223799   2.893   6.723   4.770 -0.3178 -0.0018 -0.2012
  795TIP3    H123800   2.916   6.783   4.698 -0.5883 -0.5984 -0.7979
  795TIP3    H223801   2.972   6.717   4.822 -1.1689  3.4455  1.8001
  796TIP3   OH223802   3.358   4.072  12.098  0.0199  0.3485 -0.1339
  796TIP3    H123803   3.386   4.140  12.159 -0.8723 -0.6262  1.4279
  796TIP3    H223804   3.439   4.026  12.074  0.1970 -0.4800  1.8718
  797TIP3   OH223805   0.391   2.895  12.374 -0.2682 -0.1619 -0.1825
  797TIP3    H123806   0.344   2.938  12.303 -0.7360 -1.4283 -0.6792
  797TIP3    H223807   0.453   2.837  12.330  0.6121  0.2710  0.4626
  798TIP3   OH223808   6.704   4.684   0.363  0.0524 -0.2683  0.0149
  798TIP3    H123809   6.672   4.597   0.338  0.8992 -0.7412  0.5189
  798TIP3    H223810   6.762   4.668   0.438 -1.5226  0.9858  1.5924
  799TIP3   OH223811   6.079   5.329  16.381  0.3877 -0.0271 -0.0195
  799TIP3    H123812   6.126   5.411  16.370  0.1823  0.1851  0.6417
  799TIP3    H223813   5.995   5.354  16.419  0.8188 -0.6433  1.4269
  800TIP3   OH223814   5.957   3.920   0.383  0.1968  0.1293  0.0180
  800TIP3    H123815   5.971   3.859   0.310 -0.7243 -0.3851  0.2561
  800TIP3    H223816   5.862   3.923   0.393  0.3032  0.4635  0.9808
  801TIP3   OH223817   6.081   6.403  14.522  0.0112  0.0213  0.3705
  801TIP3    H123818   5.993   6.383  14.491  0.5310 -0.3230 -0.9652
  801TIP3    H223819   6.096   6.341  14.593 -1.9847  2.1968  2.8790
  802TIP3   OH223820   0.612   5.105   3.833 -0.3080  0.3828 -0.1907
  802TIP3    H123821   0.680   5.171   3.822  0.1473  0.3376  1.9112
  802TIP3    H223822   0.614   5.054   3.752  1.9583  0.5648 -0.3027
  803TIP3   OH223823   3.919   2.939   0.594  0.4645 -0.0397  0.0199
  803TIP3    H123824   3.825   2.942   0.576  0.5650  1.9020 -0.4897
  803TIP3    H223825   3.959   2.926   0.508  0.6810 -0.3793  0.1702
  804TIP3   OH223826   3.899   4.433   2.366  0.2947  0.4085 -0.0796
  804TIP3    H123827   3.961   4.504   2.346  0.6442 -0.0640 -0.7216
  804TIP3    H223828   3.954   4.361   2.394 -0.0947  0.5256  1.0161
  805TIP3   OH223829   4.926   5.066  16.823 -0.0061 -0.2459  0.2745
  805TIP3    H123830   4.906   4.980  16.788 -2.6404  0.2068  0.4941
  805TIP3    H223831   4.966   5.049  16.908 -0.9813 -1.2597  0.5462
  806TIP3   OH223832   2.617   0.087   6.032  0.2027  0.0720  0.0161
  806TIP3    H123833   2.697   0.087   5.981  0.0434 -0.5673 -0.2485
  806TIP3    H223834   2.635   0.144   6.107  0.6698  0.4600 -0.3936
  807TIP3   OH223835   0.297   6.121   0.211  0.1530 -0.2710 -0.5506
  807TIP3    H123836   0.296   6.152   0.302 -0.4611  0.2617 -0.7324
  807TIP3    H223837   0.388   6.129   0.184  0.2524  0.0331 -0.1329
  808TIP3   OH223838   4.703   5.921  10.668  0.3281 -0.1679  0.2071
  808TIP3    H123839   4.764   5.947  10.599  0.7786  0.1798  0.7236
  808TIP3    H223840   4.727   5.831  10.689 -0.2679 -0.5189 -0.5626
  809TIP3   OH223841   0.625   2.151  11.408 -0.2406  0.2528  0.4430
  809TIP3    H123842   0.579   2.076  11.369 -0.2565  0.9527 -0.9661
  809TIP3    H223843   0.682   2.183  11.338  0.1954  1.1988  1.2100
  810TIP3   OH223844   1.159   4.454   3.362  0.1212 -0.3429  0.3648
  810TIP3    H123845   1.250   4.480   3.378 -1.1099  3.0471  3.2124
  810TIP3    H223846   1.136   4.400   3.438 -0.5226 -0.2636  0.2313
  811TIP3   OH223847   0.456   3.647   3.462  0.3997 -0.1638 -0.2025
  811TIP3    H123848   0.441   3.728   3.414 -0.0938 -0.2906 -0.2718
  811TIP3    H223849   0.424   3.578   3.404 -1.5363 -0.2201  0.8385
  812TIP3   OH223850   3.745   4.276  11.834 -0.1485 -0.2759 -0.0253
  812TIP3    H123851   3.695   4.314  11.907 -1.0950 -2.3955  0.5055
  812TIP3    H223852   3.770   4.351  11.781 -0.1900  1.2709  2.0000
  813TIP3   OH223853   0.117   0.540  15.825 -0.3981  0.2068  0.0890
  813TIP3    H123854   0.179   0.568  15.757 -0.5259 -1.9962 -1.0239
  813TIP3    H223855   0.155   0.460  15.860 -2.2934 -0.8870 -0.2249
  814TIP3   OH223856   5.030   4.564   3.861 -0.2915 -0.0377 -0.0482
  814TIP3    H123857   5.105   4.613   3.892 -0.2775 -0.3534  0.4352
  814TIP3    H223858   4.954   4.617   3.886 -0.2849 -0.3326  0.6272
  815TIP3   OH223859   1.803   1.216  14.882 -0.8820 -0.1935  0.2144
  815TIP3    H123860   1.716   1.189  14.908 -0.3895 -0.8062  1.2774
  815TIP3    H223861   1.862   1.171  14.942  0.0431  2.3313  1.3448
  816TIP3   OH223862   6.629   1.339  11.889  0.2698  0.0228  0.2599
  816TIP3    H123863   6.617   1.362  11.797 -0.3239  1.0810  0.5842
  816TIP3    H223864   6.601   1.417  11.937 -0.4259 -0.8796  1.3753
  817TIP3   OH223865   1.063   0.361   3.132  0.4121  0.2061 -0.1169
  817TIP3    H123866   1.075   0.267   3.149 -0.4411 -0.6357 -3.4114
  817TIP3    H223867   0.985   0.385   3.182 -0.0532 -1.1527 -0.1476
  818TIP3   OH223868   2.725   3.877  16.227 -0.1946 -0.0645 -0.1121
  818TIP3    H123869   2.656   3.830  16.275 -1.3247  1.5289 -0.0913
  818TIP3    H223870   2.757   3.814  16.163 -1.3793 -0.9925  0.1767
  819TIP3   OH223871   4.092   3.066   6.212 -0.5028 -0.0219 -0.3231
  819TIP3    H123872   4.178   3.026   6.212 -0.0970  0.7816 -1.6324
  819TIP3    H223873   4.104   3.150   6.255 -0.9804 -0.5392  0.8619
  820TIP3   OH223874   4.047   2.505  16.012 -0.2919  0.2162 -0.0451
  820TIP3    H123875   4.012   2.580  16.060  0.6159  1.3745 -1.1207
  820TIP3    H223876   3.982   2.436  16.024 -1.2584  1.2378  0.7952
  821TIP3   OH223877   0.347   2.756  11.051  0.2243 -0.3828  0.1124
  821TIP3    H123878   0.422   2.707  11.084 -0.7637 -1.1990  1.2395
  821TIP3    H223879   0.385   2.832  11.007  1.8319 -2.2562 -1.9685
  822TIP3   OH223880   1.314   2.073  15.142  0.1134  0.2618 -0.2987
  822TIP3    H123881   1.279   1.984  15.143  3.2742 -1.1315  1.3503
  822TIP3    H223882   1.242   2.127  15.172 -1.7445 -1.7994 -0.7678
  823TIP3   OH223883   5.274   1.675  11.879 -0.3280  0.0868 -1.0754
  823TIP3    H123884   5.252   1.767  11.863 -0.3840  0.0060 -1.4661
  823TIP3    H223885   5.369   1.672  11.874 -0.3349  0.0962 -1.2093
  824TIP3   OH223886   3.109   3.868   5.307  0.0407  0.0300 -0.1735
  824TIP3    H123887   3.135   3.806   5.375  2.4622 -0.3746 -1.3625
  824TIP3    H223888   3.173   3.939   5.313 -0.8916  0.9578 -0.7916
  825TIP3   OH223889   3.171   5.705  17.026 -0.1078  0.5233  0.2101
  825TIP3    H123890   3.180   5.715  17.121  0.2499 -0.5393  0.2954
  825TIP3    H223891   3.260   5.690  16.995 -0.3699 -0.3186 -0.1453
  826TIP3   OH223892   4.158   1.008   5.937 -0.4237 -0.1210  0.3722
  826TIP3    H123893   4.247   1.018   5.971  0.1317 -0.2899 -0.9817
  826TIP3    H223894   4.109   0.970   6.011  0.4805  0.4662  1.3065
  827TIP3   OH223895   2.066   3.765   3.832 -0.3248 -0.3015 -0.0408
  827TIP3    H123896   2.073   3.684   3.782  0.5311 -0.9124  1.0312
  827TIP3    H223897   2.000   3.746   3.899  0.6591 -0.4844  0.8886
  828TIP3   OH223898   2.514   5.659   5.727 -0.9120  0.3961 -0.9398
  828TIP3    H123899   2.527   5.733   5.786  0.1317 -0.6400  0.1949
  828TIP3    H223900   2.508   5.583   5.785 -1.1445 -0.5129 -2.1151
  829TIP3   OH223901   5.552   2.401   5.270 -0.1255  0.3285  0.1953
  829TIP3    H123902   5.574   2.415   5.362 -1.4097  0.3424  0.5238
  829TIP3    H223903   5.511   2.483   5.243  2.6563  1.3921 -1.2230
  830TIP3   OH223904   5.016   1.174  14.245 -0.4781 -0.3895  0.0755
  830TIP3    H123905   5.011   1.110  14.175 -1.7187 -1.2814  0.9383
  830TIP3    H223906   4.999   1.258  14.203 -1.0490 -0.8905 -0.7110
  831TIP3   OH223907   5.040   6.234  15.282  0.0780  0.1780  0.2072
  831TIP3    H123908   4.999   6.320  15.295  0.2422  0.2968 -0.0397
  831TIP3    H223909   5.128   6.244  15.320  0.4059  0.3939 -0.5887
  832TIP3   OH223910   0.177   2.444   2.419  0.0259  0.0716 -0.4754
  832TIP3    H123911   0.142   2.355   2.415  0.4079 -0.0550 -1.0788
  832TIP3    H223912   0.258   2.435   2.470  0.6737 -0.1378 -1.5119
  833TIP3   OH223913   6.378   5.643   3.549  0.0582  0.0294  0.2477
  833TIP3    H123914   6.402   5.724   3.595 -0.1730  0.4460 -0.3520
  833TIP3    H223915   6.457   5.589   3.553  0.4131  0.5303  0.1362
  834TIP3   OH223916   0.185   1.568   0.022  0.3107  0.2041  0.4303
  834TIP3    H123917   0.194   1.537  -0.068  1.1684  1.8142 -0.0827
  834TIP3    H223918   0.091   1.566   0.039  0.3119 -2.7782  0.5331
  835TIP3   OH223919   3.624   0.908  15.901 -0.1279 -0.0961  0.3006
  835TIP3    H123920   3.537   0.888  15.866  0.1005 -1.9615  0.6893
  835TIP3    H223921   3.664   0.822  15.917  1.5027  0.7160  0.8486
  836TIP3   OH223922   4.372   0.246  17.101  0.5221 -0.2622 -0.0805
  836TIP3    H123923   4.434   0.319  17.109  1.2080 -0.9531  1.3141
  836TIP3    H223924   4.419   0.181  17.050  0.6628 -0.4806  0.3214
  837TIP3   OH223925   3.368   0.419  15.973 -0.0116  0.3121 -0.7246
  837TIP3    H123926   3.417   0.338  15.957 -1.5304 -0.8616  0.3272
  837TIP3    H223927   3.288   0.391  16.017 -1.8103  2.1276 -2.6211
  838TIP3   OH223928   0.142   6.465   2.140  0.5117  0.3635  0.2322
  838TIP3    H123929   0.229   6.497   2.116  0.4939 -1.2916 -2.4344
  838TIP3    H223930   0.098   6.450   2.056 -1.2688 -1.6586  1.4265
  839TIP3   OH223931   2.190   5.568  16.749 -0.2277  0.0634  0.0122
  839TIP3    H123932   2.181   5.488  16.696  1.5612  1.1924 -2.1560
  839TIP3    H223933   2.276   5.560  16.790 -0.5780  0.3296  0.8172
  840TIP3   OH223934   4.296   0.650  13.502 -0.2035 -0.4707  0.2161
  840TIP3    H123935   4.374   0.634  13.450 -0.8924 -0.0796 -0.9780
  840TIP3    H223936   4.326   0.701  13.577  0.2606  2.3450 -1.7679
  841TIP3   OH223937   6.197   0.245  13.755  0.2572  0.7811 -0.2978
  841TIP3    H123938   6.207   0.168  13.811  0.8339  1.8991  1.2194
  841TIP3    H223939   6.209   0.212  13.666  1.1169 -0.7670  0.3532
  842TIP3   OH223940   0.512   4.388   6.072  0.2705 -0.6580 -0.4072
  842TIP3    H123941   0.531   4.422   5.985 -0.5628  0.8365 -0.0367
  842TIP3    H223942   0.494   4.466   6.125  0.2659 -1.5644  0.9866
  843TIP3   OH223943   4.210   4.325   2.973  0.0877 -0.1810 -0.2532
  843TIP3    H123944   4.214   4.350   2.880  1.0530  0.5234 -0.0309
  843TIP3    H223945   4.258   4.242   2.977  0.4590  0.0296 -0.3077
  844TIP3   OH223946   5.212   2.648  13.333 -0.0827  0.1080 -0.1411
  844TIP3    H123947   5.261   2.575  13.370 -2.1289 -1.1682  0.2447
  844TIP3    H223948   5.157   2.679  13.405 -2.9620 -1.3692 -1.5282
  845TIP3   OH223949   0.273   4.595   2.852 -0.6739  0.0973  0.5096
  845TIP3    H123950   0.229   4.512   2.871 -1.1685 -0.0309 -1.0798
  845TIP3    H223951   0.354   4.569   2.808 -0.9375  0.4540 -0.1930
  846TIP3   OH223952   4.670   2.760   1.898  0.2690  0.1931  0.6865
  846TIP3    H123953   4.666   2.700   1.824  3.4897  0.1109  0.4419
  846TIP3    H223954   4.660   2.847   1.860  1.0262  0.0955  0.2501
  847TIP3   OH223955   4.745   4.204   5.183 -0.1226 -0.1437  0.0632
  847TIP3    H123956   4.686   4.233   5.253 -0.1401  0.3711 -0.1616
  847TIP3    H223957   4.744   4.275   5.120  1.6745  0.4045  0.6037
  848TIP3   OH223958   4.695   6.327   4.990 -0.1855  0.1844 -0.0103
  848TIP3    H123959   4.634   6.400   4.983  1.1934  1.3494 -0.2095
  848TIP3    H223960   4.767   6.361   5.042  0.2753 -1.2008  0.3068
  849TIP3   OH223961   1.307   3.246  16.713 -0.1655 -0.2917  0.1335
  849TIP3    H123962   1.261   3.295  16.781  0.8085  1.2775 -0.2867
  849TIP3    H223963   1.242   3.184  16.679 -1.2496  0.2779  1.1136
  850TIP3   OH223964   6.050   4.998  12.405  0.0227 -0.1404  0.1719
  850TIP3    H123965   6.083   5.062  12.468  1.2022 -1.7350  1.2607
  850TIP3    H223966   6.065   5.039  12.320 -0.6097  1.6147  0.8745
  851TIP3   OH223967   3.740   0.155  11.927 -0.4533 -0.0866 -0.3504
  851TIP3    H123968   3.808   0.218  11.903 -1.6236  1.5812  0.5310
  851TIP3    H223969   3.658   0.201  11.912 -1.3250 -0.7289  1.9889
  852TIP3   OH223970   3.057   4.616  16.438  0.1887  0.1470  0.2114
  852TIP3    H123971   3.075   4.641  16.347  0.4356 -1.0170 -0.0792
  852TIP3    H223972   2.962   4.626  16.446  0.3011  1.4242  0.2104
  853TIP3   OH223973   4.067   2.736   5.883  0.5189 -0.2279  1.1018
  853TIP3    H123974   4.151   2.782   5.886  1.3952 -1.7227  0.7562
  853TIP3    H223975   4.055   2.705   5.973  1.4574 -1.8491  0.7128
  854TIP3   OH223976   5.731   1.660   5.584 -0.3206  0.5055 -0.0067
  854TIP3    H123977   5.674   1.585   5.598  0.6665  0.1691  2.7410
  854TIP3    H223978   5.687   1.732   5.630  0.8643  0.5237  1.1299
  855TIP3   OH223979   6.445   2.370  13.619 -0.1058 -0.7149 -0.3599
  855TIP3    H123980   6.452   2.441  13.683 -0.2381  0.9110 -2.0767
  855TIP3    H223981   6.358   2.333  13.633 -1.4341  1.7369 -1.6421
  856TIP3   OH223982   2.714   4.987  12.567  0.6548  0.6546  0.4991
  856TIP3    H123983   2.762   5.054  12.615 -0.4696  1.5744  0.4085
  856TIP3    H223984   2.719   5.015  12.476  1.6496 -0.3560  0.2210
  857TIP3   OH223985   3.420   4.317   3.126 -0.3037  1.2223 -0.5152
  857TIP3    H123986   3.328   4.316   3.099  0.1756  0.5010 -2.3555
  857TIP3    H223987   3.425   4.385   3.192 -2.3046  0.7452  0.2122
  858TIP3   OH223988   1.464   5.785   0.954  0.8105 -0.3576 -0.2705
  858TIP3    H123989   1.468   5.698   0.914 -2.0077 -0.4442 -0.5673
  858TIP3    H223990   1.421   5.771   1.038  0.6624  0.7080 -0.1568
  859TIP3   OH223991   4.985   6.460   1.393  0.3277  0.8467 -0.2692
  859TIP3    H123992   4.993   6.366   1.411  0.7060  1.0587  0.7454
  859TIP3    H223993   4.912   6.466   1.331 -1.0423  0.0433  1.1914
  860TIP3   OH223994   2.007   6.119  12.271  0.1469 -0.7269  0.2586
  860TIP3    H123995   2.009   6.137  12.177 -4.5956 -0.5656 -0.0334
  860TIP3    H223996   2.041   6.199  12.311  1.2392 -0.3790 -1.2665
  861TIP3   OH223997   1.145   6.308   3.343  0.0964 -0.2049 -0.5952
  861TIP3    H123998   1.108   6.334   3.258  0.7166 -0.2319 -0.8844
  861TIP3    H223999   1.101   6.225   3.363  0.1329 -0.3351 -1.0251
  862TIP3   OH224000   1.680   2.977   1.737  0.1500  0.3671  0.4013
  862TIP3    H124001   1.758   2.927   1.713  1.5206  2.4547  0.3094
  862TIP3    H224002   1.644   2.930   1.813  1.3598 -0.7300  0.3269
  863TIP3   OH224003   0.688   2.995   3.077  0.0720  1.2184  0.6102
  863TIP3    H124004   0.630   2.976   3.003  0.5014  0.1780  0.5312
  863TIP3    H224005   0.678   2.921   3.136  0.9818  1.2332  0.8029
  864TIP3   OH224006   0.599   4.881   1.085 -0.3370  0.5338  0.2146
  864TIP3    H124007   0.687   4.869   1.121 -0.4337 -0.4535  0.1350
  864TIP3    H224008   0.580   4.800   1.038 -2.1230 -0.1468  1.9905
  865TIP3   OH224009   4.843   1.453  15.283 -0.4937  0.5246 -0.3436
  865TIP3    H124010   4.810   1.395  15.213 -0.0021  0.5925 -0.6380
  865TIP3    H224011   4.771   1.514  15.299 -0.4984  0.7125 -1.0234
  866TIP3   OH224012   6.196   0.775  16.245 -0.3686  0.2551  0.3151
  866TIP3    H124013   6.287   0.797  16.266 -0.5941  1.3474  0.1953
  866TIP3    H224014   6.163   0.734  16.325 -0.5266  2.2407  1.3432
  867TIP3   OH224015   4.108   6.067  13.278  0.0652  0.0840 -0.0236
  867TIP3    H124016   4.059   6.008  13.221  0.8223 -0.3381 -0.2615
  867TIP3    H224017   4.179   6.012  13.312 -0.0001  0.5070  0.8096
  868TIP3   OH224018   5.014   0.573  11.818  0.3009  0.0372 -0.0660
  868TIP3    H124019   5.010   0.575  11.722 -0.6869  1.4848 -0.0239
  868TIP3    H224020   4.927   0.547  11.845  0.8186 -1.2333  0.4570
  869TIP3   OH224021   4.103   2.362   4.433 -0.6829  0.1985  0.2883
  869TIP3    H124022   4.128   2.320   4.351 -2.8262 -0.0278 -0.2916
  869TIP3    H224023   4.072   2.449   4.407  0.1588  0.7502  1.0668
  870TIP3   OH224024   5.612   0.806  15.930  0.3097 -0.0933 -0.1762
  870TIP3    H124025   5.546   0.846  15.985  0.4819  0.1034 -0.1126
  870TIP3    H224026   5.600   0.846  15.844  0.2427 -0.1735 -0.2031
  871TIP3   OH224027   4.256   5.030   2.148  0.2734  0.2195 -0.0343
  871TIP3    H124028   4.263   5.108   2.203  1.9413  0.2938 -0.3166
  871TIP3    H224029   4.237   5.064   2.061 -0.4891  0.2103  0.1222
  872TIP3   OH224030   2.968   3.754   5.728  0.0319  0.2214  0.0986
  872TIP3    H124031   2.936   3.779   5.814 -0.0792  2.1563 -0.4400
  872TIP3    H224032   2.925   3.671   5.708  0.7741 -0.7380  2.2538
  873TIP3   OH224033   4.026   0.469  15.006 -0.2030  0.2679 -0.5647
  873TIP3    H124034   3.954   0.427  15.053 -0.6572  1.4068 -0.2038
  873TIP3    H224035   4.000   0.465  14.914  0.1770 -0.9932 -0.6363
  874TIP3   OH224036   4.476   1.948  17.300  0.2943 -0.6274  0.4412
  874TIP3    H124037   4.520   1.864  17.306  0.8887 -0.2768  1.2380
  874TIP3    H224038   4.434   1.948  17.214  1.6584 -1.0674 -0.2368
  875TIP3   OH224039   1.839   6.683   2.977  0.6992  0.4234 -0.0542
  875TIP3    H124040   1.882   6.614   2.928  0.4176  2.7425 -4.0170
  875TIP3    H224041   1.905   6.752   2.985  0.1419  0.8324  1.1940
  876TIP3   OH224042   3.380   2.123  16.692 -0.4578  0.3263 -0.4480
  876TIP3    H124043   3.356   2.213  16.712  0.3545  0.6554 -0.9208
  876TIP3    H224044   3.371   2.117  16.596 -0.2403 -0.0201 -0.4480
  877TIP3   OH224045   5.312   3.350  11.129 -0.1952  0.7633 -0.1344
  877TIP3    H124046   5.406   3.348  11.147 -0.5478  1.7563  2.2788
  877TIP3    H224047   5.295   3.439  11.098 -0.3208  0.5177 -0.7842
  878TIP3   OH224048   6.545   6.380   5.424 -0.0112 -0.1696 -0.1566
  878TIP3    H124049   6.475   6.372   5.359  0.7693 -0.0041 -1.0352
  878TIP3    H224050   6.618   6.331   5.386  0.8077  0.8362  0.0818
  879TIP3   OH224051   4.882   6.039   4.439 -0.1234  0.2465  0.2711
  879TIP3    H124052   4.852   5.948   4.440 -0.0525  0.1700 -1.7908
  879TIP3    H224053   4.809   6.088   4.401 -1.6656  1.7317  4.4893
  880TIP3   OH224054   3.192   5.157   5.665  0.0181 -0.7659 -0.5449
  880TIP3    H124055   3.220   5.070   5.637  0.4749 -0.9717  0.5358
  880TIP3    H224056   3.127   5.141   5.733 -1.1656 -0.2611 -1.5052
  881TIP3   OH224057   2.422   5.272   2.655  0.0653 -0.3264 -0.3016
  881TIP3    H124058   2.420   5.214   2.731 -0.3215  1.7875  1.4116
  881TIP3    H224059   2.346   5.246   2.603 -0.4769 -0.9289  0.7546
  882TIP3   OH224060   4.420   4.747   5.570  0.3446  0.1814  0.5207
  882TIP3    H124061   4.352   4.811   5.549 -0.3971 -1.0030 -0.8603
  882TIP3    H224062   4.390   4.665   5.530  1.9956 -0.6823  0.9328
  883TIP3   OH224063   6.111   3.339  11.075 -0.1241  0.6856  0.7551
  883TIP3    H124064   6.020   3.312  11.062  0.5331 -1.0937 -0.4898
  883TIP3    H224065   6.138   3.374  10.990  0.5243  0.7007  0.9649
  884TIP3   OH224066   5.110   5.398  12.669 -0.2607  0.3364 -0.7154
  884TIP3    H124067   5.146   5.415  12.583  0.5659  0.4883 -0.3447
  884TIP3    H224068   5.131   5.307  12.687  1.2556  0.8252  0.1109
  885TIP3   OH224069   5.619   6.210  14.305  0.0296  0.8215  0.1438
  885TIP3    H124070   5.543   6.188  14.360  0.6184  1.8811  1.4237
  885TIP3    H224071   5.581   6.248  14.226 -0.7909  0.9013  0.5671
  886TIP3   OH224072   1.534   4.038   1.872  0.2078 -0.1004 -0.1318
  886TIP3    H124073   1.566   3.948   1.864  0.0812 -0.2148  0.5480
  886TIP3    H224074   1.440   4.029   1.887  0.0277  0.1906 -1.0468
  887TIP3   OH224075   4.935   0.015   4.537  0.7622  0.2242  0.6845
  887TIP3    H124076   4.843  -0.010   4.528  1.1262 -1.7689  1.8515
  887TIP3    H224077   4.935   0.110   4.527 -1.2588  0.1646 -0.4326
  888TIP3   OH224078   5.348   5.239  13.681 -0.0945  0.4657  1.0430
  888TIP3    H124079   5.378   5.294  13.609 -0.0321  0.1788  0.8484
  888TIP3    H224080   5.428   5.203  13.719 -0.1640 -2.5900 -1.2564
  889TIP3   OH224081   1.760   1.872  15.568 -0.9029 -1.1849  0.2341
  889TIP3    H124082   1.727   1.878  15.658 -0.2861 -0.2447  0.4160
  889TIP3    H224083   1.853   1.851  15.579 -0.7765 -0.8492 -0.1655
  890TIP3   OH224084   4.627   2.693   0.929 -0.2529  0.1175  0.0867
  890TIP3    H124085   4.721   2.679   0.935 -0.2882  0.2458  1.4428
  890TIP3    H224086   4.612   2.776   0.975 -1.0810 -0.1997  0.4203
  891TIP3   OH224087   5.523   3.497  12.559  0.3016 -0.3456 -0.0921
  891TIP3    H124088   5.483   3.410  12.558 -1.9369  0.6062 -1.4025
  891TIP3    H224089   5.517   3.527  12.468 -0.1191  1.6476  0.5461
  892TIP3   OH224090   2.851   1.723   6.346  0.0544  0.3166  0.3014
  892TIP3    H124091   2.838   1.801   6.399 -1.5925 -0.4648  1.1099
  892TIP3    H224092   2.842   1.650   6.408  1.2149 -0.5496 -0.4962
  893TIP3   OH224093   0.964   1.344   0.944  0.5900  0.7091 -0.0708
  893TIP3    H124094   0.899   1.347   0.874  0.7622  1.2332 -0.2145
  893TIP3    H224095   0.929   1.403   1.011  0.5201  0.3587  0.2032
  894TIP3   OH224096   6.138   0.572   3.434  0.1217  0.2385  0.1411
  894TIP3    H124097   6.056   0.603   3.471 -0.7679  0.4429 -1.8513
  894TIP3    H224098   6.149   0.484   3.470  0.2201  1.0100  2.1360
  895TIP3   OH224099   4.358   0.972  16.936 -0.5418  0.5053 -0.0297
  895TIP3    H124100   4.381   1.062  16.913 -0.2408  0.1655 -1.1270
  895TIP3    H224101   4.288   0.949  16.876  0.6237 -0.5893 -1.0337
  896TIP3   OH224102   0.363   3.458  16.056  0.0953 -0.6022 -0.1359
  896TIP3    H124103   0.436   3.411  16.095 -0.3783 -0.8021  0.5266
  896TIP3    H224104   0.322   3.395  15.998 -0.4173 -0.9544  0.5985
  897TIP3   OH224105   0.131   5.788  16.878 -0.1325 -0.4186 -0.0945
  897TIP3    H124106   0.171   5.809  16.794 -0.8550 -1.0082 -0.5919
  897TIP3    H224107   0.161   5.699  16.897  0.6352 -0.0197  0.6483
  898TIP3   OH224108   4.660   6.190  15.090 -0.3683 -0.2800  0.2447
  898TIP3    H124109   4.715   6.137  15.149 -0.4749 -0.2781  0.3451
  898TIP3    H224110   4.665   6.144  15.006 -1.3922 -1.1048  0.6152
  899TIP3   OH224111   0.631   3.220   1.974 -0.7078 -0.7216 -0.3345
  899TIP3    H124112   0.683   3.169   2.036  0.2034 -0.5076 -0.8978
  899TIP3    H224113   0.540   3.203   1.999 -0.3751 -0.2972  1.3423
  900TIP3   OH224114   4.592   5.264   6.487  0.2514 -0.0590  1.2200
  900TIP3    H124115   4.585   5.356   6.462  2.7483  0.2581  1.4035
  900TIP3    H224116   4.506   5.228   6.468 -0.8121  2.2991  1.1486
  901TIP3   OH224117   6.008   6.317   1.511  0.7241  0.4020  0.1200
  901TIP3    H124118   5.971   6.235   1.480  1.8822 -0.2852  0.4751
  901TIP3    H224119   5.938   6.358   1.562  0.0970 -0.3106 -0.1637
  902TIP3   OH224120   4.251   1.371  11.606  0.3976  0.4110  0.0779
  902TIP3    H124121   4.306   1.426  11.550 -0.3595  0.9792 -0.1319
  902TIP3    H224122   4.177   1.347  11.551 -1.5110  2.7853  1.3619
  903TIP3   OH224123   4.170   0.217  15.033  0.6145 -0.1848  0.2794
  903TIP3    H124124   4.216   0.297  15.008 -0.4616  1.3320  2.7490
  903TIP3    H224125   4.145   0.231  15.125 -3.3322 -1.5305 -0.3699
  904TIP3   OH224126   3.264   0.214  16.539 -0.4090  0.0490 -0.2253
  904TIP3    H124127   3.348   0.192  16.581  0.6798  1.5802 -1.4851
  904TIP3    H224128   3.259   0.154  16.464 -1.1256 -0.9402  0.5745
  905TIP3   OH224129   2.917   3.864  16.450 -0.5784  0.3863  0.1867
  905TIP3    H124130   2.870   3.906  16.377 -0.3135 -0.5932 -0.5640
  905TIP3    H224131   2.957   3.937  16.497  0.6888  0.9759 -1.6604
  906TIP3   OH224132   0.847   6.582  14.703 -0.6027  0.1173 -0.0872
  906TIP3    H124133   0.795   6.631  14.767 -0.3669 -0.1462  0.3109
  906TIP3    H224134   0.813   6.492  14.708  0.4516 -0.2501  0.7920
  907TIP3   OH224135   4.878   5.237   2.889  0.4950 -0.2444  0.1346
  907TIP3    H124136   4.910   5.319   2.925  1.7539 -0.5084 -0.3308
  907TIP3    H224137   4.872   5.177   2.964  0.8939 -0.1314  0.2532
  908TIP3   OH224138   0.852   2.686   3.144 -0.1690  0.1833 -0.1550
  908TIP3    H124139   0.872   2.621   3.076 -0.4776 -2.0262  1.7682
  908TIP3    H224140   0.759   2.704   3.132  0.1903  1.3928 -1.5376
  909TIP3   OH224141   5.018   6.757   1.214 -0.2614 -0.4907 -0.7970
  909TIP3    H124142   5.042   6.849   1.203 -0.0077 -0.6227 -1.3662
  909TIP3    H224143   5.037   6.739   1.307  1.4026 -0.4466 -1.0907
  910TIP3   OH224144   5.085   2.223  10.614 -0.1650  0.2837  0.1889
  910TIP3    H124145   5.015   2.168  10.648 -0.1473  1.0747  1.6063
  910TIP3    H224146   5.123   2.265  10.691  0.7551  1.1809 -0.7001
  911TIP3   OH224147   4.690   2.162  12.158  0.2283 -0.5019 -0.2678
  911TIP3    H124148   4.617   2.127  12.210  1.0250 -1.5367  0.1964
  911TIP3    H224149   4.656   2.165  12.069 -0.0994 -1.8772 -0.2134
  912TIP3   OH224150   0.272   1.276  15.342  0.1267 -0.2408  0.1228
  912TIP3    H124151   0.236   1.297  15.256 -1.4068 -0.7810  0.5997
  912TIP3    H224152   0.318   1.356  15.370 -0.6320  0.4393 -0.5576
  913TIP3   OH224153   2.632   5.889   0.810  0.0788 -0.0891 -1.0468
  913TIP3    H124154   2.613   5.797   0.791 -0.7081 -0.1030 -0.2593
  913TIP3    H224155   2.546   5.930   0.817  0.3965  0.4511 -0.2202
  914TIP3   OH224156   0.058   1.498   1.360 -0.3472  0.6394  1.0039
  914TIP3    H124157   0.041   1.475   1.451 -1.7913 -0.3196  0.5320
  914TIP3    H224158   0.088   1.416   1.320  2.0854  1.4740  0.9835
  915TIP3   OH224159   4.989   3.726   1.282 -0.3769  0.0743 -0.1032
  915TIP3    H124160   5.026   3.641   1.307 -0.0632  0.4982  0.9216
  915TIP3    H224161   4.895   3.718   1.298 -0.5527 -0.5195 -1.3155
  916TIP3   OH224162   4.971   5.515   0.124  0.3000  0.2935 -0.3477
  916TIP3    H124163   4.963   5.469   0.208 -0.4218  1.0640  0.0132
  916TIP3    H224164   5.037   5.465   0.076  0.5734 -0.2738  0.5969
  917TIP3   OH224165   1.719   4.305  14.847  0.0945 -0.2222  0.5184
  917TIP3    H124166   1.792   4.351  14.888  1.5638  0.3529 -2.4664
  917TIP3    H224167   1.755   4.220  14.821 -0.2636  0.0427 -0.9258
  918TIP3   OH224168   2.081   5.820  14.015 -0.1456 -0.5226  0.0070
  918TIP3    H124169   2.064   5.792  13.925  2.4355  3.1779 -1.9010
  918TIP3    H224170   2.166   5.782  14.036  0.3148  0.4544 -0.0528
  919TIP3   OH224171   5.599   2.865  13.640  0.1571 -0.0668 -0.0929
  919TIP3    H124172   5.584   2.929  13.571 -1.2629  1.0941  1.2440
  919TIP3    H224173   5.565   2.906  13.719  0.7238 -1.8152  1.1132
  920TIP3   OH224174   0.263   4.665  12.613 -0.8650  0.6977  0.4172
  920TIP3    H124175   0.318   4.728  12.659 -1.0776  0.0289  1.6307
  920TIP3    H224176   0.293   4.580  12.644 -0.4820  0.1631 -1.3027
  921TIP3   OH224177   0.065   4.429  13.054  0.2838  0.5433 -0.7609
  921TIP3    H124178   0.121   4.499  13.021 -0.5449  0.5703 -2.1572
  921TIP3    H224179   0.014   4.401  12.978 -1.8755  0.7597  0.5497
  922TIP3   OH224180   3.122   0.494   6.157  0.5277 -0.6847 -0.2452
  922TIP3    H124181   3.087   0.476   6.244 -0.4425 -2.1733 -0.9022
  922TIP3    H224182   3.200   0.548   6.173  1.4298 -2.4091  1.6785
  923TIP3   OH224183   5.467   3.374   6.596  0.5623  0.1205  0.0693
  923TIP3    H124184   5.515   3.443   6.642 -0.5448 -0.4517  2.1705
  923TIP3    H224185   5.391   3.419   6.560 -0.0145  0.0782  1.2012
  924TIP3   OH224186   6.362   0.006  15.557  0.0557  0.1472  0.6258
  924TIP3    H124187   6.435   0.006  15.495  0.9432  2.5982  1.5426
  924TIP3    H224188   6.284   0.009  15.503  0.7776  5.9231 -0.7538
  925TIP3   OH224189   0.118   6.179  13.773  0.3135 -0.0695 -0.0419
  925TIP3    H124190   0.195   6.187  13.830  0.5811 -0.7099 -0.3071
  925TIP3    H224191   0.131   6.246  13.706  0.6145 -0.1389 -0.0546
  926TIP3   OH224192   1.200   0.300   0.530 -0.0683  0.3537 -0.1899
  926TIP3    H124193   1.105   0.284   0.536  0.1894 -1.0497  0.5842
  926TIP3    H224194   1.235   0.220   0.492  0.8770  0.6466  0.0484
  927TIP3   OH224195   1.923   3.367   2.429  0.1806 -0.3514  0.2451
  927TIP3    H124196   1.836   3.401   2.448  0.5841  0.3641  0.8633
  927TIP3    H224197   1.921   3.277   2.459 -0.1597 -0.1546  0.8165
  928TIP3   OH224198   4.571   0.383  13.316 -0.4975  0.0152  0.1998
  928TIP3    H124199   4.537   0.448  13.255  0.3286 -0.7733 -1.1616
  928TIP3    H224200   4.501   0.370  13.379 -0.8125  1.9580  0.3170
  929TIP3   OH224201   1.605   4.070  16.608 -0.1130  0.4390  0.3849
  929TIP3    H124202   1.683   4.058  16.662  0.8796  1.4003 -0.7951
  929TIP3    H224203   1.533   4.041  16.664  0.7953  1.9697  2.4931
  930TIP3   OH224204   0.302   2.269  12.188  0.2380 -0.4313 -0.6253
  930TIP3    H124205   0.242   2.232  12.253 -1.0267  0.2078 -1.3932
  930TIP3    H224206   0.304   2.204  12.118  1.4246 -1.0172 -0.0613
  931TIP3   OH224207   2.514   0.399   5.560 -0.2217  0.4619 -0.1112
  931TIP3    H124208   2.435   0.348   5.575 -0.6345  0.4909 -1.9196
  931TIP3    H224209   2.575   0.336   5.519  0.4812  0.5957  0.6946
  932TIP3   OH224210   0.741   1.546  13.574 -0.1554 -0.3944  0.1296
  932TIP3    H124211   0.673   1.606  13.605  0.6337 -0.0112  1.1855
  932TIP3    H224212   0.695   1.464  13.557 -0.9086 -0.1070  0.7023
  933TIP3   OH224213   5.357   5.182   5.636 -0.7938  0.4058 -0.4567
  933TIP3    H124214   5.348   5.242   5.710  2.2468 -0.4481  0.7741
  933TIP3    H224215   5.355   5.238   5.559 -0.1294  1.8281  0.5238
  934TIP3   OH224216   0.425   2.773   1.906  0.0348  0.1500 -0.6534
  934TIP3    H124217   0.406   2.862   1.877 -2.3015  0.0348  0.2641
  934TIP3    H224218   0.400   2.772   1.999  2.4152 -0.8208  0.0398
  935TIP3   OH224219   3.467   3.584   0.075  0.0036 -0.3131 -0.0008
  935TIP3    H124220   3.421   3.581   0.159  0.5385 -1.1500  0.2857
  935TIP3    H224221   3.560   3.585   0.099  0.1539  0.8258 -0.5707
  936TIP3   OH224222   5.248   4.220  11.026 -0.0274 -0.2825  0.9179
  936TIP3    H124223   5.321   4.276  11.053 -0.1303 -0.2625  1.1568
  936TIP3    H224224   5.174   4.280  11.018  0.7157  0.3587 -2.7035
  937TIP3   OH224225   0.870   1.441  12.917  0.1487  0.3073  0.1886
  937TIP3    H124226   0.895   1.474  12.830  0.7032  2.2798  1.0378
  937TIP3    H224227   0.825   1.359  12.899  1.6566 -0.1590 -1.8620
  938TIP3   OH224228   5.792   3.519   6.079 -0.3668  0.3755  0.0455
  938TIP3    H124229   5.795   3.481   6.167  0.2022 -2.1120 -0.9600
  938TIP3    H224230   5.816   3.447   6.021 -1.0184  1.8641 -2.2035
  939TIP3   OH224231   5.744   5.818   3.938  0.4154  0.3601 -0.8505
  939TIP3    H124232   5.800   5.856   3.870 -0.0597  2.1607 -0.3104
  939TIP3    H224233   5.693   5.750   3.893  1.1797  0.4850 -1.9370
  940TIP3   OH224234   2.805   2.303  13.974 -0.5056 -0.6133 -0.2685
  940TIP3    H124235   2.824   2.251  13.896  1.3853 -0.2241 -0.1145
  940TIP3    H224236   2.876   2.283  14.035  0.0125  1.7040 -0.0002
  941TIP3   OH224237   1.360   6.137   0.222 -0.0509  0.4342  0.0222
  941TIP3    H124238   1.371   6.101   0.309 -0.7239  0.4610  0.1237
  941TIP3    H224239   1.428   6.094   0.169 -1.7758 -2.1911 -0.2327
  942TIP3   OH224240   5.931   6.001   3.640  0.1182  0.3745  0.3509
  942TIP3    H124241   5.952   5.908   3.632 -2.0262 -0.1256 -0.2262
  942TIP3    H224242   5.901   6.026   3.552 -0.6282  1.2347  0.8317
  943TIP3   OH224243   5.319   5.785  14.846 -0.4673  0.8726 -0.2302
  943TIP3    H124244   5.278   5.823  14.924 -0.3618  0.4601  0.0296
  943TIP3    H224245   5.395   5.737  14.879 -1.7227 -1.2890 -0.2619
  944TIP3   OH224246   3.426   2.955   4.129 -0.0023  0.2392 -0.6130
  944TIP3    H124247   3.338   2.977   4.100 -0.3165 -0.1682  0.0041
  944TIP3    H224248   3.454   2.885   4.071 -0.1846  0.1954 -0.6471
  945TIP3   OH224249   2.079   0.444   4.557  0.4292  0.4196  0.1947
  945TIP3    H124250   2.135   0.379   4.515 -0.1592  0.2782 -0.3905
  945TIP3    H224251   2.058   0.507   4.488 -2.6038 -1.1483 -0.5104
  946TIP3   OH224252   0.792   2.522   6.000 -0.6635  0.2178  0.0723
  946TIP3    H124253   0.747   2.521   6.085 -0.4412  0.6591  0.1971
  946TIP3    H224254   0.819   2.612   5.989 -1.7513  0.4313 -1.0303
  947TIP3   OH224255   4.566   2.464   3.064  0.7851 -0.2280  0.5686
  947TIP3    H124256   4.505   2.537   3.053  0.6973 -0.4541 -0.4736
  947TIP3    H224257   4.582   2.431   2.976  2.3013 -0.2748  0.8307
  948TIP3   OH224258   2.833   2.356  17.358 -0.1858 -0.6354 -0.5840
  948TIP3    H124259   2.801   2.340  17.447  2.0158  0.4154  0.4750
  948TIP3    H224260   2.855   2.269  17.325  1.4800 -0.8925  0.9804
  949TIP3   OH224261   6.578   3.731  15.155 -0.5027 -0.0454  0.0426
  949TIP3    H124262   6.524   3.767  15.226 -0.9147  0.4223 -0.5072
  949TIP3    H224263   6.573   3.636  15.168 -2.3341 -0.0682 -0.6159
  950TIP3   OH224264   4.764   2.551   1.635  0.0154  0.2858  0.1896
  950TIP3    H124265   4.670   2.553   1.651  0.0238  3.5693  0.4875
  950TIP3    H224266   4.773   2.506   1.551 -1.7486 -0.6763  0.4894
  951TIP3   OH224267   1.183   2.416   1.232  0.3364  0.0228 -0.4689
  951TIP3    H124268   1.182   2.463   1.316  0.7006  0.4053 -0.6761
  951TIP3    H224269   1.276   2.402   1.213  0.2484 -0.2432 -0.7125
  952TIP3   OH224270   5.295   0.486   1.261 -0.1693 -0.1873 -0.3778
  952TIP3    H124271   5.301   0.489   1.357 -1.2007 -1.6291 -0.2443
  952TIP3    H224272   5.372   0.437   1.234  1.0819  1.7203 -0.4563
  953TIP3   OH224273   0.309   3.809  15.422  0.6047 -0.1075 -0.0015
  953TIP3    H124274   0.400   3.805  15.395  0.1570  0.3988 -1.6958
  953TIP3    H224275   0.259   3.801  15.341 -0.8708 -0.3792  0.8866
  954TIP3   OH224276   5.674   0.275   5.226 -0.5260  0.1998  0.1329
  954TIP3    H124277   5.668   0.193   5.177  0.7884 -0.2503  0.6752
  954TIP3    H224278   5.583   0.303   5.237 -0.8895 -0.0125 -1.9704
  955TIP3   OH224279   1.418   0.111  16.868  0.1438 -0.0923  0.0248
  955TIP3    H124280   1.492   0.154  16.824  0.0584 -0.5425 -0.5694
  955TIP3    H224281   1.351   0.103  16.800 -1.4280  2.4997  1.1474
  956TIP3   OH224282   5.316   6.686   5.896  0.1239 -0.7304  0.2994
  956TIP3    H124283   5.370   6.756   5.930  0.9315 -1.4945  0.6314
  956TIP3    H224284   5.257   6.663   5.968  0.0642 -0.6069  0.2908
  957TIP3   OH224285   1.323   2.778   0.007  0.3825  0.1863 -0.1201
  957TIP3    H124286   1.409   2.781  -0.036  0.2651  0.9422 -0.3239
  957TIP3    H224287   1.261   2.763  -0.063  0.0035  3.2028 -0.5780
  958TIP3   OH224288   5.448   4.694   0.673  0.0236  0.0600 -0.1041
  958TIP3    H124289   5.540   4.718   0.682 -0.2183  1.5491 -1.2005
  958TIP3    H224290   5.428   4.710   0.580 -1.3959  0.0426  0.1774
  959TIP3   OH224291   4.288   2.810   1.013  0.4299  0.1734  0.1121
  959TIP3    H124292   4.240   2.792   0.933  0.3879 -0.0539  0.1883
  959TIP3    H224293   4.294   2.906   1.016  0.7474  0.1708 -0.3476
  960TIP3   OH224294   2.700   4.893   1.017  0.3188  0.2587  0.5249
  960TIP3    H124295   2.755   4.919   0.943  0.5011 -1.5515 -0.0118
  960TIP3    H224296   2.732   4.945   1.091  1.1842  0.9271 -0.2998
  961TIP3   OH224297   3.102   3.144  13.881  0.1902 -0.1233  0.3883
  961TIP3    H124298   3.116   3.215  13.944  1.9629  0.4551 -0.5984
  961TIP3    H224299   3.111   3.064  13.933  1.4208  0.3439  0.9373
  962TIP3   OH224300   0.705   5.268  11.991  0.1148  0.5664 -0.1866
  962TIP3    H124301   0.714   5.359  12.019 -0.2015  0.6520 -0.3590
  962TIP3    H224302   0.756   5.263  11.910 -1.3536  1.0597 -1.1868
  963TIP3   OH224303   6.519   3.143  11.245 -0.1415 -1.0364 -0.3830
  963TIP3    H124304   6.435   3.156  11.201 -0.0410 -0.3478 -0.3959
  963TIP3    H224305   6.541   3.051  11.230  0.3186 -0.6351 -2.5800
  964TIP3   OH224306   2.147   2.181   3.662 -0.1247 -0.3462  0.2255
  964TIP3    H124307   2.056   2.204   3.640  0.0031 -1.0142 -1.1208
  964TIP3    H224308   2.198   2.259   3.639 -0.1273 -0.6691 -0.9251
  965TIP3   OH224309   0.427   2.465  14.555 -0.4425 -0.1436  0.1237
  965TIP3    H124310   0.367   2.411  14.504 -1.6958 -1.1661  2.5524
  965TIP3    H224311   0.386   2.551  14.557 -1.5120 -0.6490  1.1465
  966TIP3   OH224312   0.869   2.198  12.316 -0.9825  0.4012  0.2177
  966TIP3    H124313   0.788   2.206  12.266  0.5599 -2.5678 -3.1738
  966TIP3    H224314   0.934   2.247  12.264 -0.2581  1.8291  2.3054
  967TIP3   OH224315   3.145   6.272   5.266 -0.5877  0.3679  0.0657
  967TIP3    H124316   3.213   6.276   5.332 -0.3403 -1.2771 -0.0292
  967TIP3    H224317   3.063   6.284   5.314 -0.3567  0.0484  0.5489
  968TIP3   OH224318   1.261   5.640  15.812 -0.3920 -0.2654  0.0312
  968TIP3    H124319   1.219   5.554  15.822 -0.2959 -0.4181 -0.7882
  968TIP3    H224320   1.261   5.655  15.718 -0.1202  0.4974  0.1496
  969TIP3   OH224321   4.908   6.597  15.806  0.2801  0.1654 -0.9242
  969TIP3    H124322   4.832   6.625  15.857 -0.9297 -0.5705 -2.2735
  969TIP3    H224323   4.907   6.501  15.813  0.8833  0.1354 -1.2303
  970TIP3   OH224324   2.012   0.965   4.112 -0.0053  0.2140  0.5273
  970TIP3    H124325   2.094   0.983   4.159 -0.8519  2.3613  1.3226
  970TIP3    H224326   2.019   1.016   4.032 -0.1569 -0.4006  0.1179
  971TIP3   OH224327   2.129   0.045  14.525 -0.4230 -0.7451 -0.1860
  971TIP3    H124328   2.179  -0.003  14.459 -1.9348 -0.9731 -1.1963
  971TIP3    H224329   2.136   0.137  14.498  0.3158 -0.6413  0.2994
  972TIP3   OH224330   2.101   4.114   0.259 -0.3978 -0.1097  0.3806
  972TIP3    H124331   2.156   4.069   0.323  0.9283 -0.1348 -0.7104
  972TIP3    H224332   2.102   4.205   0.286 -1.8834 -0.4474  1.7570
  973TIP3   OH224333   1.363   5.436  16.540 -0.0647 -0.6090 -0.3717
  973TIP3    H124334   1.386   5.469  16.453  1.2090 -2.2136 -0.6781
  973TIP3    H224335   1.439   5.456  16.594  0.1849 -1.8323 -0.2497
  974TIP3   OH224336   2.818   5.847  17.243  0.1937  0.1478 -0.4681
  974TIP3    H124337   2.832   5.885  17.156 -0.0186 -0.6912 -0.8800
  974TIP3    H224338   2.905   5.819  17.271  0.4455  1.3931  0.0757
  975TIP3   OH224339   1.287   1.143  14.615 -0.2025  0.2542  0.6058
  975TIP3    H124340   1.198   1.118  14.594 -0.3878 -0.5681  2.1961
  975TIP3    H224341   1.316   1.196  14.541 -1.6139 -0.3901 -0.4430
  976TIP3   OH224342   1.222   3.674  14.333 -0.7397 -0.0091  0.2180
  976TIP3    H124343   1.195   3.663  14.242 -0.0915 -1.2708  0.1631
  976TIP3    H224344   1.299   3.731  14.328 -0.4768 -0.3858 -0.0563
  977TIP3   OH224345   1.457   4.854   3.287 -0.5534  0.1734  0.0247
  977TIP3    H124346   1.469   4.949   3.292 -1.0756  0.2587 -0.2606
  977TIP3    H224347   1.544   4.820   3.266  0.2236  0.3613  2.6574
  978TIP3   OH224348   3.959   1.047   1.313  1.0282 -0.4338  0.1024
  978TIP3    H124349   3.878   1.036   1.363  0.8834 -0.3733 -0.1165
  978TIP3    H224350   3.962   1.141   1.293  0.4192 -0.6518 -1.1063
  979TIP3   OH224351   6.472   2.155   4.205 -0.5592 -0.2999  0.2294
  979TIP3    H124352   6.483   2.091   4.136  3.1719 -0.0445  0.3998
  979TIP3    H224353   6.473   2.104   4.286  0.1429 -0.2128  0.2776
  980TIP3   OH224354   1.256   1.030  12.812 -0.2837  0.2634  0.1642
  980TIP3    H124355   1.273   0.968  12.884 -0.1261 -0.8775 -0.8196
  980TIP3    H224356   1.342   1.062  12.787 -0.0121 -1.3870 -1.2385
  981TIP3   OH224357   2.680   5.365   4.604  0.0789  0.5290  0.1366
  981TIP3    H124358   2.772   5.338   4.595  0.3110  1.2041  0.3977
  981TIP3    H224359   2.654   5.391   4.515 -0.1474 -0.5305 -0.1164
  982TIP3   OH224360   4.373   0.774   6.391 -0.0727  0.1154  0.3211
  982TIP3    H124361   4.317   0.709   6.348 -1.2332  0.5734  1.0956
  982TIP3    H224362   4.340   0.780   6.480 -0.3488  2.1456  0.1392
  983TIP3   OH224363   4.001   4.817  13.914 -0.3812 -0.3220  0.3664
  983TIP3    H124364   4.016   4.735  13.866  0.6746 -0.8187  1.4855
  983TIP3    H224365   4.085   4.835  13.958 -0.8736  0.8854  0.8548
  984TIP3   OH224366   2.310   4.954  10.821  0.1678 -0.7050 -0.4286
  984TIP3    H124367   2.234   5.007  10.846  0.1307 -0.8972 -0.1298
  984TIP3    H224368   2.297   4.871  10.866  0.9611 -0.4657  0.2588
  985TIP3   OH224369   3.550   0.306   0.859 -0.0703 -0.2313 -0.1378
  985TIP3    H124370   3.636   0.345   0.845 -0.8511  1.1199 -1.3495
  985TIP3    H224371   3.509   0.361   0.926 -0.3266 -0.3350 -0.2081
  986TIP3   OH224372   5.392   6.122  15.898  0.2733 -0.0673 -0.6271
  986TIP3    H124373   5.484   6.150  15.899 -0.1710  1.5528 -1.3220
  986TIP3    H224374   5.355   6.162  15.819 -0.7159 -1.8361 -1.1102
  987TIP3   OH224375   4.398   0.228  15.808 -0.0420 -0.2821 -0.2484
  987TIP3    H124376   4.402   0.280  15.888  1.9412  0.2870 -0.6684
  987TIP3    H224377   4.363   0.288  15.742  0.8274  0.0706 -0.3947
  988TIP3   OH224378   6.124   6.019   1.988 -0.1412  0.9089  0.7385
  988TIP3    H124379   6.144   5.934   2.029 -1.8011  0.3206  0.3840
  988TIP3    H224380   6.142   6.005   1.895  4.2894  2.4446  1.1284
  989TIP3   OH224381   3.947   2.461   2.157 -0.5840 -0.9078 -0.2231
  989TIP3    H124382   3.859   2.478   2.191  0.0165 -2.1145  2.1436
  989TIP3    H224383   4.005   2.486   2.228  0.9959 -0.6142 -1.5567
  990TIP3   OH224384   2.824   0.910  16.140  0.2870  0.3576 -0.1570
  990TIP3    H124385   2.788   0.822  16.129 -1.4581  1.1671 -1.2715
  990TIP3    H224386   2.845   0.916  16.233  0.0746 -1.0835  0.0039
  991TIP3   OH224387   2.691   4.447   0.042  0.0440 -0.1730  0.0151
  991TIP3    H124388   2.619   4.401   0.000 -0.3832 -0.1056  0.6663
  991TIP3    H224389   2.747   4.377   0.076 -1.0375 -0.2596  1.7497
  992TIP3   OH224390   6.666   0.131  17.170 -0.0277  0.1134 -0.4233
  992TIP3    H124391   6.723   0.189  17.121  1.8203 -1.1400  0.1490
  992TIP3    H224392   6.695   0.139  17.261  0.0614 -1.4128 -0.2864
  993TIP3   OH224393   1.813   0.527  16.232 -0.7401 -0.5810  0.0744
  993TIP3    H124394   1.748   0.469  16.190 -0.9004  0.9654 -2.0005
  993TIP3    H224395   1.762   0.578  16.295 -0.9548 -1.3960  0.5723
  994TIP3   OH224396   5.892   5.102   0.848 -0.1392  0.2405  0.5115
  994TIP3    H124397   5.943   5.031   0.809 -0.3606 -0.6145  1.6920
  994TIP3    H224398   5.828   5.126   0.782 -1.2789 -1.9724  0.7211
  995TIP3   OH224399   0.651   0.362  17.010  0.3080  0.1233 -0.1893
  995TIP3    H124400   0.622   0.279  17.048  1.5584  0.9234  2.7774
  995TIP3    H224401   0.575   0.419  17.018 -0.2310 -0.4042 -1.3034
  996TIP3   OH224402   6.077   2.435  11.826  0.6066 -0.0854  0.7284
  996TIP3    H124403   6.091   2.348  11.862 -0.8687 -0.3300  0.7854
  996TIP3    H224404   6.149   2.488  11.860  2.4511 -1.6180 -0.5843
  997TIP3   OH224405   0.503   1.383   6.525 -0.2742  0.2714 -0.3984
  997TIP3    H124406   0.496   1.475   6.500  0.6633  0.4327 -0.1040
  997TIP3    H224407   0.574   1.349   6.469 -1.2560 -0.5223 -1.1955
  998TIP3   OH224408   0.022   6.450   5.859  0.3391  0.3471  0.0336
  998TIP3    H124409   0.006   6.368   5.906 -3.1575  1.0507  0.2764
  998TIP3    H224410   0.069   6.505   5.923  2.0092 -1.0838  0.1268
  999TIP3   OH224411   4.637   5.197   4.492 -0.1069  0.1673  0.4909
  999TIP3    H124412   4.634   5.214   4.586  0.9333  1.1480  0.3611
  999TIP3    H224413   4.595   5.274   4.453 -1.8736 -0.9002  0.1950
 1000TIP3   OH224414   2.908   0.454  12.137  0.3008  0.8977 -0.2217
 1000TIP3    H124415   2.928   0.463  12.044  1.1747  0.3515 -0.1004
 1000TIP3    H224416   2.921   0.361  12.156  0.6483  1.0902  0.5524
 1001TIP3   OH224417   0.662   6.163   2.955  0.4031  0.3621 -0.0808
 1001TIP3    H124418   0.716   6.234   2.919 -0.2956  0.3971 -1.1035
 1001TIP3    H224419   0.697   6.148   3.042 -0.0385  2.6558  0.5657
 1002TIP3   OH224420   3.873   0.401   2.848  0.0405 -0.3072  0.2623
 1002TIP3    H124421   3.807   0.333   2.861 -1.9425  1.1094 -1.4954
 1002TIP3    H224422   3.957   0.356   2.853 -1.1789 -2.8335 -0.6362
 1003TIP3   OH224423   6.083   4.390  13.820 -0.1044  0.2103 -0.5371
 1003TIP3    H124424   6.060   4.367  13.910  1.2372 -0.5419 -0.3533
 1003TIP3    H224425   6.030   4.331  13.766  0.6589 -0.8592 -0.1541
 1004TIP3   OH224426   1.286   2.553   5.522  0.3060 -0.2219  0.6779
 1004TIP3    H124427   1.328   2.469   5.541  0.8742 -0.2354 -0.5360
 1004TIP3    H224428   1.359   2.616   5.517  0.0001  0.1186  0.4587
 1005TIP3   OH224429   5.721   6.189  16.248 -0.3544  0.3076 -0.2577
 1005TIP3    H124430   5.641   6.154  16.285 -0.5731  0.7630 -0.2864
 1005TIP3    H224431   5.709   6.284  16.252 -0.0782  0.3710 -0.8304
 1006TIP3   OH224432   2.396   1.055  15.648  0.4183 -0.0937 -0.4038
 1006TIP3    H124433   2.492   1.046  15.652  0.7416  1.9256 -2.0288
 1006TIP3    H224434   2.381   1.150  15.651 -1.3297 -0.2161 -2.9935
 1007TIP3   OH224435   1.322   3.751   0.251  0.0687  0.2825  0.0035
 1007TIP3    H124436   1.417   3.740   0.244  0.0439 -0.9910  1.1364
 1007TIP3    H224437   1.291   3.665   0.278 -1.4414  0.6469 -0.5121
 1008TIP3   OH224438   4.054   4.757  14.586  0.0880 -0.3090  0.4205
 1008TIP3    H124439   4.147   4.743  14.572  0.1867 -0.6522  1.3375
 1008TIP3    H224440   4.049   4.834  14.643 -0.2332  0.2409 -0.3344
 1009TIP3   OH224441   0.292   0.183   5.128  0.1588  0.2858  0.1508
 1009TIP3    H124442   0.197   0.178   5.130  0.1010  0.9707 -0.4392
 1009TIP3    H224443   0.317   0.199   5.219 -0.1881 -1.1918  0.5359
 1010TIP3   OH224444   5.466   6.461  13.314  0.1717 -0.4335  0.3158
 1010TIP3    H124445   5.477   6.375  13.355 -1.0921 -0.8979 -0.2930
 1010TIP3    H224446   5.505   6.452  13.228 -0.2304 -0.4959  0.1383
 1011TIP3   OH224447   3.203   5.273   1.844 -0.3031 -0.4141  0.2714
 1011TIP3    H124448   3.292   5.256   1.874 -0.2016  1.8348  1.4495
 1011TIP3    H224449   3.151   5.277   1.924 -0.7806  1.7295 -0.0868
 1012TIP3   OH224450   3.954   4.389  15.297  0.2825 -0.5101  0.1699
 1012TIP3    H124451   3.908   4.311  15.264 -0.0197 -0.2157 -0.1140
 1012TIP3    H224452   3.932   4.458  15.234 -0.4100  0.1076  1.0549
 1013TIP3   OH224453   6.155   4.438   0.393 -0.8373 -0.4797 -0.0204
 1013TIP3    H124454   6.207   4.434   0.473  0.3016 -1.0744 -0.7649
 1013TIP3    H224455   6.101   4.359   0.396 -1.0335 -0.3386  0.2987
 1014TIP3   OH224456   2.813   3.736  13.562 -0.0894 -0.1583  0.1326
 1014TIP3    H124457   2.894   3.696  13.530  0.1873 -0.0685  0.7122
 1014TIP3    H224458   2.807   3.707  13.653 -1.3637 -1.1979 -0.2621
 1015TIP3   OH224459   4.874   4.132  12.467 -0.0311 -0.2230 -0.2124
 1015TIP3    H124460   4.909   4.136  12.556 -0.1828 -1.2962 -0.0967
 1015TIP3    H224461   4.792   4.083  12.476 -1.8599  2.5758 -0.4010
 1016TIP3   OH224462   6.189   2.325  14.477 -0.3274 -0.3599  0.2464
 1016TIP3    H124463   6.234   2.245  14.506  0.9612  0.7041  1.2999
 1016TIP3    H224464   6.192   2.320  14.381  0.6077 -1.1131  0.2919
 1017TIP3   OH224465   0.538   6.120   4.478  0.0209 -0.7921  0.6224
 1017TIP3    H124466   0.514   6.110   4.385 -1.6913  2.1149  0.6190
 1017TIP3    H224467   0.609   6.184   4.477 -3.1513  3.1629  1.3266
 1018TIP3   OH224468   0.882   1.138  12.399  0.5896  0.2737  0.8687
 1018TIP3    H124469   0.931   1.087  12.463 -0.0408 -0.0446  1.1056
 1018TIP3    H224470   0.937   1.214  12.381  1.3193 -0.2439  0.8794
 1019TIP3   OH224471   3.073   5.116   0.367  0.3317  0.2456 -0.0644
 1019TIP3    H124472   3.141   5.069   0.317  0.7870  0.4374  0.3687
 1019TIP3    H224473   3.018   5.047   0.403  0.9764  0.0350  0.5391
 1020TIP3   OH224474   2.309   0.624  10.424  0.7914  0.2520 -0.0217
 1020TIP3    H124475   2.364   0.681  10.371 -0.5443  2.5158  0.8590
 1020TIP3    H224476   2.288   0.676  10.502 -2.1185 -0.6392 -0.0703
 1021TIP3   OH224477   1.827   0.722   0.661  0.5149  0.7289  0.4376
 1021TIP3    H124478   1.738   0.699   0.687  1.6037 -0.8215  3.1339
 1021TIP3    H224479   1.859   0.644   0.615  1.3740  0.1418  1.9831
 1022TIP3   OH224480   2.452   4.747   2.721  0.5263 -0.0065  0.2537
 1022TIP3    H124481   2.537   4.744   2.677  0.1908 -0.0318 -0.4015
 1022TIP3    H224482   2.427   4.655   2.732 -1.3834 -0.1000 -3.4608
 1023TIP3   OH224483   0.156   3.878   4.947 -0.1379 -0.1641  0.0356
 1023TIP3    H124484   0.204   3.799   4.974  1.7133  1.3733  1.5542
 1023TIP3    H224485   0.071   3.870   4.990  0.7880 -0.3970  1.9492
 1024TIP3   OH224486   3.508   5.389  12.698  0.2694  0.5372  0.0406
 1024TIP3    H124487   3.435   5.380  12.760 -1.6862  0.9174 -2.0514
 1024TIP3    H224488   3.571   5.323  12.725 -2.6282 -2.6597 -0.3391
 1025TIP3   OH224489   1.241   4.098  16.516 -0.4931 -0.3966  0.0094
 1025TIP3    H124490   1.278   4.100  16.605 -0.1113 -0.1566 -0.1528
 1025TIP3    H224491   1.146   4.106  16.530 -0.3446  1.2730  0.3317
 1026TIP3   OH224492   4.399   5.781   0.656  0.2020 -0.1162 -0.0043
 1026TIP3    H124493   4.370   5.828   0.734 -0.2062 -0.6327  0.1618
 1026TIP3    H224494   4.327   5.791   0.593  0.2400 -0.2727 -0.0729
 1027TIP3   OH224495   5.639   6.411  13.083  0.0017  0.0689  0.0299
 1027TIP3    H124496   5.722   6.453  13.108 -0.1043  0.1006  0.3312
 1027TIP3    H224497   5.657   6.371  12.998  0.3715 -0.0505  0.1635
 1028TIP3   OH224498   2.182   2.512  13.470  0.5814  0.3541  0.0151
 1028TIP3    H124499   2.158   2.442  13.409  0.8212  0.2081  0.0897
 1028TIP3    H224500   2.200   2.466  13.552 -1.5676  0.7050  0.7318
 1029TIP3   OH224501   2.908   6.585  15.034 -0.1600  0.1796 -0.4382
 1029TIP3    H124502   2.822   6.554  15.007 -0.3583 -0.1343  0.5366
 1029TIP3    H224503   2.907   6.678  15.014 -0.6524  0.1445 -0.5989
 1030TIP3   OH224504   0.706   6.454  12.853 -0.4750 -0.4591 -0.2123
 1030TIP3    H124505   0.748   6.382  12.899 -1.9872 -1.0734  0.2635
 1030TIP3    H224506   0.744   6.451  12.765  0.2586 -1.1407  0.1113
 1031TIP3   OH224507   5.774   0.116  16.080 -0.1102 -0.0667 -0.0379
 1031TIP3    H124508   5.749   0.089  16.168  0.0958 -1.7941 -0.4681
 1031TIP3    H224509   5.697   0.162  16.046 -0.3870  0.1283  0.8440
 1032TIP3   OH224510   4.829   3.110  12.844 -0.4523 -0.0038 -0.2691
 1032TIP3    H124511   4.882   3.186  12.869  0.4749 -0.1624 -1.6694
 1032TIP3    H224512   4.740   3.144  12.840 -0.6160  0.1529  2.6025
 1033TIP3   OH224513   1.545   3.389  16.761  0.7769 -0.4093  0.4153
 1033TIP3    H124514   1.472   3.334  16.735  0.3268 -0.3221  1.4315
 1033TIP3    H224515   1.546   3.384  16.857  1.1103  0.8431  0.5001
 1034TIP3   OH224516   1.558   1.984  12.340  1.0058  0.0624 -0.2445
 1034TIP3    H124517   1.479   2.033  12.314 -0.8499 -3.1815 -1.2577
 1034TIP3    H224518   1.603   2.043  12.401 -0.9502  2.9972 -1.3692
 1035TIP3   OH224519   5.757   6.037  12.077  0.3213 -0.1006  0.0954
 1035TIP3    H124520   5.688   5.991  12.030 -0.2924 -0.9641  1.7801
 1035TIP3    H224521   5.838   6.005  12.037 -0.1059 -2.2582  0.7861
 1036TIP3   OH224522   2.861   3.438  15.771 -0.5399 -0.2394  0.1864
 1036TIP3    H124523   2.771   3.461  15.748 -0.5315  1.7336  1.8406
 1036TIP3    H224524   2.855   3.405  15.860  0.3577 -0.2699  0.2400
 1037TIP3   OH224525   5.745   1.385   6.416  0.0053  0.2577 -0.0144
 1037TIP3    H124526   5.688   1.435   6.474  1.8134  2.4464  0.0177
 1037TIP3    H224527   5.833   1.416   6.436  1.0559 -1.5933 -1.3958
 1038TIP3   OH224528   1.978   1.188  11.867 -0.0784 -0.4354 -0.3042
 1038TIP3    H124529   1.996   1.225  11.781  0.3237  1.6487  0.6048
 1038TIP3    H224530   1.886   1.160  11.862 -0.0871 -0.2676 -1.3710
 1039TIP3   OH224531   0.674   3.730  16.447  0.7328 -0.1378 -0.4274
 1039TIP3    H124532   0.747   3.741  16.386  1.3195  0.1203  0.3051
 1039TIP3    H224533   0.711   3.681  16.520  0.6400  1.4667  0.7381
 1040TIP3   OH224534   3.545   3.427  12.319  0.2368 -0.0148 -0.3175
 1040TIP3    H124535   3.552   3.509  12.368  2.1665 -1.8300  2.8347
 1040TIP3    H224536   3.481   3.444  12.251 -1.2905  3.3734  1.7349
 1041TIP3   OH224537   4.436   1.225   2.901 -0.2643 -0.3404  0.1558
 1041TIP3    H124538   4.464   1.307   2.860 -0.7182 -0.3269 -0.1401
 1041TIP3    H224539   4.426   1.164   2.828 -0.0426 -0.6279  0.3620
 1042TIP3   OH224540   6.428   5.868  11.241  0.0037 -0.5768  0.5442
 1042TIP3    H124541   6.420   5.854  11.335 -2.2227  0.0691  0.5075
 1042TIP3    H224542   6.418   5.781  11.203 -1.1008 -0.6039  0.8477
 1043TIP3   OH224543   4.245   6.193  13.568  0.0954 -0.3323  0.3994
 1043TIP3    H124544   4.321   6.136  13.555  0.9876  1.2290 -1.8994
 1043TIP3    H224545   4.194   6.183  13.488 -0.7729  0.5790  0.8213
 1044TIP3   OH224546   2.591   1.609  16.570 -0.1085 -0.3848 -0.3421
 1044TIP3    H124547   2.528   1.558  16.519  2.4129 -1.9366 -2.1399
 1044TIP3    H224548   2.633   1.666  16.505  1.8569 -1.0490  0.2537
 1045TIP3   OH224549   4.127   3.670  10.612  0.5171  0.3842 -0.2216
 1045TIP3    H124550   4.094   3.728  10.681  1.5035  0.3139  0.3354
 1045TIP3    H224551   4.108   3.716  10.530 -1.9299 -0.1539 -0.0304
 1046TIP3   OH224552   1.646   6.364  12.111 -0.4775 -0.2144 -0.0689
 1046TIP3    H124553   1.588   6.289  12.102 -0.0658 -0.4493 -0.8078
 1046TIP3    H224554   1.603   6.420  12.175 -0.4084 -1.4344  1.0880
 1047TIP3   OH224555   4.376   5.531   5.036 -0.8322  0.3717 -0.0457
 1047TIP3    H124556   4.408   5.544   4.947 -0.9957 -1.3852 -0.3974
 1047TIP3    H224557   4.417   5.449   5.064 -0.6383  0.9891  1.5751
 1048TIP3   OH224558   0.331   0.936  10.957 -0.1358 -0.0002 -0.1471
 1048TIP3    H124559   0.334   0.988  10.877  1.3169  0.2781  0.0625
 1048TIP3    H224560   0.396   0.867  10.944  0.2299  0.1411  0.8455
 1049TIP3   OH224561   6.400   3.828   2.622  0.2036  0.6058 -0.1660
 1049TIP3    H124562   6.338   3.891   2.658 -0.5124 -0.1990  0.0500
 1049TIP3    H224563   6.448   3.796   2.698 -0.5582 -0.2890 -0.0360
 1050TIP3   OH224564   3.250   4.109   1.305 -0.6474 -0.2816  0.3492
 1050TIP3    H124565   3.270   4.016   1.291 -0.2699 -0.2854  0.9041
 1050TIP3    H224566   3.180   4.108   1.371 -0.8696 -0.1812  0.1163
 1051TIP3   OH224567   1.159   1.791  17.182 -0.0647 -0.7153 -0.4495
 1051TIP3    H124568   1.107   1.859  17.140 -0.7126 -1.1273 -0.3194
 1051TIP3    H224569   1.236   1.837  17.216 -0.7200  0.0344  0.0418
 1052TIP3   OH224570   3.588   4.014  13.960  0.0981 -0.0355 -0.1359
 1052TIP3    H124571   3.681   3.990  13.964 -0.0975 -0.8983 -0.5319
 1052TIP3    H224572   3.580   4.091  14.016  1.3161  0.8622 -1.1320
 1053TIP3   OH224573   5.792   4.501  13.771 -0.5476  0.0053 -0.6453
 1053TIP3    H124574   5.827   4.483  13.859 -1.0786  0.1853 -0.3928
 1053TIP3    H224575   5.718   4.441  13.763 -0.6898  0.2101 -0.8512
 1054TIP3   OH224576   6.139   0.442   3.070 -0.2838 -0.7736  0.9990
 1054TIP3    H124577   6.214   0.412   3.122  0.3610 -0.2825  0.3763
 1054TIP3    H224578   6.103   0.516   3.119  1.7015  1.1710 -0.2811
 1055TIP3   OH224579   4.727   1.873   2.169  0.3246 -0.3202 -0.5713
 1055TIP3    H124580   4.723   1.858   2.074  0.4662  0.4824 -0.7181
 1055TIP3    H224581   4.818   1.898   2.185  0.2433 -0.2148 -0.2680
 1056TIP3   OH224582   2.003   0.267  11.209 -0.2122 -0.1848  0.2373
 1056TIP3    H124583   2.035   0.357  11.215 -0.5563  0.0130 -0.6924
 1056TIP3    H224584   2.066   0.223  11.151  0.4533 -0.7923  1.3799
 1057TIP3   OH224585   2.906   2.786   0.078  0.3216 -0.1128  0.3081
 1057TIP3    H124586   2.929   2.865   0.126 -0.6412 -0.2243  0.9799
 1057TIP3    H224587   2.984   2.766   0.026  1.5495 -0.1756  2.0786
 1058TIP3   OH224588   1.763   2.396  12.575  0.1630 -0.4404  0.0568
 1058TIP3    H124589   1.738   2.391  12.667  0.0261 -0.9250  0.0001
 1058TIP3    H224590   1.826   2.468  12.570 -1.8642  1.4120  0.0440
 1059TIP3   OH224591   1.792   5.636  15.509 -0.1914 -1.1867 -0.6013
 1059TIP3    H124592   1.869   5.580  15.514 -0.1345 -1.1809 -1.3968
 1059TIP3    H224593   1.826   5.725  15.502 -0.2641 -0.8590  1.9883
 1060TIP3   OH224594   1.600   4.025   4.499 -0.3972 -0.1057 -0.1044
 1060TIP3    H124595   1.583   3.943   4.453  0.3659 -1.2614  1.5663
 1060TIP3    H224596   1.534   4.085   4.466 -2.9857 -2.2523  0.7778
 1061TIP3   OH224597   4.714   3.173  16.859  0.2364 -0.3071  0.2354
 1061TIP3    H124598   4.726   3.085  16.823 -3.2254 -0.7949 -0.0687
 1061TIP3    H224599   4.696   3.159  16.952  5.2416  0.6780  1.6615
 1062TIP3   OH224600   2.146   2.794   2.311 -0.2778 -0.1877  0.2352
 1062TIP3    H124601   2.088   2.814   2.385 -0.2793 -0.2519  0.2514
 1062TIP3    H224602   2.221   2.851   2.323 -0.3636 -0.0628  0.1836
 1063TIP3   OH224603   4.519   1.379   3.794 -0.1323 -0.6563  0.2352
 1063TIP3    H124604   4.594   1.341   3.749  0.6790 -0.0582  1.0494
 1063TIP3    H224605   4.506   1.323   3.871 -0.9443 -1.1487 -0.2526
 1064TIP3   OH224606   0.066   3.161  11.960 -0.6034 -0.4492  0.0987
 1064TIP3    H124607   0.072   3.136  11.868 -0.4619  0.8680 -0.2612
 1064TIP3    H224608  -0.028   3.173  11.975 -0.5379  0.5462 -0.2214
 1065TIP3   OH224609   4.789   5.387   0.594  0.0351 -0.0710  0.1597
 1065TIP3    H124610   4.737   5.344   0.661  0.2572 -1.5198 -0.5493
 1065TIP3    H224611   4.865   5.422   0.641  1.2817 -2.8838  0.4614
 1066TIP3   OH224612   4.747   4.876   1.924  0.6632 -0.0329 -0.4228
 1066TIP3    H124613   4.660   4.861   1.960  1.3664  0.0462  1.4544
 1066TIP3    H224614   4.732   4.906   1.834 -1.3026  1.2904  0.2829
 1067TIP3   OH224615   5.145   2.059  15.706 -0.2933 -0.3231  0.7269
 1067TIP3    H124616   5.065   2.009  15.690 -0.6996 -0.3671  2.6577
 1067TIP3    H224617   5.128   2.144  15.665 -0.3569 -1.0911 -0.9234
 1068TIP3   OH224618   4.378   0.448   5.362 -0.6282 -0.2175 -0.4588
 1068TIP3    H124619   4.344   0.460   5.273 -1.2225 -1.3023 -0.3910
 1068TIP3    H224620   4.343   0.523   5.411 -1.7564 -0.5542 -0.7264
 1069TIP3   OH224621   3.935   0.106  11.447  0.3652  0.2601  0.1395
 1069TIP3    H124622   3.999   0.064  11.505  1.5621  1.1889 -0.4795
 1069TIP3    H224623   3.979   0.184  11.414 -1.9704  2.3989  1.6891
 1070TIP3   OH224624   3.998   1.112  11.270 -0.5634 -0.4434 -0.1784
 1070TIP3    H124625   3.982   1.081  11.181  1.0387  0.1860 -0.7220
 1070TIP3    H224626   3.932   1.067  11.323 -0.4328 -2.1913 -1.4081
 1071TIP3   OH224627   5.334   1.574   0.559  0.3008 -0.1995  0.0750
 1071TIP3    H124628   5.414   1.611   0.598  1.4247 -0.7636 -1.5936
 1071TIP3    H224629   5.346   1.479   0.567 -0.0156 -0.2940 -0.5258
 1072TIP3   OH224630   0.729   2.636  15.519  0.2955  0.1615 -0.0706
 1072TIP3    H124631   0.819   2.602  15.527  0.6093  1.0022  0.0866
 1072TIP3    H224632   0.729   2.715  15.573 -0.1718  0.8872 -1.0986
 1073TIP3   OH224633   3.664   3.706  11.400 -0.1521 -0.7447 -0.2299
 1073TIP3    H124634   3.718   3.633  11.430 -0.5218 -1.8464 -2.1150
 1073TIP3    H224635   3.718   3.750  11.334 -0.3264  0.1024  0.1776
 1074TIP3   OH224636   1.457   2.907  16.216 -0.8546  0.0605  1.2959
 1074TIP3    H124637   1.503   2.836  16.170 -0.1289  1.2787  0.0739
 1074TIP3    H224638   1.399   2.944  16.150  0.8107  2.3993  1.0094
 1075TIP3   OH224639   4.659   0.412   5.736 -1.2390 -0.0146 -0.2884
 1075TIP3    H124640   4.685   0.492   5.782 -1.3478  0.4544 -1.0306
 1075TIP3    H224641   4.723   0.403   5.665 -0.7232 -1.0455  0.2704
 1076TIP3   OH224642   0.134   5.945   1.874 -0.6953  0.2510  0.0532
 1076TIP3    H124643   0.040   5.929   1.867 -0.3314 -2.1222 -0.4541
 1076TIP3    H224644   0.163   5.957   1.783 -0.3482 -0.3052  0.0821
 1077TIP3   OH224645   1.661   3.158   3.794  0.1376 -0.6078  0.3071
 1077TIP3    H124646   1.630   3.196   3.876 -1.5190 -0.5187 -0.3228
 1077TIP3    H224647   1.747   3.197   3.781  0.4819 -0.6873  2.0278
 1078TIP3   OH224648   5.099   5.026   0.419  0.3033 -0.1062  0.1817
 1078TIP3    H124649   5.011   5.056   0.444 -0.3604 -1.2527 -0.6762
 1078TIP3    H224650   5.114   5.066   0.334  0.4737 -0.1848  0.1749
 1079TIP3   OH224651   5.124   5.176   4.809 -0.4408  0.5759 -0.5217
 1079TIP3    H124652   5.168   5.116   4.868  0.8639  0.4937 -1.5252
 1079TIP3    H224653   5.184   5.250   4.801 -1.5345  1.5271 -0.1429
 1080TIP3   OH224654   6.579   3.530  15.839 -0.3295 -0.6086  0.0468
 1080TIP3    H124655   6.613   3.598  15.896  1.3459 -1.4277  0.1000
 1080TIP3    H224656   6.602   3.448  15.883 -0.3325 -1.2269 -1.0512
 1081TIP3   OH224657   3.554   2.772   2.641  0.0124  0.5471  0.7088
 1081TIP3    H124658   3.576   2.732   2.725  2.4456  0.5588  0.1252
 1081TIP3    H224659   3.547   2.866   2.661 -0.9978  0.3989  1.1543
 1082TIP3   OH224660   5.173   2.732  15.991 -0.0056 -0.4425  0.0929
 1082TIP3    H124661   5.092   2.681  16.000  1.0398 -2.2953 -0.4039
 1082TIP3    H224662   5.184   2.774  16.076 -1.3614 -0.3367  0.2392
 1083TIP3   OH224663   1.392   1.678  13.955 -0.0933  0.0614 -0.2531
 1083TIP3    H124664   1.331   1.674  13.881  1.4122 -0.8622 -1.4838
 1083TIP3    H224665   1.389   1.770  13.983 -0.3709  0.5305 -1.7391
 1084TIP3   OH224666   2.912   0.929  14.595 -0.2122 -0.9082  0.1246
 1084TIP3    H124667   2.935   0.887  14.678  0.0535 -2.1345 -0.5506
 1084TIP3    H224668   2.825   0.965  14.610  0.1930 -0.3202  1.2098
 1085TIP3   OH224669   4.071   2.113   5.028  0.1175 -0.2013 -0.1009
 1085TIP3    H124670   4.020   2.167   5.088  0.4486  0.4261 -0.3775
 1085TIP3    H224671   4.037   2.024   5.041 -1.2345  0.2340 -0.4536
 1086TIP3   OH224672   3.193   4.324   5.034 -0.1953  0.1715  0.5074
 1086TIP3    H124673   3.120   4.359   5.086  0.7531  0.8224  1.4237
 1086TIP3    H224674   3.244   4.401   5.010  1.7579 -0.4976  2.2886
 1087TIP3   OH224675   2.076   4.476   2.698  0.4019  0.6463  0.6897
 1087TIP3    H124676   2.066   4.553   2.754 -0.1542  1.0362  0.0579
 1087TIP3    H224677   2.171   4.459   2.698  0.2772 -0.5812  3.3630
 1088TIP3   OH224678   5.601   6.183  16.868  0.0986 -0.2581  0.3647
 1088TIP3    H124679   5.549   6.233  16.932  0.1936 -1.7396  1.6585
 1088TIP3    H224680   5.539   6.121  16.830  0.5650 -0.9704  0.7569
 1089TIP3   OH224681   3.335   3.277  14.396 -0.5977 -0.1610 -0.4866
 1089TIP3    H124682   3.263   3.232  14.350 -0.4059  1.1907 -2.2277
 1089TIP3    H224683   3.299   3.363  14.418  0.1003  0.0841 -0.2907
 1090TIP3   OH224684   1.591   5.032   0.208  0.3709  0.4204  0.2096
 1090TIP3    H124685   1.556   5.039   0.297  0.6232 -1.5790  0.5147
 1090TIP3    H224686   1.677   5.075   0.212  0.7209 -0.3400  1.1584
 1091TIP3   OH224687   1.496   3.034   3.431  0.4065  0.1306  0.3728
 1091TIP3    H124688   1.450   3.086   3.366  0.9343 -0.3153 -0.3823
 1091TIP3    H224689   1.586   3.065   3.428  0.4517  0.0641  0.8522
 1092TIP3   OH224690   3.062   5.586   3.378  0.1606  0.0752  0.3388
 1092TIP3    H124691   3.106   5.668   3.354 -2.0425  1.3852  0.5726
 1092TIP3    H224692   3.115   5.551   3.450  0.8128  1.5852  0.6260
 1093TIP3   OH224693   0.508   3.331   4.096 -0.4093  0.5134 -0.9065
 1093TIP3    H124694   0.536   3.244   4.125  2.0441  1.9013  1.2292
 1093TIP3    H224695   0.437   3.354   4.156  0.1168  0.6673 -0.3349
 1094TIP3   OH224696   1.329   3.354  11.474  0.0678  0.4172  0.1481
 1094TIP3    H124697   1.247   3.306  11.456 -0.0430  0.8384 -0.5125
 1094TIP3    H224698   1.334   3.419  11.404  2.2480 -1.2210 -1.3808
 1095TIP3   OH224699   3.347   4.015   5.418  0.2490 -0.6881 -0.3594
 1095TIP3    H124700   3.438   4.013   5.391  0.3890 -0.5957  0.0863
 1095TIP3    H224701   3.348   3.982   5.508 -0.0284  0.1713 -0.0235
 1096TIP3   OH224702   3.899   4.420  10.389 -0.7800 -0.3839  0.0625
 1096TIP3    H124703   3.898   4.411  10.484  1.5548  1.0748  0.3043
 1096TIP3    H224704   3.826   4.479  10.369 -0.5925  0.2186  1.0916
 1097TIP3   OH224705   2.178   6.242  17.163  0.1812 -0.3345  0.0946
 1097TIP3    H124706   2.242   6.246  17.234  0.3398  1.5271 -0.1098
 1097TIP3    H224707   2.109   6.303  17.188  0.3818  0.5968 -1.4572
 1098TIP3   OH224708   3.330   5.644  11.644  0.0136  0.5745  0.0114
 1098TIP3    H124709   3.422   5.619  11.643  0.1220  0.9317 -1.6093
 1098TIP3    H224710   3.291   5.590  11.713  1.0431 -1.1154 -0.6722
 1099TIP3   OH224711   0.266   3.405  14.478  0.4575  0.5810  0.4179
 1099TIP3    H124712   0.205   3.352  14.529  0.6842  0.2739  0.3721
 1099TIP3    H224713   0.211   3.470  14.434 -0.0173 -0.5338 -0.7025
 1100TIP3   OH224714   1.109   3.532   2.963  0.2974  0.4591  0.2485
 1100TIP3    H124715   1.033   3.576   2.925  1.0615  3.3928  1.8610
 1100TIP3    H224716   1.157   3.600   3.009  1.4326 -2.1045  3.2637
 1101TIP3   OH224717   5.159   4.044  16.155  0.2914 -0.3182  0.6655
 1101TIP3    H124718   5.153   3.951  16.176 -1.8055 -0.4794 -0.3972
 1101TIP3    H224719   5.080   4.082  16.194 -0.4639  0.4323 -1.4600
 1102TIP3   OH224720   6.727   4.007  14.113  0.0717 -0.2076  0.2432
 1102TIP3    H124721   6.786   3.955  14.058 -1.7525  1.4509 -3.6254
 1102TIP3    H224722   6.751   4.098  14.095 -0.7692  0.4330  2.1056
 1103TIP3   OH224723   4.610   3.908  12.146 -0.0196 -0.1035 -0.3472
 1103TIP3    H124724   4.608   3.867  12.233  0.3221  1.9957  0.7277
 1103TIP3    H224725   4.548   3.857  12.094  0.3450 -1.9054  0.8855
 1104TIP3   OH224726   3.260   5.117  14.897 -0.0536 -0.3016  0.4485
 1104TIP3    H124727   3.266   5.021  14.893 -2.6434 -0.4870 -1.5770
 1104TIP3    H224728   3.297   5.147  14.814 -1.6282  0.2044 -0.1116
 1105TIP3   OH224729   5.807   1.663   0.084  0.2603 -0.3354 -0.2503
 1105TIP3    H124730   5.820   1.574   0.114 -1.0302 -0.7490 -0.8328
 1105TIP3    H224731   5.712   1.675   0.084  0.3533  0.6411 -1.2638
 1106TIP3   OH224732   5.503   1.148  15.736  0.0245  0.2353 -0.4793
 1106TIP3    H124733   5.431   1.090  15.712  0.1616 -0.4426  0.6821
 1106TIP3    H224734   5.539   1.110  15.815  0.7494  1.3746 -0.2391
 1107TIP3   OH224735   3.519   3.608  14.755  0.5540  0.0560 -0.4913
 1107TIP3    H124736   3.490   3.693  14.788 -0.2704 -0.0786 -0.8622
 1107TIP3    H224737   3.534   3.622  14.662 -0.5095 -0.4366 -0.7491
 1108TIP3   OH224738   2.365   4.843  10.133 -0.0294 -0.3713 -0.3942
 1108TIP3    H124739   2.270   4.852  10.148  0.1032 -0.4365  0.5258
 1108TIP3    H224740   2.404   4.914  10.183  0.4822 -1.0560  0.1984
 1109TIP3   OH224741   6.027   0.204   2.937 -0.0288 -0.0562 -0.8267
 1109TIP3    H124742   6.057   0.273   2.996 -0.2652 -1.2869  0.8039
 1109TIP3    H224743   6.087   0.131   2.953  0.0441 -0.3498 -2.3015
 1110TIP3   OH224744   5.294   4.548  14.953  0.0333 -0.0290 -0.1914
 1110TIP3    H124745   5.290   4.591  15.038  0.2263 -0.7996  0.2128
 1110TIP3    H224746   5.382   4.567  14.920  0.0380  0.0738 -0.1202
 1111TIP3   OH224747   0.849   1.149  14.361 -0.0176  0.4968  0.1124
 1111TIP3    H124748   0.934   1.144  14.405 -0.3390  3.0437  1.1545
 1111TIP3    H224749   0.794   1.087  14.408  0.3811  1.2494  1.6362
 1112TIP3   OH224750   2.466   2.418  16.157  0.6890  0.0680  0.1894
 1112TIP3    H124751   2.406   2.352  16.122 -1.1798  1.0808  1.2716
 1112TIP3    H224752   2.504   2.459  16.080 -2.5694  1.5968 -0.8159
 1113TIP3   OH224753   2.340   3.524  12.482 -0.3224 -0.5422  0.3158
 1113TIP3    H124754   2.296   3.481  12.556  0.7029  1.1872  2.0336
 1113TIP3    H224755   2.409   3.463  12.457  0.9955 -0.1176  2.5855
 1114TIP3   OH224756   6.288   4.061   4.889  0.1219  0.2362  0.1422
 1114TIP3    H124757   6.260   4.152   4.882  0.0157  0.1788 -0.1910
 1114TIP3    H224758   6.287   4.028   4.799 -0.9816 -0.4260  0.3766
 1115TIP3   OH224759   5.901   6.178  15.246  0.0408  0.4905  0.9803
 1115TIP3    H124760   5.995   6.172  15.265 -0.0002  0.5120  1.1834
 1115TIP3    H224761   5.867   6.091  15.269  0.2946 -0.0875 -0.6396
 1116TIP3   OH224762   0.148   6.337   0.152  0.2484  0.1763  0.0143
 1116TIP3    H124763   0.076   6.316   0.092 -0.4317 -0.7296  1.0973
 1116TIP3    H224764   0.207   6.262   0.146  0.9597  0.7697 -0.6268
 1117TIP3   OH224765   1.349   5.972  11.881 -0.3787 -0.2849 -0.3673
 1117TIP3    H124766   1.405   5.904  11.843 -0.4183 -0.0192 -0.9195
 1117TIP3    H224767   1.335   5.945  11.971  0.8473 -0.2364 -0.1386
 1118TIP3   OH224768   4.733   1.853   5.020  0.5186 -0.0091 -0.3440
 1118TIP3    H124769   4.821   1.817   5.011  0.4346  0.0728 -1.6480
 1118TIP3    H224770   4.707   1.830   5.110  2.9193  2.4434  1.0959
 1119TIP3   OH224771   2.345   0.685  16.520  0.1934  0.0181  0.0552
 1119TIP3    H124772   2.281   0.702  16.452  1.3021 -2.0799 -1.6254
 1119TIP3    H224773   2.323   0.598  16.554  0.5410  0.4161  1.3769
 1120TIP3   OH224774   4.057   6.248  17.012 -0.2331 -0.4162  0.1770
 1120TIP3    H124775   4.028   6.227  16.923  0.8526 -0.5688 -0.1562
 1120TIP3    H224776   4.085   6.340  17.007 -1.1537 -0.0882  0.6389
 1121TIP3   OH224777   2.689   0.600  13.914 -0.0822 -0.6280  0.1207
 1121TIP3    H124778   2.705   0.603  14.008 -2.2169 -0.7716  0.5422
 1121TIP3    H224779   2.698   0.508  13.891  3.0425 -0.2971 -0.4026
 1122TIP3   OH224780   2.909   1.282  11.992  0.0733  0.2034  0.0390
 1122TIP3    H124781   2.969   1.252  12.060 -0.6907 -2.7192 -0.4326
 1122TIP3    H224782   2.939   1.237  11.912 -1.8388 -0.2107 -0.5023
 1123TIP3   OH224783   4.871   0.458  10.825 -0.2431 -0.2391 -0.2578
 1123TIP3    H124784   4.851   0.497  10.740 -0.0103  1.2331  0.3378
 1123TIP3    H224785   4.793   0.409  10.848 -0.9447  0.7086 -0.5756
 1124TIP3   OH224786   1.986   1.734   2.419  0.2456  0.0035 -0.2384
 1124TIP3    H124787   1.971   1.778   2.503  1.1575 -1.1549  0.5734
 1124TIP3    H224788   1.964   1.800   2.353  0.8934  1.4536  0.9181
 1125TIP3   OH224789   5.218   1.217  15.441  0.1036  0.5107  0.4160
 1125TIP3    H124790   5.149   1.279  15.462 -0.1209  0.5247 -0.3342
 1125TIP3    H224791   5.299   1.267  15.451 -0.1031  1.1160 -0.7539
 1126TIP3   OH224792   5.056   3.630   2.705 -0.5960 -0.3527  0.5892
 1126TIP3    H124793   5.024   3.556   2.756  0.5872  0.1861  2.1935
 1126TIP3    H224794   5.123   3.593   2.648 -0.4052 -0.6242  0.9866
 1127TIP3   OH224795   3.875   0.195  12.241  0.4990  0.3766  0.0222
 1127TIP3    H124796   3.927   0.130  12.288 -1.1920 -0.9709  0.1054
 1127TIP3    H224797   3.937   0.265  12.222  2.2901 -1.0396  0.3256
 1128TIP3   OH224798   6.444   6.012  14.246 -0.2549 -0.0810  0.1636
 1128TIP3    H124799   6.427   5.921  14.269 -1.4115  0.0479 -0.1529
 1128TIP3    H224800   6.411   6.022  14.157  0.4393  0.4924 -0.0461
 1129TIP3   OH224801   1.039   2.808  13.305 -0.0648 -0.1612  0.4443
 1129TIP3    H124802   0.997   2.843  13.227  1.5779  0.4453 -0.2062
 1129TIP3    H224803   1.127   2.785  13.277  0.4173 -0.3729  2.0154
 1130TIP3   OH224804   1.939   4.792   5.562 -0.0426 -0.4354  0.1298
 1130TIP3    H124805   1.975   4.707   5.585 -0.3530 -1.2367 -2.1189
 1130TIP3    H224806   1.873   4.773   5.496 -0.1460  1.5490 -0.3961
 1131TIP3   OH224807   2.929   0.251   6.421 -0.8398 -0.0490 -0.0637
 1131TIP3    H124808   3.002   0.194   6.445 -0.2318 -0.2813 -2.2881
 1131TIP3    H224809   2.957   0.339   6.446 -1.1428 -0.4766  1.9529
 1132TIP3   OH224810   4.199   0.941   1.244 -0.0389 -0.3003  0.4891
 1132TIP3    H124811   4.268   0.983   1.295  0.5723 -0.9135  0.1942
 1132TIP3    H224812   4.118   0.982   1.274  0.3173 -0.5073  1.8040
 1133TIP3   OH224813   2.201   1.185  13.729  0.4230  0.1050 -0.5841
 1133TIP3    H124814   2.128   1.227  13.776  0.6451  0.3602 -0.4636
 1133TIP3    H224815   2.203   1.095  13.763 -0.3413 -0.1358 -1.1695
 1134TIP3   OH224816   3.798   5.625   3.630  0.2731  0.1131 -0.3866
 1134TIP3    H124817   3.857   5.681   3.578  0.8178  1.0528  1.1788
 1134TIP3    H224818   3.780   5.676   3.709  0.7859 -1.9149  1.1162
 1135TIP3   OH224819   6.485   5.810   5.021 -0.3819 -0.6407 -0.5978
 1135TIP3    H124820   6.399   5.818   5.062  0.0442 -0.8469  0.3803
 1135TIP3    H224821   6.521   5.899   5.024 -0.6357 -0.5088 -1.2108
 1136TIP3   OH224822   2.706   5.450  14.114  0.0454  0.9506 -0.2368
 1136TIP3    H124823   2.728   5.382  14.178 -1.1148  1.1367  0.3945
 1136TIP3    H224824   2.790   5.491  14.091  0.7020 -0.3879 -0.2910
 1137TIP3   OH224825   5.248   5.837  15.126 -0.1211  0.6779 -0.1897
 1137TIP3    H124826   5.205   5.922  15.134  2.4964  2.0106  1.0029
 1137TIP3    H224827   5.287   5.821  15.212 -2.7681 -3.1634  0.5801
 1138TIP3   OH224828   1.096   5.499  15.259  0.3635 -0.0639 -0.2614
 1138TIP3    H124829   1.168   5.513  15.198  0.4231  0.8486 -0.0016
 1138TIP3    H224830   1.129   5.435  15.322  0.4068 -0.7871 -1.0011
 1139TIP3   OH224831   1.813   1.203   2.495  0.1120 -0.8427  0.2417
 1139TIP3    H124832   1.828   1.128   2.438 -0.2139 -1.1740  0.5926
 1139TIP3    H224833   1.835   1.279   2.441 -0.1087 -1.1598 -0.2962
 1140TIP3   OH224834   2.135   4.603   5.680 -0.0687  0.0585  0.5718
 1140TIP3    H124835   2.109   4.527   5.731 -0.1495  0.1153  0.6148
 1140TIP3    H224836   2.193   4.568   5.612  0.6390  0.0755  1.1547
 1141TIP3   OH224837   4.916   2.911  11.050  0.0536 -0.3840  0.4430
 1141TIP3    H124838   4.968   2.971  10.997  0.0560  0.3719  1.2700
 1141TIP3    H224839   4.839   2.892  10.997 -0.2017  0.7781  0.3654
 1142TIP3   OH224840   1.510   1.478   6.474 -0.2163 -0.1318  0.4657
 1142TIP3    H124841   1.557   1.560   6.487  1.1077 -0.6350 -0.8641
 1142TIP3    H224842   1.576   1.410   6.488  0.1861 -0.8207 -3.6072
 1143TIP3   OH224843   3.223   1.538  14.627  0.3019 -0.8459 -0.3079
 1143TIP3    H124844   3.139   1.550  14.584  0.6016 -1.3138 -1.0409
 1143TIP3    H224845   3.205   1.552  14.720 -0.4348 -0.2466 -0.5375
 1144TIP3   OH224846   4.531   4.493   3.041 -0.2449  0.4963  0.0364
 1144TIP3    H124847   4.547   4.564   3.103  1.7155  0.0521  0.1112
 1144TIP3    H224848   4.617   4.453   3.028 -1.1072 -1.1828 -0.8374
 1145TIP3   OH224849   2.841   2.767  16.703 -0.0073  0.3006 -0.0705
 1145TIP3    H124850   2.866   2.685  16.660 -3.6349 -1.2146  0.3512
 1145TIP3    H224851   2.844   2.746  16.797 -0.8298  0.6728  0.0496
 1146TIP3   OH224852   1.876   5.351  14.280  0.0074  0.7425  0.0696
 1146TIP3    H124853   1.849   5.310  14.362  1.7438  1.4093  1.0315
 1146TIP3    H224854   1.955   5.303  14.254  0.7713  1.9651  0.0313
 1147TIP3   OH224855   4.231   0.014  15.929  0.4461 -0.1477  0.2096
 1147TIP3    H124856   4.307   0.016  15.987  1.1880  0.8001 -0.7663
 1147TIP3    H224857   4.256   0.067  15.854 -1.6175  1.2227  0.4063
 1148TIP3   OH224858   3.103   5.064   4.621 -0.1014 -0.2284  0.1361
 1148TIP3    H124859   3.110   5.097   4.711  0.2153  0.5484 -0.1694
 1148TIP3    H224860   3.185   5.017   4.607  1.8157  3.1095 -1.1057
 1149TIP3   OH224861   2.177   1.616  15.181  0.1456 -0.3845  0.1184
 1149TIP3    H124862   2.092   1.630  15.139 -0.4631  0.6793  1.6301
 1149TIP3    H224863   2.156   1.602  15.274  1.5743 -0.8033  0.4036
 1150TIP3   OH224864   4.073   4.854  15.174  0.0120 -0.1690  0.4557
 1150TIP3    H124865   4.168   4.843  15.179  0.1636  0.6332 -0.3547
 1150TIP3    H224866   4.060   4.949  15.176 -0.7457 -0.2598  0.1124
 1151TIP3   OH224867   2.159   0.588   2.498 -0.3251  0.3046 -0.1721
 1151TIP3    H124868   2.093   0.628   2.441 -1.0483  0.3156  0.6566
 1151TIP3    H224869   2.117   0.509   2.532  0.3151 -0.0178 -0.1209
 1152TIP3   OH224870   5.450   2.362  12.744  0.3121  0.1264  0.0948
 1152TIP3    H124871   5.420   2.403  12.825 -0.2724  2.0103 -1.0164
 1152TIP3    H224872   5.370   2.337  12.699  0.6036  0.0398 -0.3785
 1153TIP3   OH224873   1.280   0.797   1.718 -0.6440 -0.1567 -0.0786
 1153TIP3    H124874   1.247   0.708   1.732 -0.6328 -0.5184 -2.0769
 1153TIP3    H224875   1.354   0.786   1.657 -0.1377  1.1553  0.2546
 1154TIP3   OH224876   1.339   0.173   2.043 -0.3475  0.1031 -0.0903
 1154TIP3    H124877   1.274   0.111   2.011 -2.4450  2.6443 -1.1102
 1154TIP3    H224878   1.321   0.181   2.137 -0.0088 -0.8233  0.0644
 1155TIP3   OH224879   4.811   2.325  14.923  0.0211  0.2157  0.3952
 1155TIP3    H124880   4.721   2.295  14.932  0.4518 -1.3831 -0.3280
 1155TIP3    H224881   4.821   2.391  14.992 -1.6186  0.2675  0.6279
 1156TIP3   OH224882   6.471   6.520   4.138  0.1161  0.0053  0.4088
 1156TIP3    H124883   6.448   6.510   4.230 -1.4528  0.8612  0.1327
 1156TIP3    H224884   6.477   6.430   4.105  0.2795 -0.2927  1.2270
 1157TIP3   OH224885   0.781   3.582  12.766  0.1136  0.0667  0.3247
 1157TIP3    H124886   0.867   3.622  12.777 -0.4989  1.1153  1.5727
 1157TIP3    H224887   0.731   3.611  12.843 -1.2904 -0.6824 -0.2713
 1158TIP3   OH224888   4.807   1.495  16.895  0.0056 -0.4022 -0.4261
 1158TIP3    H124889   4.871   1.564  16.910 -0.6551  0.1468 -0.0491
 1158TIP3    H224890   4.834   1.454  16.813  1.1902 -0.5980  0.0362
 1159TIP3   OH224891   6.016   2.589   3.284  0.3501 -0.0751  0.4938
 1159TIP3    H124892   5.973   2.505   3.298  0.9948 -0.5969 -0.5153
 1159TIP3    H224893   6.097   2.583   3.335  0.3735 -0.0502  0.4597
 1160TIP3   OH224894   0.010   4.348   0.817 -0.3358  0.0741 -0.7335
 1160TIP3    H124895   0.052   4.433   0.831 -0.7425  0.3794 -1.3235
 1160TIP3    H224896  -0.040   4.332   0.897  0.0690  0.1923 -0.4545
 1161TIP3   OH224897   0.988   6.434  16.950  0.2343 -0.2521  0.4208
 1161TIP3    H124898   0.919   6.447  16.885  0.3814  0.8585  0.4689
 1161TIP3    H224899   0.952   6.367  17.010 -0.7266  0.1727  0.3400
 1162TIP3   OH224900   3.341   0.221   3.516 -0.2608 -0.1327 -0.0797
 1162TIP3    H124901   3.280   0.164   3.469 -0.2134 -0.7389  0.5922
 1162TIP3    H224902   3.428   0.184   3.497 -0.2288 -0.2727  0.3365
 1163TIP3   OH224903   3.692   4.122   1.393  0.0139 -0.2314  0.8007
 1163TIP3    H124904   3.694   4.182   1.468  0.9553 -0.1926  0.7554
 1163TIP3    H224905   3.766   4.063   1.409  0.2803 -0.1618 -0.1472
 1164TIP3   OH224906   3.391   6.419  15.053 -0.0689  0.1531  0.1150
 1164TIP3    H124907   3.304   6.460  15.060  1.2108  3.1575 -0.0901
 1164TIP3    H224908   3.444   6.483  15.005  2.5026 -1.2034  0.9642
 1165TIP3   OH224909   1.662   0.216  16.797 -0.8443 -1.0240  0.3037
 1165TIP3    H124910   1.723   0.158  16.843  0.1269 -0.3868 -0.1341
 1165TIP3    H224911   1.716   0.259  16.731 -1.7427 -0.3014  0.0181
 1166TIP3   OH224912   4.815   5.867  11.207  0.0567 -0.2633  0.7621
 1166TIP3    H124913   4.803   5.772  11.216  0.9220 -0.5319 -0.6829
 1166TIP3    H224914   4.764   5.891  11.130  1.4217  0.0867 -0.0583
 1167TIP3   OH224915   0.575   2.641   5.200 -0.3099  0.8740  0.1469
 1167TIP3    H124916   0.547   2.730   5.177 -0.2625  1.0477  0.7459
 1167TIP3    H224917   0.634   2.615   5.129  0.0526  1.5031  0.2107
 1168TIP3   OH224918   1.011   5.711  13.586  0.4179 -0.1046 -0.2679
 1168TIP3    H124919   1.039   5.644  13.522  2.3330 -0.3625  0.7651
 1168TIP3    H224920   1.013   5.666  13.670  1.8649  1.2475  0.4712
 1169TIP3   OH224921   4.605   0.432   6.241 -0.1347  0.1969 -0.5220
 1169TIP3    H124922   4.630   0.367   6.307  1.1108  1.8891  0.7693
 1169TIP3    H224923   4.689   0.466   6.209 -0.7552  1.0924 -1.2452
 1170TIP3   OH224924   6.145   3.727   2.081 -0.0886  0.3541 -0.2936
 1170TIP3    H124925   6.145   3.725   2.177 -0.0339  0.3867 -0.2929
 1170TIP3    H224926   6.233   3.758   2.058  0.0194  0.0142 -0.3583
 1171TIP3   OH224927   1.438   1.698   3.901  0.0038  0.2609 -0.4125
 1171TIP3    H124928   1.391   1.742   3.830 -2.9303 -1.8661  0.0144
 1171TIP3    H224929   1.433   1.759   3.975 -1.9753  0.2327 -0.4651
 1172TIP3   OH224930   4.122   5.078  11.807  0.0249  0.0186 -0.1676
 1172TIP3    H124931   4.063   5.003  11.814  0.6291 -0.4945 -0.4561
 1172TIP3    H224932   4.064   5.152  11.790 -0.5527 -0.4351 -0.2325
 1173TIP3   OH224933   5.160   3.342   3.316  0.0291 -0.0273  0.4687
 1173TIP3    H124934   5.203   3.427   3.310  0.7420 -0.4166  0.0449
 1173TIP3    H224935   5.218   3.289   3.371  0.0062 -0.5003  0.0416
 1174TIP3   OH224936   5.306   6.320  15.356 -0.3826  0.3168  0.2109
 1174TIP3    H124937   5.345   6.404  15.333  0.2790  0.4158  1.5536
 1174TIP3    H224938   5.347   6.257  15.298  0.9898  0.5873  0.8429
 1175TIP3   OH224939   0.274   3.288   4.250 -0.8308  0.0229 -0.3291
 1175TIP3    H124940   0.254   3.194   4.258 -1.4231  0.0314 -1.4438
 1175TIP3    H224941   0.199   3.324   4.204 -1.2731  1.3377  1.3350
 1176TIP3   OH224942   1.739   3.865  13.023  0.3616 -0.4195 -0.6485
 1176TIP3    H124943   1.661   3.865  13.079  1.0059 -0.2409  0.2740
 1176TIP3    H224944   1.805   3.818  13.073  0.8767 -0.5053 -1.3894
 1177TIP3   OH224945   0.897   2.716  12.333  0.0485  0.4092  0.5632
 1177TIP3    H124946   0.950   2.673  12.401 -0.7038 -0.5247  0.5694
 1177TIP3    H224947   0.811   2.675  12.340 -0.2102  0.7400 -0.5664
 1178TIP3   OH224948   3.405   5.844   5.259 -0.0689  0.0723 -0.1313
 1178TIP3    H124949   3.449   5.778   5.206 -0.3245 -0.9638  0.9018
 1178TIP3    H224950   3.312   5.835   5.236 -0.3099 -1.0754  1.1796
 1179TIP3   OH224951   1.456   4.869   0.650  0.6549 -0.3638 -0.0062
 1179TIP3    H124952   1.390   4.912   0.705 -1.9157 -2.3445 -1.2730
 1179TIP3    H224953   1.465   4.781   0.689  0.1849 -1.1543 -1.5961
 1180TIP3   OH224954   0.978   6.263  17.148 -0.2375 -0.0101  0.2075
 1180TIP3    H124955   1.040   6.321  17.193 -0.9117  1.1192 -0.2703
 1180TIP3    H224956   0.955   6.198  17.214  1.9888 -0.9168  0.1707
 1181TIP3   OH224957   3.342   2.079   4.075  0.1881 -0.1217 -0.0667
 1181TIP3    H124958   3.420   2.100   4.128  0.6239  0.0841 -0.7768
 1181TIP3    H224959   3.355   2.127   3.994 -0.8366  0.1503 -0.0765
 1182TIP3   OH224960   3.287   4.436  16.131 -0.1365  0.3304 -0.2236
 1182TIP3    H124961   3.191   4.439  16.129 -0.1389  1.0419  0.2638
 1182TIP3    H224962   3.308   4.437  16.225  0.3257 -1.4397 -0.2742
 1183TIP3   OH224963   0.749   1.841   3.028 -0.2823 -0.0725 -0.3612
 1183TIP3    H124964   0.716   1.752   3.021 -2.2641  0.5219  0.6988
 1183TIP3    H224965   0.792   1.857   2.944 -3.8278 -0.5281 -2.4778
 1184TIP3   OH224966   0.318   5.986  16.048  0.0441 -0.3502 -0.2582
 1184TIP3    H124967   0.296   5.897  16.076  0.3742 -0.1120  0.8306
 1184TIP3    H224968   0.407   5.999  16.082  0.4287  0.0139 -1.3589
 1185TIP3   OH224969   0.276   2.674  12.591  0.5059 -0.4281 -0.5269
 1185TIP3    H124970   0.362   2.642  12.619  1.1634  0.6058 -1.2879
 1185TIP3    H224971   0.276   2.767  12.616  1.2019  0.6207 -3.9401
 1186TIP3   OH224972   0.349   0.074   2.507 -0.7498 -0.6605  0.0305
 1186TIP3    H124973   0.351   0.022   2.427 -1.2865 -0.7401  0.0682
 1186TIP3    H224974   0.438   0.067   2.542 -0.6597 -1.0620 -0.2741
 1187TIP3   OH224975   0.601   2.140  12.209  0.0337 -0.6641  0.1278
 1187TIP3    H124976   0.581   2.048  12.224 -0.7074 -0.7217 -1.1073
 1187TIP3    H224977   0.581   2.182  12.293  0.3201 -1.6098  0.6809
 1188TIP3   OH224978   3.046   3.364   4.738  0.1910 -0.0120 -0.4990
 1188TIP3    H124979   3.023   3.321   4.820  0.2321  1.4712  0.3222
 1188TIP3    H224980   3.073   3.452   4.763  1.0311  0.2117 -2.0288
 1189TIP3   OH224981   0.374   2.170  11.513  0.2223  0.1486 -0.0164
 1189TIP3    H124982   0.359   2.189  11.606 -0.3634  1.5005 -0.3559
 1189TIP3    H224983   0.466   2.144  11.509  0.3565  0.4091  0.8974
 1190TIP3   OH224984   1.547   0.586  15.321 -0.3337 -0.3533 -0.0338
 1190TIP3    H124985   1.491   0.520  15.280  0.3986 -0.4839 -0.8555
 1190TIP3    H224986   1.518   0.588  15.412 -1.0656 -1.0630 -0.2335
 1191TIP3   OH224987   6.630   2.571   3.407 -0.2000 -0.0826  0.2300
 1191TIP3    H124988   6.546   2.564   3.363  0.6531  0.8834 -1.6633
 1191TIP3    H224989   6.690   2.519   3.355  0.8918  1.2757  0.0656
 1192TIP3   OH224990   6.495   0.078  16.579 -0.1819  0.4356  0.1440
 1192TIP3    H124991   6.527   0.007  16.636  1.8705 -0.2780 -1.7533
 1192TIP3    H224992   6.406   0.052  16.556  0.1088 -0.9214  0.4521
 1193TIP3   OH224993   2.740   1.923   0.760 -0.1500 -0.3195 -0.0715
 1193TIP3    H124994   2.670   1.872   0.719 -1.2173 -0.0710  1.3471
 1193TIP3    H224995   2.736   1.900   0.852  0.5129  0.9919  0.3148
 1194TIP3   OH224996   3.763   5.122  17.004 -0.3721  0.5588  0.2203
 1194TIP3    H124997   3.771   5.179  16.928  0.1706 -0.9938 -0.9384
 1194TIP3    H224998   3.721   5.043  16.971  2.6707 -1.4481  0.7459
 1195TIP3   OH224999   2.315   1.347   1.852 -0.9002  0.6996 -1.2503
 1195TIP3    H125000   2.304   1.437   1.883  0.2446  0.0051  1.4993
 1195TIP3    H225001   2.408   1.340   1.832 -0.3331 -0.5166  1.3009
 1196TIP3   OH225002   0.001   2.147   4.220  0.2822 -0.0461 -0.0887
 1196TIP3    H125003  -0.021   2.187   4.304 -3.8076  0.8956 -1.3897
 1196TIP3    H225004  -0.080   2.105   4.192  1.3107  0.1779 -3.8431
 1197TIP3   OH225005   5.839   5.421  13.427 -0.2057  0.3974  0.3590
 1197TIP3    H125006   5.862   5.503  13.383  1.0818 -0.6409 -0.9951
 1197TIP3    H225007   5.881   5.427  13.513  0.6309  0.7986 -0.0676
 1198TIP3   OH225008   1.409   3.166   5.024  0.6848 -0.5525  0.2828
 1198TIP3    H125009   1.394   3.183   4.931  1.2190 -0.5734  0.1916
 1198TIP3    H225010   1.349   3.094   5.045 -0.2491  0.2002  0.2314
 1199TIP3   OH225011   3.292   4.173  15.503 -0.5808  0.4739  0.2503
 1199TIP3    H125012   3.374   4.221  15.511 -0.2799  0.2791 -1.3661
 1199TIP3    H225013   3.229   4.238  15.471 -0.2394 -0.0856 -1.6744
 1200TIP3   OH225014   3.975   1.129  16.101 -0.4851  0.1826  0.1866
 1200TIP3    H125015   4.065   1.123  16.132 -0.5520 -1.2450  0.1812
 1200TIP3    H225016   3.979   1.188  16.026  0.6434 -0.6658 -0.4502
 1201TIP3   OH225017   3.900   3.755  12.249 -0.2444 -0.3161 -0.2298
 1201TIP3    H125018   3.913   3.784  12.339 -0.0001 -1.3889  0.0968
 1201TIP3    H225019   3.987   3.761  12.209  0.6934 -3.9343  0.8865
 1202TIP3   OH225020   0.091   1.499  10.937 -0.2382 -0.4053 -0.3818
 1202TIP3    H125021   0.008   1.484  10.981  0.3847 -1.8506  0.3950
 1202TIP3    H225022   0.069   1.547  10.858 -1.4406  1.8923  1.2617
 1203TIP3   OH225023   0.355   6.192   2.794 -0.0891  0.9037  0.4060
 1203TIP3    H125024   0.447   6.209   2.772 -0.2629  0.6357 -0.5678
 1203TIP3    H225025   0.311   6.276   2.779 -0.1731  0.7714 -0.1201
 1204TIP3   OH225026   0.540   0.424  13.830  0.8163  0.0161  0.3939
 1204TIP3    H125027   0.462   0.374  13.807  0.5389  0.0461  1.2454
 1204TIP3    H225028   0.611   0.361  13.828  0.8987  0.1259 -1.0643
 1205TIP3   OH225029   0.242   2.625   4.496  0.1564  0.0113  0.0444
 1205TIP3    H125030   0.170   2.688   4.496  0.3884  0.3047 -1.0606
 1205TIP3    H225031   0.210   2.552   4.549 -1.1240 -0.0395 -0.7431
 1206TIP3   OH225032   5.140   1.481  16.001  0.1752  0.2754  0.1634
 1206TIP3    H125033   5.091   1.400  16.011 -0.5636  0.7644  0.6095
 1206TIP3    H225034   5.229   1.453  15.979  0.1757 -0.6778  1.2853
 1207TIP3   OH225035   3.161   0.148   1.177  0.1259 -0.3568  0.1292
 1207TIP3    H125036   3.204   0.182   1.256  0.5531  1.5890 -0.8694
 1207TIP3    H225037   3.233   0.132   1.116 -0.2979 -0.5116 -0.3330
 1208TIP3   OH225038   2.202   2.758   4.843 -1.0801  0.2005 -0.1891
 1208TIP3    H125039   2.246   2.735   4.925 -2.0382  1.4315  0.7091
 1208TIP3    H225040   2.272   2.754   4.777 -0.6560 -2.6488  0.2797
 1209TIP3   OH225041   6.455   3.811   5.585 -0.3788 -0.2893 -0.2007
 1209TIP3    H125042   6.549   3.814   5.565 -0.3229  1.0270  0.1208
 1209TIP3    H225043   6.415   3.775   5.506  0.4048 -0.9516 -0.3112
 1210TIP3   OH225044   5.083   3.679  15.962  0.2119 -0.3389 -0.2872
 1210TIP3    H125045   5.018   3.743  15.991 -0.3760 -0.5988 -1.0014
 1210TIP3    H225046   5.070   3.604  16.020  0.4230 -0.0815  0.0939
 1211TIP3   OH225047   4.993   2.766  15.447 -0.4708 -0.2510 -0.2468
 1211TIP3    H125048   4.960   2.844  15.491 -0.9336 -0.2932 -0.5179
 1211TIP3    H225049   5.089   2.776  15.449 -0.5461  1.2701 -1.9524
 1212TIP3   OH225050   2.285   6.677  14.330  0.0227 -0.1068 -0.2105
 1212TIP3    H125051   2.345   6.613  14.369 -0.6704 -1.1082 -0.7251
 1212TIP3    H225052   2.207   6.625  14.307 -1.9291  1.4601  2.2497
 1213TIP3   OH225053   5.917   4.137  16.454 -0.7034 -0.3265  0.1662
 1213TIP3    H125054   5.953   4.216  16.494 -1.0812  0.3005 -0.7060
 1213TIP3    H225055   5.993   4.094  16.413 -0.5168 -0.3714  0.5521
 1214TIP3   OH225056   6.748   4.275  17.043 -0.4257  0.5228 -0.3178
 1214TIP3    H125057   6.655   4.272  17.067 -0.0929  2.0945  1.3577
 1214TIP3    H225058   6.754   4.344  16.978 -0.5758 -0.3626 -1.2950
 1215TIP3   OH225059   0.253   4.215   0.916  0.4558 -0.2844  0.0343
 1215TIP3    H125060   0.165   4.235   0.883  1.4595  0.6339 -2.3063
 1215TIP3    H225061   0.270   4.283   0.981  0.3171  1.0008 -1.2292
 1216TIP3   OH225062   0.602   2.496  15.030 -0.3177 -0.2683 -0.4052
 1216TIP3    H125063   0.520   2.495  14.980 -1.3978  2.5855  1.1066
 1216TIP3    H225064   0.574   2.490  15.122  0.9248  2.3921  0.2466
 1217TIP3   OH225065   5.227   4.908   0.088 -0.3850 -0.2987  0.2706
 1217TIP3    H125066   5.187   4.829   0.124  0.4241  0.2000  2.4515
 1217TIP3    H225067   5.187   4.979   0.138  0.3792  0.5140 -0.2552
 1218TIP3   OH225068   6.632   4.352   1.056  0.2320 -0.1004  0.0291
 1218TIP3    H125069   6.539   4.338   1.038  0.7205 -0.7110 -2.3260
 1218TIP3    H225070   6.647   4.305   1.138 -1.4697 -0.1141  0.3907
 1219TIP3   OH225071   2.876   0.202  15.622  0.0245  0.3396 -0.5745
 1219TIP3    H125072   2.896   0.140  15.693  0.7104 -0.9853 -1.8562
 1219TIP3    H225073   2.830   0.274  15.665 -0.5791 -0.9347  1.0357
 1220TIP3   OH225074   2.933   3.639  11.542 -0.0189  0.0903 -0.0971
 1220TIP3    H125075   2.869   3.664  11.475  0.8515 -0.3856 -1.1262
 1220TIP3    H225076   3.018   3.641  11.497  0.3699 -2.3142  0.3866
 1221TIP3   OH225077   1.607   2.623  12.738  0.1672 -0.1240  0.3763
 1221TIP3    H125078   1.541   2.585  12.680  0.8867 -2.0349  0.7444
 1221TIP3    H225079   1.646   2.694  12.686 -0.7482 -0.3231 -0.6188
 1222TIP3   OH225080   4.936   1.870  15.240  0.2310  0.1687 -0.1092
 1222TIP3    H125081   4.892   1.841  15.320  1.5556 -2.2770 -0.1672
 1222TIP3    H225082   4.987   1.946  15.267 -0.4252  0.2245  1.0339
 1223TIP3   OH225083   4.107   2.192  17.250  0.6383  0.3264  0.0447
 1223TIP3    H125084   4.169   2.119  17.253  0.2977 -0.1115 -2.0795
 1223TIP3    H225085   4.161   2.269  17.236  0.8281  0.1472 -0.2267
 1224TIP3   OH225086   2.272   2.843  16.532  0.5587 -0.3772  0.2210
 1224TIP3    H125087   2.195   2.895  16.557  0.5094 -0.1965 -0.2999
 1224TIP3    H225088   2.345   2.884  16.580  0.3701 -0.4052  0.5335
 1225TIP3   OH225089   0.649   4.556   1.785 -0.1664  0.5297 -0.5753
 1225TIP3    H125090   0.662   4.579   1.877 -3.0861  1.5263 -0.3152
 1225TIP3    H225091   0.684   4.467   1.778 -1.2169 -0.1519  1.8948
 1226TIP3   OH225092   6.359   4.420  14.146  0.0618 -0.4169 -0.6643
 1226TIP3    H125093   6.313   4.487  14.095 -0.9958  0.5836  1.4756
 1226TIP3    H225094   6.290   4.377  14.196  1.3011  0.7498  2.2378
 1227TIP3   OH225095   5.505   3.618  14.570 -0.3714 -0.1608 -0.2499
 1227TIP3    H125096   5.438   3.680  14.597  0.6377  0.5492  0.7200
 1227TIP3    H225097   5.457   3.538  14.548 -1.5869  0.5873 -0.3770
 1228TIP3   OH225098   0.353   5.563  14.675  0.0235  0.3197  0.2721
 1228TIP3    H125099   0.448   5.559  14.680 -0.0817 -0.6423  3.1544
 1228TIP3    H225100   0.324   5.472  14.683 -1.1577  0.7912  1.7207
 1229TIP3   OH225101   6.392   5.882   3.293  0.1527  0.1362 -0.3177
 1229TIP3    H125102   6.401   5.968   3.333  1.4874  0.1622 -0.6311
 1229TIP3    H225103   6.307   5.885   3.248  0.2796  1.3574 -0.5021
 1230TIP3   OH225104   2.197   1.194  15.431  0.0527 -0.2559  0.4682
 1230TIP3    H125105   2.258   1.242  15.488  1.7191  0.7068 -1.9446
 1230TIP3    H225106   2.252   1.130  15.386 -1.8752 -3.6256  2.5055
 1231TIP3   OH225107   0.268   3.552   3.739  0.3929 -0.2480 -0.1736
 1231TIP3    H125108   0.238   3.561   3.649 -0.0984 -1.9864 -0.2159
 1231TIP3    H225109   0.268   3.458   3.755  0.5197  0.0281  1.6346
 1232TIP3   OH225110   1.497   3.468   0.206  0.0602  0.4182 -0.6121
 1232TIP3    H125111   1.467   3.477   0.297 -0.3741 -0.4519 -0.6547
 1232TIP3    H225112   1.537   3.552   0.185 -2.3510  1.6928 -0.5272
 1233TIP3   OH225113   2.760   1.594   0.467  0.3277 -0.4009 -0.3224
 1233TIP3    H125114   2.694   1.641   0.518 -0.1596 -0.4564 -0.8929
 1233TIP3    H225115   2.816   1.663   0.431  0.4895 -0.3449  0.0307
 1234TIP3   OH225116   2.830   0.526  16.540 -0.1994 -0.4683 -0.2641
 1234TIP3    H125117   2.918   0.551  16.570  0.6581 -2.4503 -0.9763
 1234TIP3    H225118   2.780   0.513  16.621  0.2851  0.1801  0.1528
 1235TIP3   OH225119   2.170   0.139   2.131  0.4874  0.0247  0.2597
 1235TIP3    H125120   2.157   0.145   2.036  0.2195 -0.4836  0.2599
 1235TIP3    H225121   2.203   0.225   2.157 -0.4130  0.4968 -0.1435
 1236TIP3   OH225122   1.487   0.085  12.690  0.2263  0.2547 -0.0130
 1236TIP3    H125123   1.402   0.129  12.699  0.1868  0.8299 -2.4436
 1236TIP3    H225124   1.466  -0.008  12.689  0.1609  0.0994  3.7784
 1237TIP3   OH225125   3.297   2.485  13.562 -0.2859 -0.0964 -0.7786
 1237TIP3    H125126   3.206   2.506  13.580  0.2789  1.4299  0.5692
 1237TIP3    H225127   3.305   2.392  13.583 -0.8848  0.4172  2.0707
 1238TIP3   OH225128   1.895   2.246   0.420 -0.0785 -0.6394 -0.4926
 1238TIP3    H125129   1.953   2.313   0.455  2.0007 -1.4748 -2.0981
 1238TIP3    H225130   1.826   2.294   0.375  0.9624  0.4577 -0.9794
 1239TIP3   OH225131   4.702   1.568   1.958 -0.0602  0.2106  0.2425
 1239TIP3    H125132   4.775   1.630   1.964  0.8773 -0.4674 -2.4721
 1239TIP3    H225133   4.716   1.524   1.874 -2.4089 -1.5067  0.6693
 1240TIP3   OH225134   2.060   3.884  13.631  0.6581 -0.2478  0.1945
 1240TIP3    H125135   2.095   3.895  13.720 -0.1115  0.0223  0.4681
 1240TIP3    H225136   2.036   3.972  13.603  1.8832 -0.1677 -0.7116
 1241TIP3   OH225137   4.750   2.101  14.077  0.2371  0.0758  0.9738
 1241TIP3    H125138   4.772   2.122  14.168  1.5094 -0.7362  0.8687
 1241TIP3    H225139   4.767   2.008  14.069 -1.7474 -0.2854  0.4101
 1242TIP3   OH225140   4.090   4.004   3.832  0.3070 -0.1231  0.1257
 1242TIP3    H125141   4.060   4.068   3.767  3.0057 -1.4985 -2.7554
 1242TIP3    H225142   4.127   4.057   3.903 -1.7235  1.4459  0.1019
 1243TIP3   OH225143   3.662   6.310  15.512 -0.1625 -0.2069  0.3071
 1243TIP3    H125144   3.727   6.360  15.463  1.7961 -2.4877  0.3707
 1243TIP3    H225145   3.712   6.267  15.581 -1.9664 -1.1280  1.1239
 1244TIP3   OH225146   6.555   5.492  15.324  0.5146 -0.1102 -0.8328
 1244TIP3    H125147   6.493   5.504  15.396  1.0907 -0.7927 -0.2212
 1244TIP3    H225148   6.619   5.562  15.335  0.0785  0.3711 -1.2541
 1245TIP3   OH225149   5.157   2.509   6.217  0.2668 -0.4831 -0.2711
 1245TIP3    H125150   5.122   2.533   6.303  0.7570 -0.6180 -0.0303
 1245TIP3    H225151   5.251   2.523   6.224  0.1729  0.9294 -1.2616
 1246TIP3   OH225152   1.638   3.724  15.307  0.3427  0.1940  0.2076
 1246TIP3    H125153   1.704   3.665  15.343  2.8102  3.1547  0.8485
 1246TIP3    H225154   1.663   3.735  15.216  0.7696  1.2974  0.4430
 1247TIP3   OH225155   5.720   4.851   4.319 -0.3412 -0.3339  0.3313
 1247TIP3    H125156   5.659   4.826   4.388  0.2865 -3.1592 -0.0438
 1247TIP3    H225157   5.783   4.908   4.363 -2.0454  1.0197  1.1605
 1248TIP3   OH225158   0.999   1.426  11.095  0.1666 -0.2052 -0.1009
 1248TIP3    H125159   1.030   1.485  11.026  0.6026 -0.3148  0.0037
 1248TIP3    H225160   1.066   1.359  11.102  1.4040  1.1501  2.1530
 1249TIP3   OH225161   0.291   2.085  11.986 -0.2597  0.2415  0.0954
 1249TIP3    H125162   0.342   2.016  11.942 -1.7919  0.2972 -1.8978
 1249TIP3    H225163   0.222   2.037  12.033 -0.0622  0.3244  0.4772
 1250TIP3   OH225164   2.436   6.138   0.198  0.2783 -0.8055  0.2014
 1250TIP3    H125165   2.426   6.137   0.293 -0.5897 -1.4223  0.1115
 1250TIP3    H225166   2.530   6.151   0.184  0.2256  0.8537  1.1205
 1251TIP3   OH225167   6.222   4.314  12.526 -0.4822  0.0436  0.5251
 1251TIP3    H125168   6.184   4.397  12.556 -1.9980  0.4714 -2.2973
 1251TIP3    H225169   6.162   4.282  12.459  0.8927 -2.5748  0.4104
 1252TIP3   OH225170   6.529   4.663   5.714  0.0677 -0.2055 -0.3408
 1252TIP3    H125171   6.533   4.753   5.682  0.0225  0.2379  0.8293
 1252TIP3    H225172   6.441   4.655   5.751  0.8980  0.1721  1.9446
 1253TIP3   OH225173   0.603   1.791   0.151 -0.6177 -0.4520 -0.0481
 1253TIP3    H125174   0.513   1.809   0.178 -0.4901 -0.6899  0.5413
 1253TIP3    H225175   0.657   1.848   0.205 -0.3860 -0.6088 -0.1127
 1254TIP3   OH225176   2.094   5.112   4.565  0.0533  0.6343  0.4724
 1254TIP3    H125177   2.060   5.097   4.477  1.1318 -1.2857  0.3249
 1254TIP3    H225178   2.018   5.141   4.616 -0.7424  1.0295 -0.8888
 1255TIP3   OH225179   5.591   3.046  17.094  0.6362  0.2280 -0.1915
 1255TIP3    H125180   5.507   3.034  17.049 -0.3790 -0.0442  1.6515
 1255TIP3    H225181   5.604   3.141  17.096  0.6469  0.2446 -0.9542
 1256TIP3   OH225182   4.709   3.483   1.593 -0.1151  0.0187  0.5969
 1256TIP3    H125183   4.780   3.543   1.614 -0.4177 -0.5794  3.7314
 1256TIP3    H225184   4.723   3.462   1.501  1.6704  2.6085  0.1577
 1257TIP3   OH225185   0.341   0.302  12.038  0.1724 -0.1805 -0.3595
 1257TIP3    H125186   0.352   0.351  11.956 -1.6318 -0.1242 -0.6119
 1257TIP3    H225187   0.357   0.367  12.107 -1.0762  0.5168 -0.6929
 1258TIP3   OH225188   3.849   1.343   0.581 -0.0789  0.1336  0.7454
 1258TIP3    H125189   3.837   1.368   0.490 -0.7734 -0.7565  0.5857
 1258TIP3    H225190   3.932   1.384   0.606 -0.1241  0.7896 -0.1320
 1259TIP3   OH225191   1.200   6.477  13.450  0.6294 -0.3032  0.0701
 1259TIP3    H125192   1.268   6.540  13.474  0.1145 -0.0308  0.8550
 1259TIP3    H225193   1.220   6.453  13.360  1.6676 -0.1023  0.2437
 1260TIP3   OH225194   0.235   0.428  16.618 -0.3406  0.5621  0.1748
 1260TIP3    H125195   0.265   0.482  16.545 -1.4517 -0.5857 -1.1826
 1260TIP3    H225196   0.195   0.489  16.679  0.2631  1.4961 -0.3466
 1261TIP3   OH225197   2.948   3.791   5.085 -0.3354  0.6889  0.0596
 1261TIP3    H125198   2.988   3.848   5.019 -1.4476  2.8469  1.1544
 1261TIP3    H225199   2.983   3.822   5.168 -1.7908  0.5031  0.7687
 1262TIP3   OH225200   3.864   1.755   0.023 -1.1757 -0.0291  0.1800
 1262TIP3    H125201   3.898   1.665   0.017  0.1705  0.5293 -1.4324
 1262TIP3    H225202   3.912   1.794   0.095 -0.6349 -0.1537 -0.1110
 1263TIP3   OH225203   1.670   1.846   2.974 -1.2490 -0.0891 -0.2334
 1263TIP3    H125204   1.750   1.803   2.944 -0.8483  0.1359  0.5000
 1263TIP3    H225205   1.679   1.852   3.069 -2.0938  0.0330 -0.1467
 1264TIP3   OH225206   2.720   5.342  12.502 -0.1668 -0.0559  0.3560
 1264TIP3    H125207   2.653   5.365  12.437 -0.5411 -0.2025  0.6888
 1264TIP3    H225208   2.799   5.389  12.473 -0.1472 -0.6502 -0.5886
 1265TIP3   OH225209   0.020   4.796   4.908 -0.4842  0.3071 -0.7765
 1265TIP3    H125210   0.108   4.833   4.907 -0.1988 -0.3242 -0.0015
 1265TIP3    H225211  -0.035   4.865   4.871  0.3909  0.5397 -1.6862
 1266TIP3   OH225212   3.448   3.308  10.932  0.2495  0.5631  0.4320
 1266TIP3    H125213   3.510   3.285  11.001 -1.6376 -0.9322  1.7163
 1266TIP3    H225214   3.398   3.228  10.918 -0.1207  1.1494 -1.9689
 1267TIP3   OH225215   0.588   1.661   0.518 -0.3085 -0.1693 -0.3437
 1267TIP3    H125216   0.608   1.749   0.549  1.7702 -0.9701  0.8193
 1267TIP3    H225217   0.625   1.657   0.430 -1.5206  0.4522 -0.9178
 1268TIP3   OH225218   4.208   4.258  15.429 -0.1421  0.2981 -0.7567
 1268TIP3    H125219   4.132   4.315  15.434  0.8307  1.6412 -0.7761
 1268TIP3    H225220   4.251   4.268  15.514  1.0641  1.0959 -1.4327
 1269TIP3   OH225221   0.265   5.748   2.374  0.8267  0.5057  1.1247
 1269TIP3    H125222   0.287   5.823   2.319  2.2942 -0.6782  0.0154
 1269TIP3    H225223   0.347   5.725   2.417  0.4685 -0.6622  1.2068
 1270TIP3   OH225224   4.543   1.405   5.676  0.3655  0.1317  0.2464
 1270TIP3    H125225   4.630   1.380   5.647  0.0515  1.1144 -1.7289
 1270TIP3    H225226   4.558   1.480   5.734  1.0263 -2.0846  3.1870
 1271TIP3   OH225227   6.251   3.381   2.484 -0.1121 -0.0070  0.1102
 1271TIP3    H125228   6.308   3.324   2.535  0.3503  0.3611  0.0144
 1271TIP3    H225229   6.182   3.406   2.545  1.7035  2.3625  1.3796
 1272TIP3   OH225230   1.355   4.002  16.084  0.3510  0.2125 -0.4148
 1272TIP3    H125231   1.377   4.040  16.169  0.4601 -0.5661 -0.0904
 1272TIP3    H225232   1.431   4.023  16.028  0.7686 -0.2141 -0.0171
 1273TIP3   OH225233   1.132   2.722   5.199 -0.1661 -0.5007 -0.1616
 1273TIP3    H125234   1.110   2.633   5.171  0.1749 -1.1386  1.5023
 1273TIP3    H225235   1.086   2.733   5.282  0.8883  0.3810  0.3210
 1274TIP3   OH225236   3.132   6.465  15.120 -0.2156  0.0372  0.0983
 1274TIP3    H125237   3.112   6.371  15.115  1.3305 -0.2805 -1.0408
 1274TIP3    H225238   3.054   6.508  15.086 -0.8868 -0.8332  0.4825
 1275TIP3   OH225239   2.498   6.002  13.433 -0.0494 -0.1830 -0.0873
 1275TIP3    H125240   2.455   6.067  13.489 -2.7190 -1.5737 -0.3842
 1275TIP3    H225241   2.586   5.994  13.470 -1.3827 -0.3816  3.4071
 1276TIP3   OH225242   3.415   1.646  14.918 -0.0272  0.3754 -1.1011
 1276TIP3    H125243   3.494   1.602  14.949  1.0607  1.6906 -1.9058
 1276TIP3    H225244   3.349   1.577  14.916  1.8609 -1.5367 -3.4421
 1277TIP3   OH225245   2.198   6.288   4.644 -0.0951 -0.2323 -0.4734
 1277TIP3    H125246   2.227   6.329   4.725  0.1483  0.6911 -1.0121
 1277TIP3    H225247   2.188   6.196   4.666  1.0840 -0.1916  0.3122
 1278TIP3   OH225248   1.015   2.643  13.806  0.1203 -0.1548  0.1583
 1278TIP3    H125249   1.007   2.683  13.720  1.7252 -0.9296 -0.4023
 1278TIP3    H225250   1.023   2.549  13.788 -1.6046 -0.5722  1.3083
 1279TIP3   OH225251   4.744   2.234  11.500  0.1422  0.2272  0.1459
 1279TIP3    H125252   4.742   2.151  11.453 -0.7958 -0.5193  1.4314
 1279TIP3    H225253   4.660   2.275  11.481  0.1663  0.3826  0.3651
 1280TIP3   OH225254   4.507   2.619   5.400 -0.6338  0.5420 -0.3575
 1280TIP3    H125255   4.456   2.542   5.423  1.0141 -0.8866 -1.2466
 1280TIP3    H225256   4.541   2.651   5.483  0.4514 -1.0453 -0.1429
 1281TIP3   OH225257   2.590   2.455   5.407  0.3880  0.1554 -0.3098
 1281TIP3    H125258   2.655   2.452   5.477 -1.3297  0.3734  1.3900
 1281TIP3    H225259   2.582   2.548   5.386 -0.5210  0.3173  0.6653
 1282TIP3   OH225260   4.772   6.075  13.677  0.2590  0.1322 -0.0047
 1282TIP3    H125261   4.865   6.079  13.696  0.3616  2.3396 -0.7099
 1282TIP3    H225262   4.763   6.117  13.591 -1.5513  1.6899  0.8628
 1283TIP3   OH225263   1.500   4.145  13.802 -0.0942  0.6058 -0.0551
 1283TIP3    H125264   1.556   4.142  13.880  1.9775 -0.5356 -1.5112
 1283TIP3    H225265   1.551   4.193  13.737 -1.5997  1.1514 -0.8876
 1284TIP3   OH225266   5.476   3.841   6.133 -0.0833 -0.6557  0.1603
 1284TIP3    H125267   5.413   3.866   6.202  1.3370  0.9730  0.9415
 1284TIP3    H225268   5.446   3.889   6.056 -1.1213 -1.7381 -0.1513
 1285TIP3   OH225269   5.265   1.446  13.954  0.1402 -0.5193 -0.1063
 1285TIP3    H125270   5.273   1.364  13.906  2.0238 -0.1376 -0.5102
 1285TIP3    H225271   5.171   1.467  13.951  0.2202  0.1252 -4.6773
 1286TIP3   OH225272   4.514   1.745  12.177  0.5529 -0.3611 -0.2239
 1286TIP3    H125273   4.511   1.807  12.105 -0.5136  0.2352  0.3004
 1286TIP3    H225274   4.537   1.662  12.137  1.6783  0.3030 -0.9862
 1287TIP3   OH225275   5.148   2.146  14.118 -0.4881  0.1734  0.3803
 1287TIP3    H125276   5.194   2.195  14.185  0.6223 -0.9581  0.4818
 1287TIP3    H225277   5.097   2.081  14.166  0.4560 -0.7646  0.1458
 1288TIP3   OH225278   5.602   2.768  15.919 -0.4375  0.0019  0.0752
 1288TIP3    H125279   5.581   2.840  15.861  0.4591  1.2451  1.2140
 1288TIP3    H225280   5.673   2.802  15.974 -0.0779 -1.7076  0.7305
 1289TIP3   OH225281   0.580   0.174   6.101 -0.2065  0.3886 -0.4261
 1289TIP3    H125282   0.533   0.221   6.170  0.9501  0.1257  0.5872
 1289TIP3    H225283   0.666   0.216   6.099  0.3429 -0.7232 -0.5128
 1290TIP3   OH225284   5.819   0.945   5.917 -0.1892 -0.0051 -0.2233
 1290TIP3    H125285   5.901   0.901   5.895 -1.3380 -2.3881 -0.0669
 1290TIP3    H225286   5.846   1.025   5.961  2.0520 -0.1741 -1.1712
 1291TIP3   OH225287   5.055   6.609   0.362  0.3764 -0.5592 -0.1409
 1291TIP3    H125288   5.065   6.591   0.269  1.9814 -4.4674  0.5908
 1291TIP3    H225289   5.143   6.633   0.392  0.4957 -1.9389  0.7332
 1292TIP3   OH225290   0.895   1.314   2.340 -0.4443  0.0596 -0.3275
 1292TIP3    H125291   0.978   1.271   2.359 -0.2729  1.5827  2.9396
 1292TIP3    H225292   0.919   1.397   2.299 -0.4973 -0.4063 -1.3276
 1293TIP3   OH225293   0.858   0.475   0.279  0.4069 -0.0935 -0.1017
 1293TIP3    H125294   0.799   0.549   0.263  1.1783  0.7332  0.7760
 1293TIP3    H225295   0.800   0.402   0.300 -0.3066  0.9720  1.8414
 1294TIP3   OH225296   0.031   2.756  14.531  0.3502  0.2611  0.1582
 1294TIP3    H125297   0.089   2.700  14.479 -0.5551  0.9064 -1.6120
 1294TIP3    H225298  -0.025   2.694  14.578  0.6735 -0.3377 -0.2317
 1295TIP3   OH225299   0.983   5.915  12.662 -0.2751  0.4524  0.1460
 1295TIP3    H125300   1.076   5.894  12.650 -0.1462  1.7303 -1.2753
 1295TIP3    H225301   0.963   5.881  12.750  2.2708  2.5787  1.7253
 1296TIP3   OH225302   6.150   0.249  16.629  0.7350  0.0866  0.0378
 1296TIP3    H125303   6.072   0.248  16.573 -0.6898 -0.2535  1.9239
 1296TIP3    H225304   6.213   0.194  16.582 -0.4381 -0.3185 -1.1575
 1297TIP3   OH225305   2.137   2.463   1.208  0.3257  0.0742 -0.1409
 1297TIP3    H125306   2.173   2.534   1.260 -0.9072  0.0192  0.8404
 1297TIP3    H225307   2.142   2.494   1.118  0.0874  1.2817  0.2447
 1298TIP3   OH225308   5.421   4.290  11.597 -0.0776 -0.0762 -0.0826
 1298TIP3    H125309   5.336   4.332  11.583 -0.1902  0.4796  2.0012
 1298TIP3    H225310   5.475   4.322  11.525 -0.7853  1.9925  0.2282
 1299TIP3   OH225311   2.755   1.664   0.073  0.3914  0.4034 -0.3205
 1299TIP3    H125312   2.827   1.669   0.010  1.6796  0.2649  1.0842
 1299TIP3    H225313   2.677   1.685   0.022  1.1210 -1.5474 -2.3986
 1300TIP3   OH225314   2.601   4.375  14.745 -0.8511 -0.1524  0.6039
 1300TIP3    H125315   2.684   4.350  14.786 -1.5209 -3.5876  0.2138
 1300TIP3    H225316   2.619   4.458  14.702  2.5358 -0.9901  0.1112
 1301TIP3   OH225317   0.552   5.330  14.738  0.1991  0.2999 -0.0328
 1301TIP3    H125318   0.599   5.375  14.808  1.4065 -1.2770  0.2332
 1301TIP3    H225319   0.481   5.284  14.782  1.6794 -1.6773  0.3993
 1302TIP3   OH225320   1.871   3.687  16.924 -0.7213  0.4233  0.4076
 1302TIP3    H125321   1.789   3.733  16.939 -0.9572  0.9197 -2.0440
 1302TIP3    H225322   1.851   3.595  16.942 -1.8699  0.5133 -0.3518
 1303TIP3   OH225323   4.423   1.694   5.882  0.0679  0.4540 -0.2966
 1303TIP3    H125324   4.374   1.612   5.872 -0.4172  0.8290 -1.1508
 1303TIP3    H225325   4.502   1.681   5.830  0.2584  0.3322  0.0190
 1304TIP3   OH225326   3.009   5.185   3.098  0.3366 -0.6458  0.1282
 1304TIP3    H125327   3.053   5.157   3.018  1.4699  1.3395 -0.0074
 1304TIP3    H225328   3.080   5.198   3.161 -0.6048 -3.3784  1.9553
 1305TIP3   OH225329   5.491   3.399  13.899 -0.5950 -0.5929 -0.3259
 1305TIP3    H125330   5.457   3.479  13.858 -1.8184 -1.4498 -1.0118
 1305TIP3    H225331   5.579   3.424  13.928 -0.4592  0.6308 -1.6725
 1306TIP3   OH225332   3.038   5.170  13.616  0.0274 -0.4029  0.4066
 1306TIP3    H125333   3.071   5.238  13.557  1.1104  0.4258  1.9001
 1306TIP3    H225334   3.108   5.105  13.619 -1.0932 -1.7765 -1.1941
 1307TIP3   OH225335   4.641   3.504   2.013  1.1127  0.2131  0.4587
 1307TIP3    H125336   4.647   3.593   1.977 -0.8178  0.8431  1.5307
 1307TIP3    H225337   4.709   3.500   2.079  1.5391  0.7267  0.0542
 1308TIP3   OH225338   4.766   5.258  14.159 -0.1490  0.0101 -0.3879
 1308TIP3    H125339   4.818   5.207  14.098  0.6530 -0.7586  0.9034
 1308TIP3    H225340   4.829   5.313  14.205 -0.7463  0.6082 -0.2560
 1309TIP3   OH225341   0.007   0.020   6.674  0.0576  0.1551  0.2953
 1309TIP3    H125342   0.050  -0.002   6.591  1.9278 -0.4113  1.3684
 1309TIP3    H225343  -0.042  -0.059   6.697  1.8342 -0.7612  1.1012
 1310TIP3   OH225344   1.263   1.656  16.147 -0.1166  0.4720  0.3226
 1310TIP3    H125345   1.280   1.665  16.241  0.3624 -2.3764  0.5989
 1310TIP3    H225346   1.283   1.564  16.128  2.4578  1.5386 -3.1469
 1311TIP3   OH225347   6.153   1.874  12.106 -0.3463 -0.0638  0.3427
 1311TIP3    H125348   6.072   1.924  12.096 -1.9447 -2.2468  1.5309
 1311TIP3    H225349   6.210   1.930  12.160 -0.7889  1.7425 -0.9954
 1312TIP3   OH225350   6.129   6.757  15.418 -0.5090  0.5435 -0.0294
 1312TIP3    H125351   6.140   6.713  15.334  0.5894 -0.5240  0.6408
 1312TIP3    H225352   6.044   6.728  15.450 -0.4680  0.1200 -0.2953
 1313TIP3   OH225353   1.152   1.733   2.146  0.0720  0.2533 -0.2982
 1313TIP3    H125354   1.202   1.652   2.138 -1.1423 -0.5484  0.1295
 1313TIP3    H225355   1.208   1.799   2.104  0.8686 -0.8741 -1.0662
 1314TIP3   OH225356   3.001   3.119   3.855  0.0929 -0.7030  0.1967
 1314TIP3    H125357   2.906   3.118   3.870 -0.0450  1.2700 -0.2875
 1314TIP3    H225358   3.014   3.055   3.785 -0.8134 -1.3432  0.5954
 1315TIP3   OH225359   3.843   5.562  11.612 -0.4934 -0.5848 -0.5221
 1315TIP3    H125360   3.841   5.473  11.578 -0.9501 -0.6229 -0.3992
 1315TIP3    H225361   3.857   5.617  11.534  1.0278 -0.8291 -0.4582
 1316TIP3   OH225362   0.628   1.198  11.609  0.4623  0.7363  0.1716
 1316TIP3    H125363   0.624   1.105  11.587 -2.5515  0.5340  1.1648
 1316TIP3    H225364   0.722   1.219  11.607  1.0920 -1.7996 -2.0060
 1317TIP3   OH225365   0.065   5.249   1.762 -0.1861  0.0548  0.4811
 1317TIP3    H125366   0.013   5.201   1.827  1.5724 -2.2413  0.3233
 1317TIP3    H225367   0.126   5.301   1.815  0.8874 -1.4072  0.7616
 1318TIP3   OH225368   5.028   3.971  11.975  0.2159 -0.1847  0.2195
 1318TIP3    H125369   4.986   4.049  12.010 -0.5123 -0.5030  0.0752
 1318TIP3    H225370   5.089   3.943  12.043 -1.2404 -0.8414  1.2993
 1319TIP3   OH225371   6.606   6.701  11.511 -0.1849  0.7474 -0.6980
 1319TIP3    H125372   6.561   6.785  11.522 -0.4192  0.5024  0.4215
 1319TIP3    H225373   6.650   6.686  11.595  0.2824 -0.0066 -1.0580
 1320TIP3   OH225374   1.744   0.154   2.160  0.7296 -0.5591 -0.1340
 1320TIP3    H125375   1.695   0.106   2.093 -1.7265  1.3572  0.1595
 1320TIP3    H225376   1.757   0.090   2.230  1.7430 -2.0811 -1.6111
 1321TIP3   OH225377   5.241   0.414   5.964 -0.1972  0.1079  0.5061
 1321TIP3    H125378   5.169   0.378   6.015 -0.6798 -0.4600 -0.5551
 1321TIP3    H225379   5.280   0.339   5.920  0.1675  0.5878 -0.0120
 1322TIP3   OH225380   0.635   5.851  14.034  0.0219 -0.5283  0.5433
 1322TIP3    H125381   0.546   5.829  14.063 -0.5117  0.9066  0.0878
 1322TIP3    H225382   0.634   5.834  13.940 -0.1902  0.7042  0.3076
 1323TIP3   OH225383   0.264   3.662  11.307 -1.3093 -0.1574  0.0956
 1323TIP3    H125384   0.253   3.602  11.381 -0.2394 -0.4294  0.0484
 1323TIP3    H225385   0.232   3.612  11.232 -0.2103 -0.7932  0.0188
 1324TIP3   OH225386   3.106   6.597  15.754  0.0163  0.5163  0.0506
 1324TIP3    H125387   3.109   6.588  15.659  0.1411 -1.1194  0.1789
 1324TIP3    H225388   3.034   6.658  15.770 -1.5467 -0.9292 -1.0325
 1325TIP3   OH225389   2.120   4.379  11.169  0.6710 -0.6666  0.0549
 1325TIP3    H125390   2.066   4.315  11.122 -1.1757 -0.9372  2.3446
 1325TIP3    H225391   2.059   4.449  11.193  1.3908 -0.6962  2.2302
 1326TIP3   OH225392   3.949   5.349  14.530 -0.4142  0.1729  0.5879
 1326TIP3    H125393   3.936   5.401  14.450 -0.8298  0.7194  0.9977
 1326TIP3    H225394   4.024   5.293  14.510  0.7097  1.6362  0.4710
 1327TIP3   OH225395   1.681   1.207   6.490 -0.2115  0.3430 -0.2678
 1327TIP3    H125396   1.747   1.139   6.475 -1.3547 -1.6089  2.6449
 1327TIP3    H225397   1.726   1.274   6.542  0.4222  0.9424 -1.5526
 1328TIP3   OH225398   6.299   5.979   3.796 -0.4212  0.3121 -0.1040
 1328TIP3    H125399   6.363   5.945   3.858 -1.6872  0.6705  1.4574
 1328TIP3    H225400   6.230   5.912   3.794  1.1923 -1.6126 -4.0620
 1329TIP3   OH225401   5.535   2.684   1.864 -0.1424  0.3978  0.7040
 1329TIP3    H125402   5.536   2.754   1.800  1.7672  0.7717  1.0608
 1329TIP3    H225403   5.509   2.726   1.946  0.4638  0.5892  0.8032
 1330TIP3   OH225404   2.483   2.635  15.214 -0.0171  0.4221 -0.0752
 1330TIP3    H125405   2.466   2.729  15.213 -0.3314  0.3632 -0.8386
 1330TIP3    H225406   2.420   2.599  15.276  0.0544  0.7020  0.1610
 1331TIP3   OH225407   5.184   0.944   0.304 -0.5634  0.0219  0.2315
 1331TIP3    H125408   5.157   1.015   0.362 -1.5022  0.4105 -0.6453
 1331TIP3    H225409   5.239   0.888   0.359  0.9289  1.8559  0.7149
 1332TIP3   OH225410   3.280   1.964  12.941 -0.7575  0.2064  0.1289
 1332TIP3    H125411   3.314   1.879  12.970  1.0707  0.5111 -0.9809
 1332TIP3    H225412   3.206   1.981  12.999  0.1509 -1.1479  1.7643
 1333TIP3   OH225413   4.079   2.991  12.546 -0.7073 -0.3462  0.6411
 1333TIP3    H125414   4.144   2.921  12.557  0.8225  0.8882 -0.2907
 1333TIP3    H225415   4.099   3.030  12.461 -1.4590  1.2888  1.1744
 1334TIP3   OH225416   1.378   2.871   3.175  0.3009 -0.0939  0.2049
 1334TIP3    H125417   1.405   2.963   3.168  0.1720 -0.0328  0.5180
 1334TIP3    H225418   1.287   2.875   3.202  0.4409 -0.3164  0.7202
 1335TIP3   OH225419   0.623   3.764  17.299 -0.1659 -0.1482  0.3046
 1335TIP3    H125420   0.693   3.721  17.347 -0.3491  1.6497  2.3325
 1335TIP3    H225421   0.561   3.693  17.278  1.3043 -1.4303  0.1502
 1336TIP3   OH225422   0.045   5.979  14.374  0.5510 -0.0613 -0.2528
 1336TIP3    H125423  -0.014   5.965  14.448  1.8151  3.4289  1.6387
 1336TIP3    H225424  -0.010   6.024  14.309  0.1997 -0.3283 -0.1454
 1337TIP3   OH225425   1.611   3.484   2.851  0.0437  0.0339 -0.1123
 1337TIP3    H125426   1.686   3.522   2.899  0.4351 -0.7735 -0.0735
 1337TIP3    H225427   1.643   3.400   2.819 -1.7145 -1.6899  2.3143
 1338TIP3   OH225428   1.195   1.659   0.633 -0.0779 -0.1166 -0.0220
 1338TIP3    H125429   1.130   1.728   0.644 -1.1999 -1.1140 -0.1395
 1338TIP3    H225430   1.195   1.613   0.717 -0.0559 -0.5483 -0.2556
 1339TIP3   OH225431   0.425   4.904   0.701  0.3511 -0.0590 -0.5831
 1339TIP3    H125432   0.425   4.956   0.781  3.2061 -0.9048  0.0584
 1339TIP3    H225433   0.358   4.837   0.716  0.1196  0.4276  0.6342
 1340TIP3   OH225434   5.693   4.134  14.419 -0.3679 -0.2839  0.4332
 1340TIP3    H125435   5.603   4.120  14.389 -0.2611 -1.6141  0.6542
 1340TIP3    H225436   5.687   4.204  14.483 -0.9601  0.9401 -0.9060
 1341TIP3   OH225437   4.902   5.849   4.993 -0.3315 -0.3602 -0.5844
 1341TIP3    H125438   4.973   5.845   4.929  1.4471  1.9260  1.0617
 1341TIP3    H225439   4.941   5.816   5.074 -1.1903  0.6668  0.2773
 1342TIP3   OH225440   5.940   4.321   5.872  0.1721  0.5759 -0.5299
 1342TIP3    H125441   5.960   4.227   5.873  1.0797  0.7645 -0.1700
 1342TIP3    H225442   5.864   4.330   5.930  1.1945  0.2910  0.8979
 1343TIP3   OH225443   0.835   6.571   4.859 -0.3076  0.4288  0.0700
 1343TIP3    H125444   0.887   6.521   4.796 -1.4752  1.8621 -2.1394
 1343TIP3    H225445   0.803   6.506   4.921  0.8343 -1.0565 -0.8378
 1344TIP3   OH225446   1.305   5.812   1.181  0.3062  0.8512  0.4209
 1344TIP3    H125447   1.251   5.737   1.207  0.3251 -0.0121 -1.8653
 1344TIP3    H225448   1.244   5.886   1.182  0.0883  0.6750  1.8656
 1345TIP3   OH225449   5.860   5.169   5.095 -0.1515  0.2865 -0.3956
 1345TIP3    H125450   5.877   5.095   5.037  0.7226  0.4010 -0.2955
 1345TIP3    H225451   5.770   5.155   5.125 -0.4038 -0.1059 -1.2848
 1346TIP3   OH225452   5.508   0.058  12.671 -0.5435  0.3142 -0.3769
 1346TIP3    H125453   5.590   0.077  12.718 -0.2677 -0.1001 -0.6750
 1346TIP3    H225454   5.439   0.079  12.733 -0.1630 -1.2700  0.6339
 1347TIP3   OH225455   4.709   5.474   2.691  0.2000  0.1723  0.1293
 1347TIP3    H125456   4.638   5.538   2.687  0.8949  0.9697  0.3489
 1347TIP3    H225457   4.684   5.415   2.762  0.7711  1.7372  1.7095
 1348TIP3   OH225458   2.363   4.450   1.993  0.3510 -0.9005  0.4737
 1348TIP3    H125459   2.353   4.365   2.036  1.2200 -1.6043 -0.6678
 1348TIP3    H225460   2.457   4.462   1.983  0.2463  0.2035  0.5913
 1349TIP3   OH225461   1.260   4.926   3.658  0.0924  0.1760 -0.2535
 1349TIP3    H125462   1.184   4.899   3.709 -0.6793 -1.6291 -2.1978
 1349TIP3    H225463   1.277   5.016   3.684 -1.9300  0.1965  1.1505
 1350TIP3   OH225464   5.097   0.438   0.327 -0.1996  0.6827  0.5168
 1350TIP3    H125465   5.111   0.345   0.312 -1.2878  0.8222 -2.1019
 1350TIP3    H225466   5.171   0.481   0.284 -0.3870  1.0453  0.5506
 1351TIP3   OH225467   2.244   0.632  14.820 -0.4474 -0.0718 -0.3217
 1351TIP3    H125468   2.161   0.648  14.776  0.4091  1.2624 -1.5364
 1351TIP3    H225469   2.219   0.600  14.907 -2.2241  0.3685 -0.6340
 1352TIP3   OH225470   1.498   1.158  16.899  0.0844  0.1656  0.0082
 1352TIP3    H125471   1.509   1.251  16.878 -0.2549  0.5771  1.5776
 1352TIP3    H225472   1.587   1.128  16.919 -0.2011  1.2594  3.6816
 1353TIP3   OH225473   5.261   1.280   2.362 -0.2453  0.1520 -0.3216
 1353TIP3    H125474   5.209   1.322   2.431 -0.2311 -0.6400  0.1908
 1353TIP3    H225475   5.275   1.349   2.297 -1.3083  0.5854 -0.1251
 1354TIP3   OH225476   1.496   5.306   1.405 -0.5153 -0.8117 -0.1795
 1354TIP3    H125477   1.507   5.368   1.477  1.3305 -2.2502  0.8894
 1354TIP3    H225478   1.546   5.343   1.333 -0.4927 -0.4447  0.0219
 1355TIP3   OH225479   6.095   0.773   5.966  0.0747  0.8186  0.2701
 1355TIP3    H125480   6.118   0.828   6.042 -0.5971  2.4153 -0.6251
 1355TIP3    H225481   6.131   0.687   5.987  2.4835  1.9325  1.1047
 1356TIP3   OH225482   6.394   4.939   0.781  0.3105 -0.5912  0.7056
 1356TIP3    H125483   6.444   5.015   0.753  0.5147 -1.1246 -0.4107
 1356TIP3    H225484   6.310   4.947   0.736  0.2789 -0.9625  0.6971
 1357TIP3   OH225485   6.049   4.560  13.608 -0.7460 -0.0504  0.1847
 1357TIP3    H125486   6.081   4.511  13.683 -1.1548  0.2963  0.5995
 1357TIP3    H225487   5.957   4.577  13.629 -0.8253  0.1676 -0.3296
 1358TIP3   OH225488   4.882   3.787  12.164  0.0096 -0.3632 -0.0724
 1358TIP3    H125489   4.917   3.785  12.075 -1.5550 -0.4458 -0.7176
 1358TIP3    H225490   4.834   3.870  12.168 -0.2899 -0.5660  0.5427
 1359TIP3   OH225491   5.322   3.408  16.567 -0.1405 -0.3087 -0.0822
 1359TIP3    H125492   5.339   3.313  16.564 -2.0163 -0.6975  0.5054
 1359TIP3    H225493   5.305   3.432  16.476 -0.1835 -0.6296 -0.1594
 1360TIP3   OH225494   0.204   1.453  14.727 -0.2987  0.1887  0.2429
 1360TIP3    H125495   0.110   1.455  14.743 -0.2596  2.5994  0.5622
 1360TIP3    H225496   0.213   1.473  14.634 -0.1049  2.3496  0.6658
 1361TIP3   OH225497   6.268   1.214  13.077 -0.2564  0.6498  0.0230
 1361TIP3    H125498   6.293   1.279  13.142 -1.0836 -0.0435  1.0626
 1361TIP3    H225499   6.234   1.264  13.003  2.7493  1.5776 -0.8844
 1362TIP3   OH225500   2.005   4.412   2.409 -0.1800 -0.3509  0.4648
 1362TIP3    H125501   1.919   4.413   2.451  0.4005  2.1607  1.7711
 1362TIP3    H225502   2.062   4.462   2.468  2.1694 -1.7532 -0.4413
 1363TIP3   OH225503   3.992   5.869   2.784 -0.4344  0.5715  0.3782
 1363TIP3    H125504   3.936   5.942   2.809 -1.1921  0.1805 -0.1269
 1363TIP3    H225505   3.931   5.797   2.764  0.2470  0.0806 -0.0159
 1364TIP3   OH225506   1.133   2.576   0.985 -0.1327  0.4075  0.2227
 1364TIP3    H125507   1.182   2.519   1.044 -1.5329 -0.8467  0.2280
 1364TIP3    H225508   1.083   2.634   1.042  0.8519  1.2841  0.2199
 1365TIP3   OH225509   2.356   2.465   1.577  0.6502  0.5097 -0.2955
 1365TIP3    H125510   2.387   2.433   1.662  0.4898  0.1636 -0.3630
 1365TIP3    H225511   2.373   2.392   1.517  0.9925  0.8479 -0.6127
 1366TIP3   OH225512   4.535   0.356   3.416  0.0690 -0.3612  0.5259
 1366TIP3    H125513   4.612   0.386   3.463 -0.4798 -0.2578  1.3857
 1366TIP3    H225514   4.475   0.430   3.417  1.3044  0.9622 -3.4305
 1367TIP3   OH225515   6.039   5.017   4.913  0.1913  0.1517  0.0216
 1367TIP3    H125516   6.079   4.975   4.990 -1.6415  1.4550  1.7980
 1367TIP3    H225517   6.022   4.945   4.853  0.7931 -1.0680  1.2551
 1368TIP3   OH225518   2.848   0.573   4.344 -0.2444 -0.1969  0.1325
 1368TIP3    H125519   2.784   0.619   4.290 -1.1703 -1.4516  0.1151
 1368TIP3    H225520   2.815   0.581   4.433  0.6153  0.7961  0.3761
 1369TIP3   OH225521   0.877   5.605   6.631  0.3699  0.0145  0.2732
 1369TIP3    H125522   0.930   5.676   6.595 -1.6840  0.7197 -1.6239
 1369TIP3    H225523   0.805   5.650   6.677 -1.0969 -0.7478 -1.1612
 1370TIP3   OH225524   1.621   2.397  15.168  0.0367  0.6466 -0.3052
 1370TIP3    H125525   1.531   2.419  15.189  0.1804 -0.6654  1.9839
 1370TIP3    H225526   1.615   2.309  15.129  0.3718  0.0373  0.9539
 1371TIP3   OH225527   3.561   1.042   0.677 -0.3722 -0.0700  0.2203
 1371TIP3    H125528   3.651   1.037   0.645  0.3301 -0.2234  2.1019
 1371TIP3    H225529   3.567   1.091   0.759 -1.8680 -0.8762  0.8587
 1372TIP3   OH225530   3.727   1.933  14.544  0.2689  0.5818 -0.2267
 1372TIP3    H125531   3.668   1.899  14.477 -0.2562  2.5613 -0.8494
 1372TIP3    H225532   3.702   1.887  14.624  1.9195 -2.9605 -1.5684
 1373TIP3   OH225533   2.959   6.576  13.843  0.3905  0.1929  0.5589
 1373TIP3    H125534   2.948   6.579  13.938 -0.1954  0.6503  0.4844
 1373TIP3    H225535   3.054   6.577  13.829  0.6510 -3.4416  1.2267
 1374TIP3   OH225536   3.811   0.095  15.718 -0.2983  0.1878 -0.1264
 1374TIP3    H125537   3.884   0.041  15.749  1.0166  1.5238 -0.7603
 1374TIP3    H225538   3.853   0.169  15.674 -2.0188 -0.2941 -2.8314
 1375TIP3   OH225539   3.004   0.713  15.263 -0.5541 -0.1451  0.1550
 1375TIP3    H125540   2.925   0.707  15.211 -0.7422  0.8954  0.2892
 1375TIP3    H225541   3.067   0.758  15.206 -0.6305  0.6271  0.6678
 1376TIP3   OH225542   2.039   3.567   5.934 -0.4385 -0.3181  0.0494
 1376TIP3    H125543   1.968   3.630   5.946 -0.4335 -0.5521  1.4544
 1376TIP3    H225544   2.042   3.518   6.016  0.5783 -1.1074 -0.4379
 1377TIP3   OH225545   3.894   5.528  15.747  0.1091 -0.0153  0.1091
 1377TIP3    H125546   3.856   5.445  15.718  1.0869  0.0145 -1.3612
 1377TIP3    H225547   3.820   5.589  15.745 -0.3338 -0.5437 -0.1111
 1378TIP3   OH225548   4.349   0.464  15.011 -0.2183 -0.3676  0.0762
 1378TIP3    H125549   4.259   0.496  15.007 -0.4038 -0.7514  0.9489
 1378TIP3    H225550   4.386   0.505  15.089 -0.5367 -2.4220  1.3811
 1379TIP3   OH225551   4.329   2.344   0.455 -0.6743 -0.1465  0.1958
 1379TIP3    H125552   4.323   2.283   0.381 -1.9417 -0.5458  0.5992
 1379TIP3    H225553   4.252   2.400   0.446 -0.5928  0.0988  0.9434
 1380TIP3   OH225554   6.761   3.875   3.819  0.7739  0.0449 -0.1340
 1380TIP3    H125555   6.793   3.807   3.759  1.2237  0.4585 -0.3723
 1380TIP3    H225556   6.840   3.909   3.860  0.3515 -1.5701  2.2059
 1381TIP3   OH225557   0.580   3.579  12.557 -0.4626  0.8177 -0.1932
 1381TIP3    H125558   0.572   3.484  12.558 -1.3740  0.8876 -0.2059
 1381TIP3    H225559   0.646   3.598  12.623  0.6617  0.1087 -1.0721
 1382TIP3   OH225560   1.725   5.926   2.669  1.0172 -0.0471 -0.6687
 1382TIP3    H125561   1.767   5.862   2.726 -0.1968  0.1291  0.4824
 1382TIP3    H225562   1.666   5.874   2.615 -0.0707  0.0736  0.3611
 1383TIP3   OH225563   5.447   5.989   6.144 -0.6598 -0.1698 -0.3750
 1383TIP3    H125564   5.524   5.932   6.150 -0.8386 -0.2821  1.5320
 1383TIP3    H225565   5.373   5.928   6.140 -0.7817 -0.0696  0.3376
 1384TIP3   OH225566   6.632   1.284  11.233 -0.0832 -0.2061 -0.6551
 1384TIP3    H125567   6.720   1.321  11.229 -0.3943  0.4372 -1.6793
 1384TIP3    H225568   6.577   1.355  11.265 -0.1125 -0.8703  0.8863
 1385TIP3   OH225569   0.504   3.532  13.826 -0.4996  0.4384 -0.5683
 1385TIP3    H125570   0.530   3.473  13.755  2.4290  0.8697 -0.0156
 1385TIP3    H225571   0.541   3.617  13.802  1.6937  0.3412  1.8756
 1386TIP3   OH225572   3.556   5.405  14.801  0.5081 -0.0431 -0.2735
 1386TIP3    H125573   3.462   5.398  14.814  0.4844 -0.1277 -0.4816
 1386TIP3    H225574   3.595   5.376  14.884  0.3492  0.1384 -0.1351
 1387TIP3   OH225575   3.691   1.632  16.889 -0.6447  0.0030  0.1792
 1387TIP3    H125576   3.775   1.593  16.913  0.0940  1.5319  0.1724
 1387TIP3    H225577   3.626   1.568  16.918  0.5344 -1.8052 -0.9549
 1388TIP3   OH225578   4.859   2.446   3.024  0.0063  0.0607  0.3086
 1388TIP3    H125579   4.926   2.503   3.061  1.2595 -1.5146  0.5671
 1388TIP3    H225580   4.780   2.500   3.020  0.6857  1.2532  2.1779
 1389TIP3   OH225581   4.578   1.550  13.278  0.3340 -0.0230 -0.4901
 1389TIP3    H125582   4.664   1.509  13.276  0.1533 -0.3917 -0.9124
 1389TIP3    H225583   4.589   1.632  13.230  0.5146  0.0572 -0.3091
 1390TIP3   OH225584   0.043   0.925  11.341  0.3492  0.3046 -0.0644
 1390TIP3    H125585   0.130   0.959  11.323  1.8169 -2.8587  0.2822
 1390TIP3    H225586  -0.003   0.997  11.384  3.9632  1.1571  2.9500
 1391TIP3   OH225587   3.640   4.666   1.067  0.8257  0.6772  0.5617
 1391TIP3    H125588   3.633   4.657   0.972  0.2443  1.9599  0.4544
 1391TIP3    H225589   3.733   4.651   1.086  0.8143 -0.3194 -0.1021
 1392TIP3   OH225590   0.993   2.616   2.779  0.1212 -0.6767 -0.3030
 1392TIP3    H125591   0.979   2.525   2.754  0.5385 -1.3306  1.6598
 1392TIP3    H225592   0.906   2.649   2.799  0.0647 -0.9623 -0.0615
 1393TIP3   OH225593   1.135   1.189  17.144  0.3977 -0.0889  0.3506
 1393TIP3    H125594   1.049   1.148  17.133  0.2562 -0.1734  1.5588
 1393TIP3    H225595   1.123   1.248  17.219  1.5748 -0.6512  1.0059
 1394TIP3   OH225596   6.071   3.467   7.017 -0.0027  0.3649 -0.1329
 1394TIP3    H125597   5.994   3.411   7.021  0.2759 -0.0722 -0.6846
 1394TIP3    H225598   6.105   3.455   6.928  0.5709  0.7253  0.0304
 1395TIP3   OH225599   4.189   6.172  17.337 -0.1060 -0.3083  0.2962
 1395TIP3    H125600   4.199   6.104  17.270 -1.3492 -0.3148  0.1058
 1395TIP3    H225601   4.097   6.168  17.363  0.4575 -0.7611  2.4994
 1396TIP3   OH225602   2.284   6.148  10.889 -0.3972  0.3284 -0.3932
 1396TIP3    H125603   2.287   6.242  10.875 -0.7423  0.2575 -0.9839
 1396TIP3    H225604   2.248   6.113  10.808  0.4995 -0.3818 -0.4999
 1397TIP3   OH225605   5.950   1.464   0.705  0.0865 -0.6652  0.2066
 1397TIP3    H125606   5.953   1.391   0.643  0.3235  0.6200 -1.3530
 1397TIP3    H225607   5.943   1.422   0.791 -2.3913 -2.4997 -0.7647
 1398TIP3   OH225608   4.594   5.419  13.841  0.5765 -0.1457  0.9679
 1398TIP3    H125609   4.667   5.448  13.896  1.8865 -0.7405 -0.3584
 1398TIP3    H225610   4.636   5.393  13.759 -1.2483  0.3399 -0.1762
 1399TIP3   OH225611   1.508   0.166  16.518  0.0790 -0.2506  0.6858
 1399TIP3    H125612   1.549   0.080  16.530 -0.2587 -0.5546 -0.2435
 1399TIP3    H225613   1.577   0.228  16.543  1.4799 -0.7262 -1.6766
 1400TIP3   OH225614   1.759   3.370  14.559  0.5076  0.8016 -0.0522
 1400TIP3    H125615   1.718   3.413  14.484  0.8237 -1.2171 -1.4742
 1400TIP3    H225616   1.852   3.364  14.535  0.5089 -0.4132  0.1966
 1401TIP3   OH225617   3.182   4.558  17.316  0.2300 -0.1761  0.7173
 1401TIP3    H125618   3.097   4.575  17.275  0.2536  1.6352  1.3145
 1401TIP3    H225619   3.204   4.469  17.290 -0.2632  0.4632 -2.2708
 1402TIP3   OH225620   4.426   6.187  13.012 -0.1763 -0.2302 -0.0832
 1402TIP3    H125621   4.416   6.099  13.048 -1.5820  0.7162  2.0220
 1402TIP3    H225622   4.391   6.245  13.080  1.5665  2.0427 -1.0030
 1403TIP3   OH225623   6.632   3.971  15.653  0.9041  0.8036 -0.5303
 1403TIP3    H125624   6.665   3.965  15.563 -1.3979  0.2165 -1.4194
 1403TIP3    H225625   6.537   3.959  15.644  0.8000 -1.2778  2.1876
 1404TIP3   OH225626   5.715   5.328   1.887  0.3950  0.4424 -0.3009
 1404TIP3    H125627   5.657   5.253   1.872  0.9268 -0.1266  0.4087
 1404TIP3    H225628   5.688   5.393   1.822 -0.1484 -0.3201 -0.8527
 1405TIP3   OH225629   2.116   5.577  11.616 -0.4972  0.1346 -0.3497
 1405TIP3    H125630   2.146   5.488  11.637  0.1646 -0.0258 -1.8409
 1405TIP3    H225631   2.158   5.632  11.682  1.0958 -0.4017 -0.8689
 1406TIP3   OH225632   2.562   5.878  16.164 -0.2779  0.0348  0.5973
 1406TIP3    H125633   2.597   5.905  16.249 -0.8789 -0.0850  0.8912
 1406TIP3    H225634   2.468   5.892  16.172 -0.3660 -0.2422  0.0481
 1407TIP3   OH225635   3.760   2.773   2.930 -0.0666 -0.4253  0.3760
 1407TIP3    H125636   3.689   2.836   2.916  0.9623  0.6716 -0.0903
 1407TIP3    H225637   3.767   2.765   3.025 -1.6287 -1.5493  0.4510
 1408TIP3   OH225638   4.482   1.871   4.611  0.4662  0.4506 -0.0406
 1408TIP3    H125639   4.566   1.910   4.638 -0.1767  0.6489  1.8162
 1408TIP3    H225640   4.504   1.820   4.533  2.2574  0.7623  0.2020
 1409TIP3   OH225641   3.800   3.278  15.565  0.1044 -0.6015  0.1095
 1409TIP3    H125642   3.779   3.187  15.543  0.6394 -0.9866  1.1143
 1409TIP3    H225643   3.852   3.309  15.491 -0.5333 -0.9397 -0.4863
 1410TIP3   OH225644   6.462   5.962  14.611 -0.1746  0.3340  0.0206
 1410TIP3    H125645   6.548   5.923  14.623 -0.5282 -0.2069  0.9327
 1410TIP3    H225646   6.475   6.055  14.630  0.2181  0.2647  0.0845
 1411TIP3   OH225647   0.935   2.506  14.384  0.1677  0.2410 -0.2211
 1411TIP3    H125648   0.933   2.585  14.438  0.8861 -0.6058  1.1112
 1411TIP3    H225649   0.882   2.528  14.307  0.2360  1.9552  0.1748
 1412TIP3   OH225650   0.793   4.926   5.819  0.5019 -0.4162  0.1096
 1412TIP3    H125651   0.835   4.851   5.776 -2.2401 -0.9304 -1.9214
 1412TIP3    H225652   0.701   4.919   5.794 -0.3932  1.9680  2.3809
 1413TIP3   OH225653   0.631   4.489  12.362  0.6205 -0.1885  0.7036
 1413TIP3    H125654   0.723   4.495  12.387  0.3261 -0.0063  1.7942
 1413TIP3    H225655   0.626   4.408  12.311  1.1494 -0.9249  1.7750
 1414TIP3   OH225656   5.033   0.892   6.587  0.0185 -0.2970  0.3032
 1414TIP3    H125657   4.966   0.950   6.549 -0.8737 -0.4416  1.6060
 1414TIP3    H225658   4.989   0.807   6.593  0.3732 -0.4293  1.0284
 1415TIP3   OH225659   4.190   5.835  11.598  0.4212 -0.5600  0.0580
 1415TIP3    H125660   4.146   5.772  11.540 -0.7567  1.9174 -1.9413
 1415TIP3    H225661   4.159   5.920  11.567 -0.4440  0.9776  4.5289
 1416TIP3   OH225662   0.205   0.785  10.652 -0.7439 -0.2875  1.3503
 1416TIP3    H125663   0.151   0.821  10.722 -0.2697  0.5570  1.2886
 1416TIP3    H225664   0.177   0.833  10.574  2.6358  2.9822  1.8951
 1417TIP3   OH225665   3.281   5.736   2.882 -0.1281  0.2200 -0.4390
 1417TIP3    H125666   3.350   5.762   2.943 -0.9668 -1.7397  1.4488
 1417TIP3    H225667   3.201   5.777   2.917 -0.2725  0.9797 -1.5883
 1418TIP3   OH225668   3.120   2.999   5.784 -0.4807  0.4791 -0.2945
 1418TIP3    H125669   3.102   2.961   5.870 -2.6088  2.5038  0.2705
 1418TIP3    H225670   3.165   2.930   5.736  0.3419 -0.9010  2.2513
 1419TIP3   OH225671   4.019   0.212   3.763  0.2552  0.0652  0.2903
 1419TIP3    H125672   3.931   0.176   3.748  1.2235 -1.7134 -1.5576
 1419TIP3    H225673   4.008   0.269   3.839 -2.7271  0.7744 -0.5181
 1420TIP3   OH225674   1.964   6.240   4.416 -0.2819  0.2191  0.0488
 1420TIP3    H125675   1.964   6.316   4.474 -0.3674  1.1627 -1.1239
 1420TIP3    H225676   1.871   6.218   4.407 -0.2588 -0.0060  0.3759
 1421TIP3   OH225677   2.096   3.479  14.138 -0.2556  0.3346  0.1941
 1421TIP3    H125678   2.034   3.549  14.159  1.3768  1.6108  1.0905
 1421TIP3    H225679   2.161   3.522  14.082  0.4481 -0.6371  0.2428
 1422TIP3   OH225680   2.854   3.865  14.903  0.2367  0.5114 -0.5328
 1422TIP3    H125681   2.892   3.949  14.928  0.0773  0.3109  0.4125
 1422TIP3    H225682   2.832   3.875  14.810  2.7080  0.5796 -1.1780
 1423TIP3   OH225683   5.871   0.243  12.720  0.3292 -0.1756 -0.3423
 1423TIP3    H125684   5.824   0.296  12.656  1.7011  0.0074 -1.2418
 1423TIP3    H225685   5.827   0.260  12.803 -0.1764  1.2332 -0.8754
 1424TIP3   OH225686   4.866   5.781   5.904  0.5831  0.4172  0.2389
 1424TIP3    H125687   4.832   5.718   5.841  2.1118 -0.9024  0.6603
 1424TIP3    H225688   4.959   5.758   5.913  1.0782  2.4481  0.7603
 1425TIP3   OH225689   6.380   3.824  11.860  0.5325 -0.3427  0.8487
 1425TIP3    H125690   6.340   3.844  11.775  0.5551 -2.6163  0.2435
 1425TIP3    H225691   6.306   3.815  11.920  0.3733 -0.8457  0.5793
 1426TIP3   OH225692   6.503   1.921  13.104  0.0930 -0.4333  0.0446
 1426TIP3    H125693   6.566   1.981  13.065  0.2418 -1.1314 -0.8272
 1426TIP3    H225694   6.555   1.845  13.131 -0.2597 -0.6773  0.0482
 1427TIP3   OH225695   0.939   6.717  11.600  0.1517 -0.1527  0.0048
 1427TIP3    H125696   0.942   6.778  11.674  1.1932 -0.0926 -0.0736
 1427TIP3    H225697   0.881   6.647  11.630 -0.1937  0.3388  0.5153
 1428TIP3   OH225698   3.928   6.036  11.184  0.1134 -0.0824 -0.2631
 1428TIP3    H125699   3.858   6.054  11.247 -0.0355  1.4669 -0.8364
 1428TIP3    H225700   3.982   6.115  11.185  2.2489 -1.4588  0.6019
 1429TIP3   OH225701   3.196   3.582   2.839  0.5317 -0.1257 -0.1349
 1429TIP3    H125702   3.236   3.621   2.917  1.0209  0.4575 -0.6618
 1429TIP3    H225703   3.196   3.488   2.856  2.8698 -0.2450 -0.4209
 1430TIP3   OH225704   5.141   5.805  13.699 -0.2854 -0.5023  0.1184
 1430TIP3    H125705   5.200   5.841  13.633 -0.5325 -0.6154 -0.1659
 1430TIP3    H225706   5.192   5.735  13.741 -0.0820 -0.3430  0.1399
 1431TIP3   OH225707   2.125   4.281   3.250  0.0221  0.0762 -0.0968
 1431TIP3    H125708   2.083   4.257   3.333 -1.8661  0.1326 -0.9853
 1431TIP3    H225709   2.066   4.345   3.211  2.0172  1.8060 -0.4803
 1432TIP3   OH225710   3.999   0.275  12.872  0.1048  0.7389 -0.4162
 1432TIP3    H125711   4.090   0.293  12.850  0.3376 -1.2685 -1.3845
 1432TIP3    H225712   3.984   0.186  12.840 -1.7012  0.3509  1.2972
 1433TIP3   OH225713   1.283   0.691   2.915  0.5907 -0.7631  0.3575
 1433TIP3    H125714   1.355   0.732   2.868  1.6507 -0.4404  2.1565
 1433TIP3    H225715   1.255   0.618   2.860  2.5420 -1.1116 -0.2145
 1434TIP3   OH225716   3.267   6.498  14.668 -0.3555 -0.3711 -0.2326
 1434TIP3    H125717   3.305   6.435  14.731 -1.0278 -0.6272 -0.0696
 1434TIP3    H225718   3.339   6.556  14.645 -0.5662  1.1907  2.5562
 1435TIP3   OH225719   2.958   1.963  16.226 -0.1758  0.3143  0.4087
 1435TIP3    H125720   2.916   1.992  16.144  1.2987 -0.9693 -0.8753
 1435TIP3    H225721   2.893   1.907  16.268 -0.1209 -0.9648 -1.1166
 1436TIP3   OH225722   3.014   1.824  15.633 -0.8169  0.1418 -0.0724
 1436TIP3    H125723   2.981   1.756  15.692 -1.6022  0.7438  0.1940
 1436TIP3    H225724   3.015   1.782  15.547  1.6424 -1.2065  0.5113
 1437TIP3   OH225725   4.409   3.520  16.631  0.3012  0.4588  0.0117
 1437TIP3    H125726   4.448   3.436  16.653  2.1765  1.5923  1.2718
 1437TIP3    H225727   4.339   3.532  16.695 -2.2092 -1.4984 -2.1388
 1438TIP3   OH225728   1.434   2.116   3.367 -0.1060 -0.0150  0.3095
 1438TIP3    H125729   1.423   2.205   3.333 -1.2908 -0.3447 -0.2351
 1438TIP3    H225730   1.353   2.099   3.416 -0.7392 -1.4164 -1.0995
 1439TIP3   OH225731   6.169   4.698  15.005 -0.6281  0.0871  0.7005
 1439TIP3    H125732   6.215   4.762  14.950 -0.3132 -1.9189 -1.5578
 1439TIP3    H225733   6.077   4.706  14.978 -0.4158 -1.1795 -0.5217
 1440TIP3   OH225734   0.078   4.017   0.826  0.3571  0.8736 -0.4360
 1440TIP3    H125735   0.125   3.977   0.899 -0.2846 -0.7862 -0.8897
 1440TIP3    H225736   0.145   4.067   0.779  1.3477 -0.2138 -0.2147
 1441TIP3   OH225737   2.820   0.610  15.029  0.1782 -0.5503  0.3422
 1441TIP3    H125738   2.763   0.673  15.075  1.3916  0.5973  0.3512
 1441TIP3    H225739   2.769   0.582  14.953 -0.4994  0.2546  0.4844
 1442TIP3   OH225740   1.637   6.278   0.394  0.5845  0.2272 -0.3623
 1442TIP3    H125741   1.553   6.322   0.386  0.0023 -0.6197  0.8714
 1442TIP3    H225742   1.699   6.348   0.416  0.1284  0.7814 -0.8309
 1443TIP3   OH225743   0.336   0.417   3.589  0.3011 -0.2407  0.1371
 1443TIP3    H125744   0.409   0.477   3.574 -0.6458  0.5846 -1.4059
 1443TIP3    H225745   0.378   0.332   3.603  1.6306  0.6005  1.6010
 1444TIP3   OH225746   3.954   2.357  15.577 -0.4753 -0.6075 -0.5762
 1444TIP3    H125747   4.039   2.312  15.571 -0.2932 -0.5868  1.3096
 1444TIP3    H225748   3.976   2.450  15.583 -0.5827 -0.6267  0.3026
 1445TIP3   OH225749   4.127   6.169   5.297  0.5973 -0.1448  0.1816
 1445TIP3    H125750   4.177   6.243   5.334  1.0209  0.5203 -1.6182
 1445TIP3    H225751   4.041   6.176   5.338  0.0461  2.4534 -1.1660
 1446TIP3   OH225752   4.787   2.145  14.360 -0.3688  0.0655 -0.4758
 1446TIP3    H125753   4.720   2.084  14.391 -0.1821 -0.3145 -0.8134
 1446TIP3    H225754   4.869   2.097  14.368 -0.2443  0.1934 -0.9497
 1447TIP3   OH225755   5.061   2.539   5.303  0.5711 -0.1477  0.4331
 1447TIP3    H125756   5.137   2.502   5.348 -1.4174 -1.3072  3.1638
 1447TIP3    H225757   4.989   2.527   5.365 -1.6178  2.0497 -1.4780
 1448TIP3   OH225758   6.321   2.048  14.605  0.1093  0.1046 -0.4823
 1448TIP3    H125759   6.349   1.957  14.600  0.3431  0.2228 -1.7247
 1448TIP3    H225760   6.366   2.091  14.532 -0.5613  1.0580 -0.3576
 1449TIP3   OH225761   5.364   3.596  16.790  0.2803  0.5801 -0.1614
 1449TIP3    H125762   5.378   3.691  16.798 -0.0442  0.6071  0.1228
 1449TIP3    H225763   5.351   3.582  16.697  1.8085  0.5976 -0.4016
 1450TIP3   OH225764   2.590   1.539  15.280  0.2097  0.9408  0.4116
 1450TIP3    H125765   2.520   1.593  15.317 -1.0996 -0.9332  0.8130
 1450TIP3    H225766   2.648   1.522  15.354 -0.3404  0.3576  0.7221
 1451TIP3   OH225767   5.282   1.984  11.283  0.0335  0.0291 -0.4821
 1451TIP3    H125768   5.193   2.009  11.309  0.0301 -0.6572  0.1989
 1451TIP3    H225769   5.274   1.963  11.190 -0.4766  0.1694 -0.4729
 1452TIP3   OH225770   0.573   2.633  13.249  0.0546  0.2908 -0.1563
 1452TIP3    H125771   0.632   2.707  13.262  1.2378 -0.8451  1.1708
 1452TIP3    H225772   0.590   2.574  13.323 -2.3303 -0.3590 -0.0435
 1453TIP3   OH225773   1.741   0.316  12.745 -0.1610  0.6533 -0.3424
 1453TIP3    H125774   1.654   0.355  12.737 -1.5726 -2.1814 -0.0484
 1453TIP3    H225775   1.740   0.269  12.828  1.6733  0.5564 -0.3199
 1454TIP3   OH225776   5.508   1.390   4.216 -0.0903  0.7366  0.0304
 1454TIP3    H125777   5.434   1.443   4.186 -0.5228 -0.3121 -0.8391
 1454TIP3    H225778   5.569   1.391   4.142 -0.4401 -0.5571 -0.3044
 1455TIP3   OH225779   0.696   0.727   5.893 -0.1923 -0.3214 -0.1476
 1455TIP3    H125780   0.604   0.740   5.918  0.3069 -0.7337  2.0595
 1455TIP3    H225781   0.701   0.635   5.870 -0.1216 -0.5719  0.8208
 1456TIP3   OH225782   5.359   5.325  17.019  0.3221  0.1889  0.4201
 1456TIP3    H125783   5.406   5.365  16.945  0.4017 -1.1052 -0.2545
 1456TIP3    H225784   5.269   5.358  17.011  0.3802  0.2238 -0.1379
 1457TIP3   OH225785   3.585   1.889   3.977 -0.1480 -0.4344  0.5018
 1457TIP3    H125786   3.601   1.910   4.069  0.0458  1.7434  0.0465
 1457TIP3    H225787   3.638   1.812   3.960  1.2923  0.2172  1.7729
 1458TIP3   OH225788   0.800   6.115  12.615 -0.1448  0.1523 -0.7216
 1458TIP3    H125789   0.840   6.202  12.609 -1.4725  0.8351 -0.0645
 1458TIP3    H225790   0.838   6.078  12.695  2.1152 -0.8211 -2.1397
 1459TIP3   OH225791   4.727   5.604   1.561 -0.2454 -0.5514 -0.1419
 1459TIP3    H125792   4.657   5.656   1.603  0.3418  0.9093 -0.8869
 1459TIP3    H225793   4.720   5.626   1.468  1.9027  0.5267 -0.1048
 1460TIP3   OH225794   0.767   0.306  15.351 -0.0343  0.3478 -0.0230
 1460TIP3    H125795   0.847   0.357  15.338  0.0428  0.1220 -0.4364
 1460TIP3    H225796   0.790   0.218  15.322  0.3136 -0.3264  2.1127
 1461TIP3   OH225797   3.954   2.192  15.909  0.0185  0.2561  0.2583
 1461TIP3    H125798   4.039   2.235  15.898  0.8745 -1.1202  1.1372
 1461TIP3    H225799   3.913   2.239  15.981  0.3072  0.5334  0.2453
 1462TIP3   OH225800   5.294   3.821  11.516 -0.2572 -0.2210  0.4918
 1462TIP3    H125801   5.339   3.740  11.488 -0.6085 -0.3568  0.3175
 1462TIP3    H225802   5.296   3.818  11.611 -0.2337 -0.4162  0.4851
 1463TIP3   OH225803   2.157   2.425  16.459 -0.0921 -0.2888 -0.3844
 1463TIP3    H125804   2.252   2.423  16.448  0.4466 -0.7915  3.1619
 1463TIP3    H225805   2.142   2.495  16.522 -2.0214 -0.5745 -0.4722
 1464TIP3   OH225806   1.161   2.869  14.946  0.1758  0.0065 -0.2832
 1464TIP3    H125807   1.085   2.866  15.005  0.8342  0.2761  0.5990
 1464TIP3    H225808   1.124   2.851  14.859 -0.9510  0.4357  0.0761
 1465TIP3   OH225809   1.845   3.733   2.355  0.4356  0.1200  0.1575
 1465TIP3    H125810   1.914   3.798   2.343  0.9454 -0.4548 -0.0983
 1465TIP3    H225811   1.828   3.733   2.449 -1.4233  2.4726 -0.0732
 1466TIP3   OH225812   6.354   4.593   2.309 -0.4778 -0.0003 -0.0140
 1466TIP3    H125813   6.410   4.666   2.338  1.7455 -1.4165 -0.4353
 1466TIP3    H225814   6.277   4.598   2.365  0.9922  0.8669  2.0586
 1467TIP3   OH225815   4.801   2.315   5.900  0.3371 -0.2157 -0.3888
 1467TIP3    H125816   4.807   2.259   5.977  0.4999  1.8928  1.2329
 1467TIP3    H225817   4.842   2.265   5.830 -0.7094 -2.6291  0.6004
 1468TIP3   OH225818   6.557   6.468   2.973  0.1099 -0.4746 -0.1735
 1468TIP3    H125819   6.579   6.513   3.054  1.4090 -0.6197 -0.4215
 1468TIP3    H225820   6.553   6.537   2.907  0.3539 -0.5141 -0.2293
 1469TIP3   OH225821   1.917   4.518  14.719  0.0056  0.1500 -0.0164
 1469TIP3    H125822   1.937   4.525  14.813 -0.1299 -0.7047  0.0862
 1469TIP3    H225823   1.833   4.473  14.716 -0.3481  0.8341 -0.5348
 1470TIP3   OH225824   6.572   2.721  15.564  0.0706  0.5215 -0.1589
 1470TIP3    H125825   6.545   2.750  15.477  0.7221 -0.1984 -0.6128
 1470TIP3    H225826   6.598   2.629  15.552  0.2869  0.4511  0.7688
 1471TIP3   OH225827   1.084   3.827   0.901  0.5266 -0.8210 -0.0402
 1471TIP3    H125828   0.994   3.797   0.886  0.6538 -1.1582 -0.1319
 1471TIP3    H225829   1.091   3.834   0.997  0.0643  0.2628 -0.0712
 1472TIP3   OH225830   0.649   4.975   3.589 -0.2412 -0.4252 -0.3492
 1472TIP3    H125831   0.743   4.965   3.600 -0.0079 -0.2722 -1.9457
 1472TIP3    H225832   0.615   4.885   3.592  0.0749 -0.5589 -0.6481
 1473TIP3   OH225833   0.898   3.903  10.960 -0.4499  0.0606  0.3422
 1473TIP3    H125834   0.877   3.933  11.049 -0.2227  0.4248  0.2755
 1473TIP3    H225835   0.851   3.962  10.902  1.3712  1.4312  0.1702
 1474TIP3   OH225836   6.292   5.582  15.813  0.1969 -0.1138 -0.1534
 1474TIP3    H125837   6.352   5.508  15.804  0.4770 -0.0716  1.1713
 1474TIP3    H225838   6.235   5.577  15.736  1.0907 -0.8880 -0.7898
 1475TIP3   OH225839   3.625   4.209  15.814 -0.2623  0.5203  0.1258
 1475TIP3    H125840   3.581   4.256  15.885  1.0335 -0.4898  1.7014
 1475TIP3    H225841   3.581   4.124  15.811 -2.0590  1.4625 -2.1487
 1476TIP3   OH225842   3.804   6.045   2.868  0.4237 -0.0116  0.0469
 1476TIP3    H125843   3.808   6.081   2.956 -0.7766 -0.5915  0.3562
 1476TIP3    H225844   3.720   6.074   2.834  1.4466  1.3761 -1.4468
 1477TIP3   OH225845   4.575   2.751  11.953 -0.0154  0.3735  0.1910
 1477TIP3    H125846   4.506   2.692  11.922 -0.4186  0.5667  0.6824
 1477TIP3    H225847   4.538   2.838  11.940  0.5931  0.5195 -0.5670
 1478TIP3   OH225848   0.024   3.520  13.523  0.3435 -0.3624 -0.1861
 1478TIP3    H125849   0.097   3.573  13.557 -0.5617  0.1385  1.0380
 1478TIP3    H225850  -0.039   3.517  13.595  0.0723 -2.5765 -0.4686
 1479TIP3   OH225851   6.103   2.466  16.310  0.4150  0.0796 -0.0614
 1479TIP3    H125852   6.058   2.381  16.310  0.2642  0.1556 -0.9664
 1479TIP3    H225853   6.188   2.448  16.271 -0.0499  0.5478 -1.3655
 1480TIP3   OH225854   3.572   5.928  11.291 -0.3699 -0.1921  0.1326
 1480TIP3    H125855   3.532   5.897  11.372 -1.0252  1.5812  0.5366
 1480TIP3    H225856   3.629   6.000  11.319  1.9295 -1.6252 -0.6222
 1481TIP3   OH225857   6.507   3.857  13.116  0.0978  0.5884 -0.5532
 1481TIP3    H125858   6.534   3.834  13.027  0.2091  0.0130 -0.3733
 1481TIP3    H225859   6.555   3.796  13.172 -3.7367 -2.6670 -0.3275
 1482TIP3   OH225860   0.321   4.723   5.860 -0.0546 -0.4313 -0.1225
 1482TIP3    H125861   0.286   4.646   5.816 -0.4973 -0.6459  0.5896
 1482TIP3    H225862   0.244   4.773   5.885  0.2244  0.1830 -0.4524
 1483TIP3   OH225863   4.731   6.600   0.703 -0.4804 -0.7007 -0.1339
 1483TIP3    H125864   4.755   6.566   0.617  0.7289 -1.1492  0.3661
 1483TIP3    H225865   4.727   6.523   0.759  0.0772 -0.2627  0.5179
 1484TIP3   OH225866   3.360   5.724   0.675  0.1729 -0.1125 -0.5551
 1484TIP3    H125867   3.368   5.705   0.769 -2.7841  1.2830  0.0903
 1484TIP3    H225868   3.306   5.653   0.641  1.3982 -0.7184 -1.2841
 1485TIP3   OH225869   2.045   5.572   0.145 -0.2844  0.3928 -0.6470
 1485TIP3    H125870   2.113   5.632   0.113  1.9605 -1.4491  0.3701
 1485TIP3    H225871   2.091   5.489   0.158 -2.2153 -0.3862  2.1854
 1486TIP3   OH225872   4.385   3.542  11.284  0.1539  0.1727 -0.3256
 1486TIP3    H125873   4.440   3.611  11.322 -0.6855  1.3092 -1.1130
 1486TIP3    H225874   4.400   3.550  11.190 -0.3939 -0.3524 -0.4577
 1487TIP3   OH225875   5.887   5.998   0.650  0.5083 -0.3240  0.0438
 1487TIP3    H125876   5.797   6.005   0.683  0.7349 -1.3363  0.9061
 1487TIP3    H225877   5.880   5.937   0.576  0.1328  1.3473 -1.3639
 1488TIP3   OH225878   5.281   5.336   4.008  0.2990 -0.1644  0.1738
 1488TIP3    H125879   5.270   5.405   4.074  1.9499  0.7524 -0.4408
 1488TIP3    H225880   5.255   5.377   3.926  1.8633 -0.0357 -0.2906
 1489TIP3   OH225881   2.877   2.143  11.245  0.2276 -0.4386  0.2867
 1489TIP3    H125882   2.792   2.138  11.201  0.3211  0.2539  0.0171
 1489TIP3    H225883   2.939   2.107  11.181  0.1973 -0.5487  0.3191
 1490TIP3   OH225884   6.006   5.153  11.734  0.2519 -0.4493  0.0570
 1490TIP3    H125885   5.944   5.225  11.729  0.3968 -0.2886  0.5621
 1490TIP3    H225886   5.952   5.074  11.731  0.0223 -0.3094  0.5484
 1491TIP3   OH225887   6.081   5.185   0.567  0.0458 -0.2977  0.3241
 1491TIP3    H125888   6.105   5.104   0.521 -0.8139 -0.1093 -0.4963
 1491TIP3    H225889   5.985   5.184   0.567  0.0352  0.3552  0.9703
 1492TIP3   OH225890   5.812   4.330  16.167  0.2291  0.0755 -0.4163
 1492TIP3    H125891   5.776   4.242  16.153 -0.1525  0.3037 -0.9288
 1492TIP3    H225892   5.739   4.388  16.145  1.2403  0.5945 -2.6188
 1493TIP3   OH225893   4.724   0.937  12.766 -0.4682 -0.1652 -0.3763
 1493TIP3    H125894   4.789   0.909  12.702  0.7718  2.0511 -0.2001
 1493TIP3    H225895   4.652   0.972  12.714  1.0894  2.8527 -0.7144
 1494TIP3   OH225896   3.207   2.835   1.320 -0.3030 -0.4981  0.1850
 1494TIP3    H125897   3.282   2.778   1.337  0.6576  0.6907  0.0896
 1494TIP3    H225898   3.185   2.820   1.228 -1.3512 -2.1551  0.6656
 1495TIP3   OH225899   4.305   5.251   5.216  0.0404  0.2536  1.1406
 1495TIP3    H125900   4.352   5.246   5.300  0.9317 -0.5439  0.6197
 1495TIP3    H225901   4.234   5.187   5.224  1.9642 -2.1989  0.2355
 1496TIP3   OH225902   3.503   1.718   6.043 -0.7762  0.2285  0.5315
 1496TIP3    H125903   3.493   1.809   6.070 -3.3566  0.1093  0.2246
 1496TIP3    H225904   3.444   1.708   5.968  0.9906 -1.2165 -0.7791
 1497TIP3   OH225905   4.541   1.075   3.198  0.1976 -0.1587 -0.2172
 1497TIP3    H125906   4.448   1.082   3.220 -0.3429 -2.0808 -1.5834
 1497TIP3    H225907   4.542   1.027   3.115  2.3986  0.3899 -0.5685
 1498TIP3   OH225908   0.002   0.062  12.109  0.2681 -0.1080 -0.5444
 1498TIP3    H125909   0.082   0.110  12.087  0.4942  0.1319  0.7574
 1498TIP3    H225910   0.027  -0.030  12.100  0.5545 -0.0265 -0.6018
 1499TIP3   OH225911   2.714   0.731   4.895  0.2613  0.4970  0.1511
 1499TIP3    H125912   2.634   0.749   4.943  0.2945 -0.5964  0.6466
 1499TIP3    H225913   2.685   0.688   4.814  0.3090  0.7814 -0.0197
 1500TIP3   OH225914   2.494   0.261   0.835  0.0601 -0.0684 -0.1614
 1500TIP3    H125915   2.418   0.231   0.885 -1.7228  2.6071 -1.0180
 1500TIP3    H225916   2.487   0.215   0.751 -0.4487 -0.0786 -0.1167
 1501TIP3   OH225917   2.403   0.796  12.943 -0.5154 -0.3492 -0.5280
 1501TIP3    H125918   2.410   0.765  13.033  0.6713  1.6375  0.1329
 1501TIP3    H225919   2.487   0.838  12.925 -0.9871 -0.0709 -2.3266
 1502TIP3   OH225920   5.686   2.804  16.253  0.2147 -0.8990  0.0964
 1502TIP3    H125921   5.707   2.838  16.340 -1.3389  0.9590 -0.1904
 1502TIP3    H225922   5.744   2.852  16.194 -2.5296  2.2131 -0.4010
 1503TIP3   OH225923   6.755   0.967   0.041 -0.3361 -0.2352  0.4263
 1503TIP3    H125924   6.670   1.010   0.043  0.2623  0.9857  0.4866
 1503TIP3    H225925   6.791   0.979   0.128  0.4922  0.5129 -0.0055
 1504TIP3   OH225926   4.064   5.956   0.918  0.3512 -0.0301 -0.4684
 1504TIP3    H125927   4.018   5.883   0.877 -0.8793 -0.1311  1.0242
 1504TIP3    H225928   4.118   5.915   0.985 -0.7843  0.4520  0.7673
 1505TIP3   OH225929   4.693   3.192  11.602  0.1729  0.2114  0.8312
 1505TIP3    H125930   4.638   3.183  11.524  0.5855 -0.1486  0.5723
 1505TIP3    H225931   4.774   3.146  11.579  0.7801  1.1564  1.0170
 1506TIP3   OH225932   4.622   3.612   5.461 -0.2058 -0.0876 -0.3711
 1506TIP3    H125933   4.638   3.628   5.554 -1.9082 -1.6082  0.2378
 1506TIP3    H225934   4.675   3.536   5.440  1.0769  0.9333 -0.9954
 1507TIP3   OH225935   4.456   3.953  15.044 -0.8233  0.0309 -0.0780
 1507TIP3    H125936   4.391   3.972  14.976 -1.8425 -1.7218  0.3354
 1507TIP3    H225937   4.539   3.949  14.997 -1.0545  1.7395 -0.7157
 1508TIP3   OH225938   6.251   5.042   1.283  1.0366 -0.0961 -0.1061
 1508TIP3    H125939   6.232   4.963   1.232 -0.7571  1.1932 -1.5586
 1508TIP3    H225940   6.220   5.114   1.228 -0.6023  1.4220  2.5846
 1509TIP3   OH225941   1.153   0.450  14.893  0.3584 -0.5471  0.0122
 1509TIP3    H125942   1.198   0.528  14.859 -1.2922  0.6314  0.4261
 1509TIP3    H225943   1.171   0.382  14.829 -1.2071  1.1536 -2.3800
 1510TIP3   OH225944   6.622   1.592  12.034  0.4905  0.1480  0.1920
 1510TIP3    H125945   6.649   1.626  11.948 -0.4577  1.3489  0.3366
 1510TIP3    H225946   6.535   1.630  12.048  0.4492 -0.3860  1.4919
 1511TIP3   OH225947   5.422   4.152  14.362  0.0092 -0.4403 -0.7510
 1511TIP3    H125948   5.425   4.248  14.362 -1.4262 -0.3537  0.5346
 1511TIP3    H225949   5.343   4.130  14.313 -0.1409 -0.9333 -0.2985
 1512TIP3   OH225950   1.735   0.482   5.681 -0.0423  0.5195 -0.1937
 1512TIP3    H125951   1.710   0.443   5.765  1.0189  0.6938  0.2210
 1512TIP3    H225952   1.656   0.529   5.652 -0.1514  1.2562  1.1707
 1513TIP3   OH225953   1.297   0.176   3.677  0.4782 -0.4570 -0.5902
 1513TIP3    H125954   1.246   0.168   3.597 -0.2794 -1.9606 -0.0055
 1513TIP3    H225955   1.240   0.223   3.737  0.7872  0.0902 -0.7198
 1514TIP3   OH225956   0.318   3.664   4.914 -0.4691  0.0328  0.7101
 1514TIP3    H125957   0.381   3.679   4.844 -0.1731 -0.4030  0.8779
 1514TIP3    H225958   0.371   3.638   4.989 -0.8840 -1.1055  0.6356
 1515TIP3   OH225959   3.453   2.717   4.013 -0.7221  0.2800 -0.1844
 1515TIP3    H125960   3.511   2.688   3.943 -2.3308  0.1282 -1.5222
 1515TIP3    H225961   3.434   2.637   4.063  0.2623  0.3503  0.3279
 1516TIP3   OH225962   5.200   3.283  13.925 -0.4256 -0.2637  0.2692
 1516TIP3    H125963   5.167   3.363  13.884 -0.7128  0.5189  1.9807
 1516TIP3    H225964   5.288   3.305  13.954  0.9263 -1.7005 -2.3797
 1517TIP3   OH225965   0.471   1.180  11.819 -0.0153 -0.2735  0.0868
 1517TIP3    H125966   0.384   1.153  11.789  0.4437 -2.8429  0.7899
 1517TIP3    H225967   0.517   1.203  11.738 -0.6884 -1.0359 -0.5376
 1518TIP3   OH225968   1.621   4.752  14.983  0.4174 -0.2255 -0.3439
 1518TIP3    H125969   1.624   4.687  15.052  0.5150  0.4122  0.2636
 1518TIP3    H225970   1.665   4.829  15.020 -0.5195  0.5006 -0.6895
 1519TIP3   OH225971   1.311   5.307   2.167  0.6991 -0.2573  0.3583
 1519TIP3    H125972   1.393   5.261   2.151  1.3591  1.3694 -1.3063
 1519TIP3    H225973   1.320   5.344   2.254  1.5364 -0.4967  0.3808
 1520TIP3   OH225974   4.621   2.539  10.512 -0.4836 -0.4173 -0.0133
 1520TIP3    H125975   4.631   2.632  10.491  0.9438 -1.0274 -2.4770
 1520TIP3    H225976   4.696   2.518  10.567 -0.6453 -0.1696  0.3004
 1521TIP3   OH225977   2.220   4.080   1.063 -0.4682  0.0453  0.3269
 1521TIP3    H125978   2.265   4.015   1.117 -0.5001 -0.0903  0.1909
 1521TIP3    H225979   2.150   4.113   1.119 -1.4941 -1.2266 -0.1566
 1522TIP3   OH225980   1.227   4.912  11.811  0.7452 -0.0480  0.3931
 1522TIP3    H125981   1.305   4.881  11.857  2.3598  2.8403 -0.1874
 1522TIP3    H225982   1.252   4.913  11.719 -1.6719 -3.5242 -0.4963
 1523TIP3   OH225983   1.358   2.401   2.385  0.3095  0.3583  0.3923
 1523TIP3    H125984   1.439   2.353   2.402 -0.0746  0.1939  1.9395
 1523TIP3    H225985   1.362   2.475   2.445  0.0452  1.2740 -0.6834
 1524TIP3   OH225986   6.350   0.899  17.043  0.2163 -0.7693 -0.2020
 1524TIP3    H125987   6.438   0.937  17.043  0.5396 -1.4914 -0.5418
 1524TIP3    H225988   6.364   0.809  17.074 -0.5249 -0.6285  0.5728
 1525TIP3   OH225989   1.042   5.034  11.994 -0.1460 -0.4405  0.4123
 1525TIP3    H125990   1.086   4.977  11.929 -0.0732  0.7484 -0.6160
 1525TIP3    H225991   0.962   4.986  12.017 -0.5687 -0.5492 -1.1581
 1526TIP3   OH225992   4.249   3.694   3.249  0.1993 -0.0409  0.1124
 1526TIP3    H125993   4.256   3.598   3.245 -0.7459 -0.0874 -0.5122
 1526TIP3    H225994   4.159   3.713   3.225  0.0579  0.9541  1.3311
 1527TIP3   OH225995   4.728   1.977   5.919 -0.4980 -0.1252  0.1496
 1527TIP3    H125996   4.634   1.993   5.906 -0.8037 -2.0821 -0.4266
 1527TIP3    H225997   4.753   2.037   5.990 -1.8603  1.3871 -0.5893
 1528TIP3   OH225998   6.617   4.507   2.406  0.4160  0.2133 -0.3455
 1528TIP3    H125999   6.588   4.416   2.392  1.2811 -0.3149  1.0732
 1528TIP3    H226000   6.543   4.560   2.379 -1.5237 -1.0295  2.1192
 1529TIP3   OH226001   3.042   0.446  15.881 -0.2359  0.0709  0.2130
 1529TIP3    H126002   3.071   0.425  15.970  0.3265  1.2647  0.3357
 1529TIP3    H226003   2.988   0.525  15.892 -2.5437 -1.3417 -0.1667
 1530TIP3   OH226004   1.127   3.881  11.810  0.2338  0.1793 -0.2644
 1530TIP3    H126005   1.205   3.884  11.865  0.3568  0.6974 -0.4580
 1530TIP3    H226006   1.137   3.955  11.751 -0.7566  0.7091  0.2002
 1531TIP3   OH226007   4.035   6.663  16.209 -0.1343  0.1782  0.0477
 1531TIP3    H126008   4.000   6.738  16.257 -2.6324 -1.0470  0.2697
 1531TIP3    H226009   3.963   6.633  16.153  0.8786 -1.8243 -0.3007
 1532TIP3   OH226010   2.986   5.413   3.814  0.1967 -0.0516  0.2366
 1532TIP3    H126011   3.073   5.444   3.789 -0.1015  1.9686  1.4545
 1532TIP3    H226012   2.927   5.455   3.752  0.0137 -0.9646 -0.2270
 1533TIP3   OH226013   3.062   5.487  16.794  1.0588  0.1568  0.5845
 1533TIP3    H126014   3.003   5.529  16.857 -0.6598 -1.3381  0.0780
 1533TIP3    H226015   3.092   5.408  16.838  3.1211  1.1176  0.9985
 1534TIP3   OH226016   5.207   1.349  14.421  0.2908 -0.0769  0.2650
 1534TIP3    H126017   5.178   1.373  14.509  1.0662 -2.1587  1.1521
 1534TIP3    H226018   5.159   1.268  14.402  0.8742 -0.1824 -0.8287
 1535TIP3   OH226019   0.927   4.840   0.003 -0.0393 -0.5516 -0.0132
 1535TIP3    H126020   0.949   4.927   0.035  0.9165 -1.0352  0.7130
 1535TIP3    H226021   0.964   4.780   0.069 -1.5554 -1.4911  0.0421
 1536TIP3   OH226022   1.943   3.103   0.510 -0.3087 -0.1296  0.4175
 1536TIP3    H126023   1.936   3.147   0.425  0.7556  1.5029  1.1300
 1536TIP3    H226024   1.960   3.012   0.488 -1.4295 -0.0096 -1.1105
 1537TIP3   OH226025   1.696   6.720  13.380 -0.1403 -0.4464  0.1214
 1537TIP3    H126026   1.768   6.714  13.443  1.1086  0.0961 -1.2005
 1537TIP3    H226027   1.732   6.769  13.306 -1.5713 -1.0202 -1.0196
 1538TIP3   OH226028   4.827   0.201   1.008 -0.1269  0.0237  0.3665
 1538TIP3    H126029   4.848   0.253   1.086 -1.1186  1.0711 -0.0380
 1538TIP3    H226030   4.750   0.151   1.033  0.0159 -0.2339  0.3008
 1539TIP3   OH226031   0.823   6.178  13.955 -0.0784 -0.5193 -0.2622
 1539TIP3    H126032   0.768   6.171  13.878 -0.0925 -0.6766 -0.2376
 1539TIP3    H226033   0.860   6.266  13.951  0.9845 -0.9851 -1.1654
 1540TIP3   OH226034   2.233   3.542   1.827  0.1076  0.5044 -0.1178
 1540TIP3    H126035   2.251   3.598   1.751 -0.8129  1.7156  0.5229
 1540TIP3    H226036   2.191   3.464   1.790 -0.9479  1.3778 -0.8191
 1541TIP3   OH226037   3.185   3.493   4.173  0.4144 -0.0973  0.1763
 1541TIP3    H126038   3.154   3.584   4.177  0.8314  0.1396 -1.3312
 1541TIP3    H226039   3.121   3.448   4.117  0.7245 -0.5152  0.1541
 1542TIP3   OH226040   2.968   1.944  16.668  0.5711 -0.0797 -0.1679
 1542TIP3    H126041   2.905   2.011  16.693  0.6262 -0.0530 -0.0974
 1542TIP3    H226042   3.013   1.922  16.750 -0.4588 -1.2725  0.0977
 1543TIP3   OH226043   2.616   4.487   3.992 -0.1850 -0.9695 -0.4537
 1543TIP3    H126044   2.616   4.580   4.014  1.7078 -1.2748  1.1149
 1543TIP3    H226045   2.575   4.444   4.068  1.1861 -1.5811 -0.0335
 1544TIP3   OH226046   6.691   0.745   4.360 -0.0773  0.1485 -0.8409
 1544TIP3    H126047   6.692   0.715   4.269  0.5655 -0.9481 -0.5000
 1544TIP3    H226048   6.681   0.664   4.411  1.8236  0.4834  0.1444
 1545TIP3   OH226049   3.398   2.999  11.440  0.7222 -0.3454 -0.6987
 1545TIP3    H126050   3.365   3.083  11.407  0.2553  0.2624  1.1566
 1545TIP3    H226051   3.380   2.936  11.370 -1.0490  0.6785 -1.2156
 1546TIP3   OH226052   5.196   2.570  11.405  0.0470  0.3728  0.6421
 1546TIP3    H126053   5.148   2.593  11.326 -0.0199  0.2296  0.6399
 1546TIP3    H226054   5.131   2.531  11.463 -0.0226  1.0055  0.9996
 1547TIP3   OH226055   1.582   5.784   2.160  0.3843 -0.5296 -0.0109
 1547TIP3    H126056   1.586   5.783   2.256  0.6764  0.3822 -0.0054
 1547TIP3    H226057   1.512   5.722   2.139  2.0554 -2.8127  0.6761
 1548TIP3   OH226058   5.235   5.693   0.599  0.9107  0.1318 -0.5830
 1548TIP3    H126059   5.313   5.728   0.556  1.5776  0.5501  0.9265
 1548TIP3    H226060   5.234   5.600   0.573  1.6344  0.2248 -0.9917
 1549TIP3   OH226061   6.164   6.335   0.195 -0.3605  0.1688  0.1757
 1549TIP3    H126062   6.231   6.388   0.152 -1.9835  1.6749 -0.5900
 1549TIP3    H226063   6.143   6.267   0.131 -0.2187  0.2299  0.0635
 1550TIP3   OH226064   2.189   1.571   2.513  0.2702 -0.8130 -0.2844
 1550TIP3    H126065   2.101   1.608   2.503  0.9300  1.1927  0.7695
 1550TIP3    H226066   2.193   1.502   2.447 -1.9806 -0.7584 -0.5698
 1551TIP3   OH226067   4.481   4.555  16.968 -0.2059  0.1655 -0.0164
 1551TIP3    H126068   4.437   4.579  16.887 -0.5948 -1.2760 -0.2630
 1551TIP3    H226069   4.482   4.459  16.967 -0.5610  0.1120  1.8631
 1552TIP3   OH226070   3.426   5.032   1.971 -0.1111 -1.2367 -0.0826
 1552TIP3    H126071   3.487   5.089   2.018 -0.2816 -0.5248 -0.7150
 1552TIP3    H226072   3.434   5.058   1.880 -0.8997 -1.5681 -0.2555
 1553TIP3   OH226073   5.229   2.793  16.896  0.5833  0.4257 -0.6957
 1553TIP3    H126074   5.227   2.737  16.974 -2.7580  2.5422  0.9766
 1553TIP3    H226075   5.299   2.856  16.915  0.5122  0.2795  0.1032
 1554TIP3   OH226076   0.701   3.335  12.075  0.0668  0.1745  0.2462
 1554TIP3    H126077   0.606   3.338  12.086  0.2558  0.7725  1.9792
 1554TIP3    H226078   0.735   3.386  12.148  1.7695 -0.8653  0.2294
 1555TIP3   OH226079   4.070   2.990  16.402  0.6093  0.0739 -0.0975
 1555TIP3    H126080   4.165   2.992  16.397  0.5654  1.6252 -1.0784
 1555TIP3    H226081   4.043   3.082  16.393 -0.9625 -0.2665  0.6708
 1556TIP3   OH226082   0.644   1.300  15.363  0.3017  0.2536 -0.3593
 1556TIP3    H126083   0.590   1.343  15.429  0.8745  1.3486 -0.5853
 1556TIP3    H226084   0.700   1.241  15.414 -2.5565 -2.6887 -0.2768
 1557TIP3   OH226085   2.162   2.745   0.032  0.4235  0.2816 -0.0953
 1557TIP3    H126086   2.257   2.741   0.031  0.3916 -0.7106 -1.0664
 1557TIP3    H226087   2.138   2.767  -0.058 -0.3081 -1.0569 -0.2446
 1558TIP3   OH226088   3.317   3.892  15.331 -0.2768 -0.4775 -0.3131
 1558TIP3    H126089   3.260   3.956  15.372  0.2323 -0.9448  1.2205
 1558TIP3    H226090   3.353   3.841  15.404  1.6402 -0.5819 -1.2371
 1559TIP3   OH226091   0.509   5.923   0.313  0.4519  0.3266  0.1456
 1559TIP3    H126092   0.471   5.929   0.225  2.2558  1.1048 -0.6425
 1559TIP3    H226093   0.507   5.830   0.334  0.0410  0.1245 -0.7287
 1560TIP3   OH226094   2.288   3.793   6.227  0.0836  0.0903  0.3617
 1560TIP3    H126095   2.310   3.774   6.318 -1.0845  1.3423  0.9402
 1560TIP3    H226096   2.367   3.833   6.191  0.8605 -1.2271  0.5433
 1561TIP3   OH226097   6.699   0.872   0.300 -0.3924 -0.0010  0.9421
 1561TIP3    H126098   6.710   0.777   0.294 -0.2589  0.1127 -1.9210
 1561TIP3    H226099   6.616   0.889   0.255  0.3846  1.3549 -0.0114
 1562TIP3   OH226100   6.489   0.221   0.570 -0.0524  0.1785  0.3320
 1562TIP3    H126101   6.507   0.223   0.664  0.1211  1.5982  0.2961
 1562TIP3    H226102   6.403   0.264   0.561 -0.3816 -0.5470 -0.1060
 1563TIP3   OH226103   2.459   4.275  15.706 -0.0012  0.2541  0.1268
 1563TIP3    H126104   2.507   4.285  15.624  0.3071  0.3124  0.3132
 1563TIP3    H226105   2.425   4.363  15.725  0.4229  0.3697  0.3633
 1564TIP3   OH226106   4.103   3.351  13.365 -0.0842 -0.3668  0.2264
 1564TIP3    H126107   4.037   3.320  13.428  0.1559 -1.6528 -0.1115
 1564TIP3    H226108   4.171   3.391  13.419 -0.2994 -0.6649  0.7259
 1565TIP3   OH226109   5.759   0.516  11.087 -0.2592 -0.2207 -0.4639
 1565TIP3    H126110   5.786   0.490  10.999 -1.3716 -0.1861 -0.8326
 1565TIP3    H226111   5.814   0.592  11.107  1.5883 -1.5637 -0.1937
 1566TIP3   OH226112   6.587   6.411  16.062  0.4662 -0.0299  0.4961
 1566TIP3    H126113   6.676   6.429  16.033 -0.4620  0.5501 -2.2965
 1566TIP3    H226114   6.568   6.324  16.026 -0.7240  0.6884 -0.6845
 1567TIP3   OH226115   6.555   2.620  12.151 -0.6892  0.6257  0.8287
 1567TIP3    H126116   6.472   2.667  12.141 -0.1796  1.8078  1.7922
 1567TIP3    H226117   6.619   2.690  12.164  0.5915 -0.2227 -0.6281
 1568TIP3   OH226118   5.438   2.308  14.681  0.5801 -0.2445  0.2519
 1568TIP3    H126119   5.352   2.312  14.637  1.1902 -0.2354 -0.9845
 1568TIP3    H226120   5.461   2.216  14.679  0.1024 -0.4214  1.6345
 1569TIP3   OH226121   4.098   4.517  11.847 -0.2931 -0.1305 -0.2990
 1569TIP3    H126122   4.144   4.572  11.783 -1.8597  1.3270 -0.2395
 1569TIP3    H226123   4.106   4.565  11.930  2.3003 -2.3239  0.8812
 1570TIP3   OH226124   2.990   6.746  12.752  0.0039 -0.0747 -0.0772
 1570TIP3    H126125   3.042   6.771  12.828  0.0893 -1.8279  0.4699
 1570TIP3    H226126   2.916   6.808  12.752  0.8523  0.9761  0.4530
 1571TIP3   OH226127   1.304   4.484   5.292  0.2387  0.3092  0.8213
 1571TIP3    H126128   1.242   4.551   5.320 -0.5435 -0.3714  0.7437
 1571TIP3    H226129   1.269   4.402   5.328  0.9724 -0.1170  0.5891
 1572TIP3   OH226130   0.663   6.490   5.072  0.1220 -0.3822 -0.6781
 1572TIP3    H126131   0.619   6.477   5.156  2.5256  0.6588  0.8339
 1572TIP3    H226132   0.596   6.530   5.016 -0.6497  2.0586  1.8021
 1573TIP3   OH226133   2.823   3.753  15.311  0.3507  0.4329  0.3990
 1573TIP3    H126134   2.900   3.749  15.254 -0.0543 -0.2659 -0.1093
 1573TIP3    H226135   2.859   3.763  15.399  1.0715 -0.7477  0.2632
 1574TIP3   OH226136   6.564   3.665   6.336 -0.6847 -0.2557  0.2266
 1574TIP3    H126137   6.613   3.591   6.300 -1.1486  0.3810 -1.8653
 1574TIP3    H226138   6.489   3.674   6.278 -1.6913  0.6404  1.6212
 1575TIP3   OH226139   3.388   3.974   1.898 -0.3016 -0.0017  0.1319
 1575TIP3    H126140   3.457   3.941   1.841  0.4219  0.8799  0.4803
 1575TIP3    H226141   3.410   3.941   1.985  0.0107  0.7604  0.3477
 1576TIP3   OH226142   6.728   4.272  14.408  0.3247  0.3379  0.1707
 1576TIP3    H126143   6.633   4.270  14.399  0.4983  0.3115 -2.2514
 1576TIP3    H226144   6.748   4.363  14.432 -0.2412  0.6315 -0.4545
 1577TIP3   OH226145   3.975   5.745   0.777 -0.2776  0.0577 -0.1241
 1577TIP3    H126146   4.039   5.756   0.706 -0.5627  1.1073 -0.2277
 1577TIP3    H226147   3.897   5.709   0.734  0.0462 -0.7337 -0.0807
 1578TIP3   OH226148   6.629   1.633  11.116 -0.1315  0.4140  0.0323
 1578TIP3    H126149   6.653   1.724  11.097  0.6920  0.0097 -0.9405
 1578TIP3    H226150   6.705   1.598  11.164 -0.5881  0.3286  0.7055
 1579TIP3   OH226151   1.716   2.902   2.387  0.3329  0.4093 -0.3392
 1579TIP3    H126152   1.716   2.951   2.305 -0.3793 -1.9369 -1.8029
 1579TIP3    H226153   1.732   2.811   2.362  0.5722 -0.3283  2.1826
 1580TIP3   OH226154   3.924   2.028   0.560  0.5070 -0.1908  0.1201
 1580TIP3    H126155   4.004   2.039   0.508 -0.5377  0.7329 -1.3848
 1580TIP3    H226156   3.922   1.936   0.583  0.7105 -0.8044 -2.0837
 1581TIP3   OH226157   1.268   4.633   6.012  0.4226 -0.0465  0.2440
 1581TIP3    H126158   1.293   4.549   5.973  1.6073  0.9353 -1.2106
 1581TIP3    H226159   1.198   4.611   6.073  0.6580 -2.0808 -0.1535
 1582TIP3   OH226160   4.397   0.914  12.919 -0.2471  0.2032 -0.2256
 1582TIP3    H126161   4.393   0.983  12.853  1.6109 -0.1371 -0.7591
 1582TIP3    H226162   4.396   0.833  12.868  1.9556 -0.0562  0.0506
 1583TIP3   OH226163   5.111   4.355   3.325  0.4674 -0.2750  0.3288
 1583TIP3    H126164   5.157   4.292   3.380  3.1058  1.9964  0.9353
 1583TIP3    H226165   5.147   4.341   3.237 -1.7849 -2.0661 -0.4388
 1584TIP3   OH226166   4.175   3.153   1.899  0.0803 -0.6012 -0.0435
 1584TIP3    H126167   4.111   3.204   1.948  0.3962  0.8866 -1.1058
 1584TIP3    H226168   4.124   3.087   1.852 -0.4262 -0.7550  0.7134
 1585TIP3   OH226169   4.368   2.276   2.937 -0.2613  0.1990 -0.3458
 1585TIP3    H126170   4.370   2.186   2.969  2.0060  0.2125 -0.3583
 1585TIP3    H226171   4.373   2.329   3.016  2.6502  0.2410 -0.4721
 1586TIP3   OH226172   5.488   1.852  14.530  0.0862 -0.4487  0.3157
 1586TIP3    H126173   5.504   1.826  14.439  0.1116  0.8758 -0.0798
 1586TIP3    H226174   5.554   1.804  14.580  0.9351 -0.2015 -0.5208
 1587TIP3   OH226175   3.886   0.673  10.781 -0.2851 -0.5110 -0.4462
 1587TIP3    H126176   3.815   0.610  10.794  0.7014 -1.6601 -0.3446
 1587TIP3    H226177   3.883   0.694  10.688 -1.0126 -0.2175 -0.3626
 1588TIP3   OH226178   3.826   6.105   4.340 -0.5358  0.3098 -0.4770
 1588TIP3    H126179   3.779   6.022   4.345  0.1379 -0.0234  1.0282
 1588TIP3    H226180   3.882   6.105   4.418  1.6682  0.8426 -1.9801
 1589TIP3   OH226181   2.344   2.412  16.703 -0.3685  0.4412 -0.2977
 1589TIP3    H126182   2.420   2.441  16.652 -0.4724  2.0923  0.4229
 1589TIP3    H226183   2.342   2.317  16.690  0.5880  0.5945 -2.0039
 1590TIP3   OH226184   4.412   6.045   5.024 -0.0005 -0.4287  0.5552
 1590TIP3    H126185   4.320   6.022   5.036 -0.2012  1.0058  2.0457
 1590TIP3    H226186   4.458   5.962   5.036 -1.1425 -1.4168 -1.4731
 1591TIP3   OH226187   1.897   2.521  10.995  0.1282  0.2488 -0.1850
 1591TIP3    H126188   1.974   2.521  11.052  0.3987 -2.6996 -0.3963
 1591TIP3    H226189   1.905   2.602  10.944  3.7473 -0.4364 -1.0020
 1592TIP3   OH226190   0.102   2.343   1.648 -0.4686 -0.2610  0.3512
 1592TIP3    H126191   0.194   2.362   1.631 -0.9685  0.6843 -1.5642
 1592TIP3    H226192   0.057   2.425   1.630 -1.4950  0.0409  3.6409
 1593TIP3   OH226193   0.171   5.700   4.226  0.2960 -0.2670  0.4535
 1593TIP3    H126194   0.162   5.792   4.203 -2.4130 -0.8368 -1.1935
 1593TIP3    H226195   0.139   5.694   4.316  1.4656  0.4938  0.9476
 1594TIP3   OH226196   0.243   4.912   0.251 -0.0659 -0.9334 -0.1047
 1594TIP3    H126197   0.320   4.874   0.208  1.5054  0.6312  1.1250
 1594TIP3    H226198   0.222   4.989   0.198 -0.8859 -1.4125 -0.4943
 1595TIP3   OH226199   4.034   0.923  17.023 -0.1900  0.1376 -0.1761
 1595TIP3    H126200   4.029   0.919  17.119  0.4139 -0.5656 -0.1626
 1595TIP3    H226201   3.943   0.933  16.995 -0.6107 -1.5803  0.4153
 1596TIP3   OH226202   3.062   1.798   4.592  0.4189  0.0529 -0.0686
 1596TIP3    H126203   3.022   1.718   4.556  1.2277 -0.0371 -0.8059
 1596TIP3    H226204   3.068   1.781   4.686 -0.5939 -0.2274 -0.0464
 1597TIP3   OH226205   0.307   1.720   3.718 -0.5911  0.3497  0.6408
 1597TIP3    H126206   0.351   1.798   3.686 -1.9931  0.5457 -0.9582
 1597TIP3    H226207   0.282   1.672   3.639 -0.8968 -1.0795  1.5580
 1598TIP3   OH226208   4.786   6.712   1.440  0.1682 -0.0784 -0.8436
 1598TIP3    H126209   4.724   6.662   1.493  0.2621  0.7302  0.0617
 1598TIP3    H226210   4.833   6.646   1.390 -0.1366 -0.8518 -0.1369
 1599TIP3   OH226211   0.083   3.369   0.445 -0.0529 -0.2637  0.3767
 1599TIP3    H126212  -0.002   3.343   0.481 -1.1793  0.9338 -1.2833
 1599TIP3    H226213   0.128   3.411   0.518 -1.3542  0.1044  0.9909
 1600TIP3   OH226214   2.811   5.369  10.572 -0.4435  0.0061  0.0701
 1600TIP3    H126215   2.808   5.330  10.485 -1.0813 -1.0298  0.5388
 1600TIP3    H226216   2.722   5.400  10.588 -1.4266 -3.2208  1.8023
 1601TIP3   OH226217   4.679   0.965   3.709  0.0571 -0.7093  0.0953
 1601TIP3    H126218   4.736   0.977   3.632 -0.8082 -1.1973 -0.6308
 1601TIP3    H226219   4.733   0.916   3.771  0.8986  0.0186 -0.0347
 1602TIP3   OH226220   5.306   5.750  16.686 -0.4727 -0.1796 -0.6907
 1602TIP3    H126221   5.351   5.712  16.611 -0.1840  1.1170 -1.2081
 1602TIP3    H226222   5.235   5.801  16.647 -1.1412 -0.5620  0.0043
 1603TIP3   OH226223   2.905   1.940  12.338  0.7097  1.5280  0.0653
 1603TIP3    H126224   2.869   1.936  12.427 -0.7652 -2.1812 -0.4984
 1603TIP3    H226225   2.975   1.874  12.339 -0.2249  0.4339 -1.7752
 1604TIP3   OH226226   2.963   4.785   0.830  0.1605  0.0875  0.6797
 1604TIP3    H126227   2.882   4.779   0.780 -0.9570  0.9882  2.2829
 1604TIP3    H226228   2.937   4.760   0.919  2.2922 -2.5644  0.6675
 1605TIP3   OH226229   2.068   3.501   2.062  0.9644  0.0061  0.5630
 1605TIP3    H126230   1.981   3.492   2.024  2.1152  0.1679 -2.3696
 1605TIP3    H226231   2.126   3.515   1.987  3.1590  2.8378  2.5619
 1606TIP3   OH226232   3.748   1.374  16.226 -0.0262 -0.1990  0.2032
 1606TIP3    H126233   3.697   1.325  16.161 -0.6172 -1.2253  1.4176
 1606TIP3    H226234   3.708   1.352  16.310  0.9849  0.7931  0.9731
 1607TIP3   OH226235   0.048   6.405  10.888 -0.4889 -0.1382  0.0420
 1607TIP3    H126236   0.073   6.417  10.796 -1.1954  0.2558 -0.1027
 1607TIP3    H226237  -0.006   6.326  10.888 -0.7749  0.0600  0.0703
 1608TIP3   OH226238   5.307   3.024  11.458 -0.4627 -0.0006  0.0322
 1608TIP3    H126239   5.359   3.088  11.410 -0.1657 -0.9240 -0.9283
 1608TIP3    H226240   5.359   2.944  11.455 -1.0962 -0.4550  0.6847
 1609TIP3   OH226241   2.075   0.627  11.450  0.5758 -0.3239 -0.1796
 1609TIP3    H126242   2.134   0.631  11.526  1.1424 -1.2544 -0.5551
 1609TIP3    H226243   1.989   0.648  11.486  1.0360  0.5077  0.4820
 1610TIP3   OH226244   6.281   6.298  16.569  0.6448  0.4952 -0.3367
 1610TIP3    H126245   6.242   6.356  16.634 -0.1106  0.8105 -1.0687
 1610TIP3    H226246   6.208   6.245  16.536  1.1795 -0.3117 -0.2763
 1611TIP3   OH226247   0.898   5.733   4.783  0.0093  0.2393 -0.3020
 1611TIP3    H126248   0.949   5.684   4.847 -0.3964  0.4916  0.2240
 1611TIP3    H226249   0.808   5.730   4.816 -0.1865  0.4931 -0.7872
 1612TIP3   OH226250   1.928   6.361   4.134 -0.2985  0.4475  0.2764
 1612TIP3    H126251   1.961   6.313   4.210 -0.3268  0.3262  0.2125
 1612TIP3    H226252   1.850   6.407   4.166  0.0474  0.9012  0.4814
 1613TIP3   OH226253   2.827   0.213   1.940  0.1774 -0.0759  0.1841
 1613TIP3    H126254   2.913   0.176   1.923 -0.0075 -0.1195 -0.6885
 1613TIP3    H226255   2.777   0.140   1.978 -0.3489 -0.9629 -2.0085
 1614TIP3   OH226256   0.934   1.644   1.243  0.3801 -0.3600  0.0758
 1614TIP3    H126257   0.869   1.706   1.273 -0.2688 -1.1019  0.2314
 1614TIP3    H226258   0.998   1.697   1.196  0.2369  0.5170  0.8413
 1615TIP3   OH226259   4.445   5.318   2.911  0.1291 -0.5107  0.2384
 1615TIP3    H126260   4.501   5.280   2.979 -0.4817 -1.3576  0.2910
 1615TIP3    H226261   4.358   5.286   2.932 -0.4828  1.2147  0.4666
 1616TIP3   OH226262   0.840   4.516  13.397  0.2946  0.3539 -0.2922
 1616TIP3    H126263   0.812   4.425  13.383 -1.1114  0.3757  1.8313
 1616TIP3    H226264   0.882   4.541  13.315 -0.4703 -1.7779 -1.4256
 1617TIP3   OH226265   6.189   6.279   4.383 -0.0859 -0.5553  0.6874
 1617TIP3    H126266   6.259   6.228   4.424  0.2983  1.0835  2.2103
 1617TIP3    H226267   6.234   6.354   4.344 -1.0018  0.9256  2.3418
 1618TIP3   OH226268   4.820   2.874   1.507  0.5321 -0.4949 -0.2877
 1618TIP3    H126269   4.813   2.817   1.583 -0.9790 -2.0842 -1.5553
 1618TIP3    H226270   4.823   2.963   1.544  1.8183 -1.2884  1.6707
 1619TIP3   OH226271   5.276   4.346  15.536  0.6062  0.2549  0.7199
 1619TIP3    H126272   5.343   4.339  15.469  1.2426  0.5746  1.3127
 1619TIP3    H226273   5.194   4.329  15.490  0.9642  1.1658 -0.2871
 1620TIP3   OH226274   5.170   3.051   4.465  0.0940 -0.0778  0.1736
 1620TIP3    H126275   5.159   2.978   4.403 -1.0582 -1.3812  1.8282
 1620TIP3    H226276   5.116   3.027   4.540  2.8569  0.5223  2.5232
 1621TIP3   OH226277   3.610   6.586  12.833  0.1568  0.0475  0.2965
 1621TIP3    H126278   3.609   6.490  12.832  0.0669  0.0216  1.4561
 1621TIP3    H226279   3.518   6.611  12.843  0.0994  0.2749 -0.7807
 1622TIP3   OH226280   0.686   3.661  14.904  0.0575 -0.3566  0.1114
 1622TIP3    H126281   0.665   3.569  14.918 -0.8273 -0.3526 -0.9810
 1622TIP3    H226282   0.710   3.666  14.811  0.6856  0.4167  0.3012
 1623TIP3   OH226283   1.733   5.606   5.860  0.2438  0.2195 -0.2497
 1623TIP3    H126284   1.826   5.596   5.878  0.2648 -2.6714 -1.3939
 1623TIP3    H226285   1.730   5.662   5.782  1.0623 -0.0423 -0.4846
 1624TIP3   OH226286   5.787   0.152   5.457 -0.1135  0.3062  0.5363
 1624TIP3    H126287   5.772   0.199   5.375  0.0461 -0.0448  0.3096
 1624TIP3    H226288   5.881   0.138   5.461 -0.1792 -0.1475  0.5225
 1625TIP3   OH226289   1.077   1.180   3.466  0.0647 -0.1346  0.3846
 1625TIP3    H126290   1.019   1.231   3.410 -0.6257 -1.2585  0.0612
 1625TIP3    H226291   1.119   1.117   3.407 -0.8092 -1.4532  1.1306
 1626TIP3   OH226292   5.262   5.728  12.229  0.0125  0.1889 -0.2386
 1626TIP3    H126293   5.260   5.660  12.296 -0.2159  1.2893  0.9100
 1626TIP3    H226294   5.288   5.682  12.149 -0.1902 -1.2433  0.4862
 1627TIP3   OH226295   6.478   2.779  14.264 -0.2229 -0.0290  0.1357
 1627TIP3    H126296   6.494   2.686  14.245 -0.3805  0.1295 -0.8546
 1627TIP3    H226297   6.387   2.792  14.241 -0.5226  0.1288  1.3524
 1628TIP3   OH226298   6.498   3.418  17.299  0.2899 -0.1469  0.6558
 1628TIP3    H126299   6.571   3.409  17.238  1.5210 -2.0611  2.2825
 1628TIP3    H226300   6.520   3.495  17.352  0.2156  0.3208  0.0219
 1629TIP3   OH226301   4.533   5.119   4.167 -0.4775  0.3773 -0.2156
 1629TIP3    H126302   4.506   5.116   4.259  1.3156 -1.0825  0.3514
 1629TIP3    H226303   4.587   5.198   4.160 -1.0623  0.7848 -0.1659
 1630TIP3   OH226304   0.530   6.600  12.998  0.2657 -0.0917 -0.1377
 1630TIP3    H126305   0.462   6.538  13.024  0.5763  0.3763  1.9747
 1630TIP3    H226306   0.594   6.547  12.951 -0.3259 -1.0144  0.0743
 1631TIP3   OH226307   0.119   6.234  11.978 -0.1237  0.4451 -0.3569
 1631TIP3    H126308   0.088   6.271  12.060  0.6114  2.3907 -0.8990
 1631TIP3    H226309   0.214   6.232  11.986  0.0769  2.1524 -1.7011
 1632TIP3   OH226310   3.688   1.761  11.725 -0.4460  0.6404  0.5350
 1632TIP3    H126311   3.640   1.721  11.797 -0.1359 -1.3638 -0.3249
 1632TIP3    H226312   3.737   1.690  11.685  0.8401  2.0493 -0.5403
 1633TIP3   OH226313   5.969   6.696   5.243 -0.3339  0.1178  0.0717
 1633TIP3    H126314   6.027   6.622   5.228 -1.0322 -0.2544 -0.8536
 1633TIP3    H226315   5.952   6.694   5.338  0.0566 -0.5833  0.1345
 1634TIP3   OH226316   0.792   4.403  15.205 -0.6975  0.1246  0.0998
 1634TIP3    H126317   0.790   4.497  15.222 -0.6703  0.8246 -3.0584
 1634TIP3    H226318   0.731   4.365  15.269  0.9278  1.9012  2.9179
 1635TIP3   OH226319   6.003   5.978   2.939 -0.2174  0.0693 -0.5442
 1635TIP3    H126320   5.972   5.945   2.854  0.7369 -0.7545 -0.5858
 1635TIP3    H226321   5.940   5.944   3.002 -1.0859  0.9019 -0.9347
 1636TIP3   OH226322   0.790   1.513  14.762  0.5997 -0.0753  0.6193
 1636TIP3    H126323   0.816   1.448  14.827 -1.6983 -1.3533  0.3854
 1636TIP3    H226324   0.849   1.497  14.688  1.2737 -0.6256  1.2523
 1637TIP3   OH226325   5.367   0.457   3.239 -0.1367  0.0626 -0.3365
 1637TIP3    H126326   5.435   0.410   3.286 -1.4053 -1.0258  0.4708
 1637TIP3    H226327   5.400   0.463   3.149  0.2632 -1.9930 -0.3590
 1638TIP3   OH226328   5.508   2.114   4.846 -0.0944 -0.6806  0.0956
 1638TIP3    H126329   5.442   2.050   4.822  0.8990 -1.9318  0.5650
 1638TIP3    H226330   5.464   2.173   4.906 -0.8863 -1.2521  0.0942
 1639TIP3   OH226331   6.667   4.746  17.327 -0.1359 -0.5378 -0.0602
 1639TIP3    H126332   6.716   4.668  17.303  1.4625  0.0302  1.1375
 1639TIP3    H226333   6.697   4.814  17.266  0.0361 -0.3643  0.2129
 1640TIP3   OH226334   2.147   4.654   2.090 -0.1286  0.1845  0.5122
 1640TIP3    H126335   2.204   4.576   2.086  0.6771  0.7909 -0.4894
 1640TIP3    H226336   2.198   4.722   2.045 -0.5376  1.4778  1.9356
 1641TIP3   OH226337   0.392   0.660  14.186 -0.0465 -0.2450  0.1529
 1641TIP3    H126338   0.346   0.729  14.234 -1.2022 -0.3924 -0.6993
 1641TIP3    H226339   0.456   0.626  14.248  0.3817  1.4256  0.6762
 1642TIP3   OH226340   0.177   4.410  14.055  0.4774 -0.2484 -0.2232
 1642TIP3    H126341   0.091   4.383  14.025 -1.2783  1.1635  2.9756
 1642TIP3    H226342   0.181   4.503  14.037  1.1845 -0.2392 -0.0548
 1643TIP3   OH226343   1.148   6.051  13.068 -0.3353  0.4271 -0.1108
 1643TIP3    H126344   1.166   5.974  13.122 -0.7612  0.2642 -0.1973
 1643TIP3    H226345   1.223   6.056  13.009 -0.1103  0.3135  0.1587
 1644TIP3   OH226346   5.009   1.466  14.821 -0.1236  0.3395  0.4205
 1644TIP3    H126347   4.940   1.400  14.819  1.3230 -1.2230 -0.2789
 1644TIP3    H226348   4.989   1.520  14.898 -0.8436 -1.4749  1.5603
 1645TIP3   OH226349   5.438   1.219  12.027 -0.3337  0.1968  0.6486
 1645TIP3    H126350   5.378   1.194  11.956 -0.3213  0.9432  0.3676
 1645TIP3    H226351   5.479   1.299  11.997 -0.0177  0.2989  1.3313
 1646TIP3   OH226352   6.473   3.138   4.047 -0.2598 -0.2260  0.1562
 1646TIP3    H126353   6.408   3.205   4.069 -0.3468  0.4293 -1.8790
 1646TIP3    H226354   6.452   3.064   4.105 -1.9888  0.4351  0.4409
 1647TIP3   OH226355   2.920   0.667  15.511 -0.2450 -0.1079  0.2490
 1647TIP3    H126356   2.945   0.746  15.558  0.5926 -0.9038  1.1985
 1647TIP3    H226357   2.944   0.684  15.420  0.7473  0.3918  0.5970
 1648TIP3   OH226358   2.408   4.164  10.590 -0.4485 -0.4252  0.1640
 1648TIP3    H126359   2.490   4.122  10.619 -0.7515 -0.3814  1.1271
 1648TIP3    H226360   2.435   4.223  10.520  0.4088 -0.1686  0.6924
 1649TIP3   OH226361   3.686   6.439  14.869 -0.1579 -0.5980 -0.6363
 1649TIP3    H126362   3.714   6.459  14.780 -0.4448  1.0856 -0.3798
 1649TIP3    H226363   3.675   6.525  14.911  0.6854 -1.3476  1.2521
 1650TIP3   OH226364   6.188   4.972   3.720 -0.3865 -0.0074  0.0656
 1650TIP3    H126365   6.135   4.910   3.671 -0.3228  0.3992 -0.5357
 1650TIP3    H226366   6.200   4.932   3.806 -1.5579 -0.1549  0.1686
 1651TIP3   OH226367   4.242   5.146   0.336 -0.5930  0.0898 -0.1087
 1651TIP3    H126368   4.291   5.097   0.402  0.1325 -0.8522 -1.2945
 1651TIP3    H226369   4.303   5.212   0.304 -0.1609 -0.8649 -1.3480
 1652TIP3   OH226370   2.466   5.302  12.737 -0.1767  0.3129  0.4440
 1652TIP3    H126371   2.439   5.321  12.647 -2.1910 -0.0593  0.9108
 1652TIP3    H226372   2.439   5.211  12.751  0.1080  0.3684  1.4209
 1653TIP3   OH226373   0.951   5.538   5.668 -0.5832  0.5634  0.5630
 1653TIP3    H126374   0.862   5.546   5.634 -0.5104 -0.2783  0.1713
 1653TIP3    H226375   0.976   5.628   5.689 -1.4217  0.8394  0.4185
 1654TIP3   OH226376   1.051   6.159  11.390 -0.6647  0.8688 -0.5564
 1654TIP3    H126377   1.046   6.235  11.447  0.1974  1.6348 -1.4637
 1654TIP3    H226378   1.143   6.130  11.396 -1.3287 -1.1556  1.0641
 1655TIP3   OH226379   5.079   4.698   5.537  0.1070 -0.0515 -0.3759
 1655TIP3    H126380   5.072   4.603   5.529  1.5568 -0.1570 -0.6472
 1655TIP3    H226381   5.161   4.712   5.586 -0.1684  1.0532 -0.2023
 1656TIP3   OH226382   5.570   5.314   2.716  0.1001  0.1431  0.2426
 1656TIP3    H126383   5.594   5.228   2.681  1.2813  0.6582 -0.2786
 1656TIP3    H226384   5.549   5.366   2.639 -2.4776 -0.1621  0.6486
 1657TIP3   OH226385   3.417   3.604   5.050  0.1647  0.0197  0.4075
 1657TIP3    H126386   3.463   3.624   5.132 -0.1385  0.5204  0.4575
 1657TIP3    H226387   3.382   3.688   5.021  1.2353  0.0803 -0.8338
 1658TIP3   OH226388   4.622   4.063   1.842 -0.1162 -0.5018  0.1504
 1658TIP3    H126389   4.599   4.002   1.773  1.8717  0.0536 -1.0959
 1658TIP3    H226390   4.718   4.056   1.849 -0.1063  0.6132  1.7417
 1659TIP3   OH226391   5.738   5.795  16.695 -0.2179 -0.7275  0.2663
 1659TIP3    H126392   5.656   5.815  16.649 -1.2355 -0.7378  1.9909
 1659TIP3    H226393   5.777   5.725  16.644 -0.6181  0.1361 -1.3268
 1660TIP3   OH226394   5.910   2.937  14.366  0.2861 -0.2305  0.2135
 1660TIP3    H126395   5.818   2.960  14.383 -0.1958 -1.2457 -0.8526
 1660TIP3    H226396   5.942   3.007  14.310  0.3562  0.4515  1.0918
 1661TIP3   OH226397   4.349   2.586   5.762  0.2974 -0.2569  0.0848
 1661TIP3    H126398   4.396   2.658   5.803 -1.1506  0.2056  1.0323
 1661TIP3    H226399   4.310   2.539   5.835 -1.2285 -0.2209 -0.6643
 1662TIP3   OH226400   5.045   6.525  13.332  0.0232 -0.1461 -0.4635
 1662TIP3    H126401   5.026   6.446  13.281 -1.6065  0.2330 -0.5087
 1662TIP3    H226402   5.123   6.503  13.382 -1.2108 -2.3396  0.6292
 1663TIP3   OH226403   3.727   2.468  14.621  0.4259  0.4811 -0.5815
 1663TIP3    H126404   3.774   2.451  14.703  2.0069  0.9940 -1.3433
 1663TIP3    H226405   3.720   2.382  14.580 -2.3163 -0.1750  1.0051
 1664TIP3   OH226406   2.131   6.048  13.021  0.0616 -0.3853 -0.0117
 1664TIP3    H126407   2.120   5.953  13.031  0.9926 -0.4220  0.9146
 1664TIP3    H226408   2.167   6.076  13.105 -2.7481  1.2451  0.7817
 1665TIP3   OH226409   0.166   3.017   4.235  0.6820 -0.0200 -0.0924
 1665TIP3    H126410   0.201   2.929   4.222 -0.1863 -0.2593 -0.9686
 1665TIP3    H226411   0.124   3.039   4.151  1.9598  1.7363 -0.3390
 1666TIP3   OH226412   2.956   4.592   1.137 -0.1140  0.0423  0.3388
 1666TIP3    H126413   2.973   4.682   1.165 -0.8359  0.0019  0.9379
 1666TIP3    H226414   3.037   4.544   1.157  0.6159  0.7378 -0.8369
 1667TIP3   OH226415   1.518   0.476   5.305 -0.3356 -0.4756  0.0696
 1667TIP3    H126416   1.529   0.525   5.387 -1.1207 -0.1841  0.0200
 1667TIP3    H226417   1.457   0.406   5.327  1.5167 -2.0603  0.3694
 1668TIP3   OH226418   5.464   2.324  16.260  0.0828  0.0758  0.5866
 1668TIP3    H126419   5.529   2.259  16.232  0.6662 -0.0618  2.1860
 1668TIP3    H226420   5.492   2.405  16.218  2.0780  0.3167  2.2417
 1669TIP3   OH226421   5.016   4.872  16.527  0.0396  0.0582 -0.0552
 1669TIP3    H126422   5.075   4.914  16.589  0.6359  1.7166 -1.6381
 1669TIP3    H226423   5.027   4.923  16.446 -3.8959  0.7860 -0.3425
 1670TIP3   OH226424   3.738   3.877   5.122 -0.1145  0.6083 -0.1406
 1670TIP3    H126425   3.801   3.940   5.088  0.9905 -0.4223 -0.0657
 1670TIP3    H226426   3.791   3.812   5.167 -1.1732 -0.6202 -0.5925
 1671TIP3   OH226427   6.176   1.770   5.379 -0.5448  0.0046 -0.2538
 1671TIP3    H126428   6.221   1.846   5.417 -2.2850  1.7399 -1.4627
 1671TIP3    H226429   6.225   1.695   5.412  2.2854  1.6587 -0.2922
 1672TIP3   OH226430   2.156   5.682  17.025 -0.7927 -0.1983  0.3799
 1672TIP3    H126431   2.215   5.628  17.078  0.1018  0.4000  0.0312
 1672TIP3    H226432   2.148   5.634  16.942  1.0896  0.7928 -0.4471
 1673TIP3   OH226433   0.138   5.909   0.107 -0.1878 -0.0087 -0.6467
 1673TIP3    H126434   0.181   5.985   0.146  0.5101 -1.3159  1.2310
 1673TIP3    H226435   0.146   5.924   0.012 -1.3365  2.9143 -0.3926
 1674TIP3   OH226436   0.609   5.182  15.070 -0.8838  0.0042 -0.3432
 1674TIP3    H126437   0.628   5.272  15.042  0.3814 -0.1337  0.0312
 1674TIP3    H226438   0.663   5.127  15.014 -1.9548 -0.5776 -0.8429
 1675TIP3   OH226439   4.375   3.690  13.270 -0.1784 -0.4076  0.0957
 1675TIP3    H126440   4.396   3.597  13.262  0.9292 -0.1852  0.2370
 1675TIP3    H226441   4.408   3.729  13.189  0.1502 -0.0038  0.4234
 1676TIP3   OH226442   0.769   6.023  15.084 -0.0888 -0.1061 -0.7692
 1676TIP3    H126443   0.828   5.949  15.070  0.1470  0.2999 -2.1515
 1676TIP3    H226444   0.827   6.098  15.099 -0.3303 -0.3368  1.7305
 1677TIP3   OH226445   1.896   4.311   5.135  0.1639 -0.2721 -0.0425
 1677TIP3    H126446   1.879   4.399   5.169  1.1625 -0.1001  0.0334
 1677TIP3    H226447   1.820   4.292   5.080 -0.1349  0.5802  0.0572
 1678TIP3   OH226448   0.923   3.377   0.969 -0.1270  0.0705 -0.1759
 1678TIP3    H126449   1.004   3.425   0.986 -0.6281  1.7223 -2.0997
 1678TIP3    H226450   0.932   3.297   1.021  3.3695 -0.5347 -1.4461
 1679TIP3   OH226451   4.291   5.674   3.613 -0.0771  0.3836  0.2190
 1679TIP3    H126452   4.233   5.749   3.617  0.4087  0.7957 -0.2637
 1679TIP3    H226453   4.350   5.685   3.687 -1.4388 -0.7583  1.5358
 1680TIP3   OH226454   4.596   4.421   2.558 -0.0794  0.0430 -0.2218
 1680TIP3    H126455   4.542   4.343   2.569  1.3948 -1.1043 -0.7609
 1680TIP3    H226456   4.549   4.490   2.604 -0.7634 -1.4602  1.4501
 1681TIP3   OH226457   2.563   6.498  17.199  0.6683 -0.4486 -0.1803
 1681TIP3    H126458   2.564   6.420  17.143  1.1871 -0.7067  0.1747
 1681TIP3    H226459   2.488   6.484  17.257 -0.2364  0.1017 -1.1801
 1682TIP3   OH226460   5.702   2.633   4.846 -0.0819  0.6769 -0.1039
 1682TIP3    H126461   5.732   2.562   4.790 -0.3284  0.6935 -0.2594
 1682TIP3    H226462   5.682   2.591   4.930 -2.2865  0.1767 -0.8295
 1683TIP3   OH226463   5.427   3.275   5.405 -0.0184 -0.5676  0.5266
 1683TIP3    H126464   5.420   3.251   5.497  1.2202  0.8530  1.0198
 1683TIP3    H226465   5.482   3.207   5.366  0.7029 -0.3675  1.1778
 1684TIP3   OH226466   4.156   5.810   2.341 -0.2908  0.5774  0.1079
 1684TIP3    H126467   4.098   5.736   2.356 -1.0953  1.3611  0.9987
 1684TIP3    H226468   4.185   5.836   2.429 -0.1991  1.4527 -0.1669
 1685TIP3   OH226469   2.172   2.847  15.034 -0.1198 -0.1706 -0.1419
 1685TIP3    H126470   2.142   2.937  15.022 -1.6931 -0.6663 -0.1153
 1685TIP3    H226471   2.100   2.793  15.000  0.8893 -1.4168 -0.3551
 1686TIP3   OH226472   4.264   1.475   5.885 -0.4072  0.1018  0.8699
 1686TIP3    H126473   4.245   1.409   5.817 -0.0109  1.0036 -0.1420
 1686TIP3    H226474   4.241   1.431   5.967 -0.0076 -1.3555  0.2413
 1687TIP3   OH226475   4.947   2.054  16.943  0.0521  0.4923  0.1072
 1687TIP3    H126476   5.022   2.007  16.906 -0.4818 -0.5398  0.3026
 1687TIP3    H226477   4.881   1.986  16.957 -0.2935  1.1079  1.5667
 1688TIP3   OH226478   6.686   4.068   6.481  0.4804  0.5167  0.0797
 1688TIP3    H126479   6.638   4.099   6.558  0.5912 -0.3258  0.5023
 1688TIP3    H226480   6.774   4.049   6.513  0.4854  0.0195 -0.2242
 1689TIP3   OH226481   4.537   0.886  11.428  0.8276 -0.1187 -0.2556
 1689TIP3    H126482   4.612   0.929  11.468  1.0618 -1.6560  1.0281
 1689TIP3    H226483   4.501   0.831  11.497 -0.4585 -0.7163 -1.3614
 1690TIP3   OH226484   3.953   5.250   1.641  0.1694  0.1407  0.0227
 1690TIP3    H126485   3.870   5.254   1.689  0.0707 -0.7780 -0.0429
 1690TIP3    H226486   3.971   5.340   1.615 -0.7999  0.3511  0.0538
 1691TIP3   OH226487   2.328   5.119  15.692  0.3904 -0.7094 -0.3811
 1691TIP3    H126488   2.335   5.079  15.779 -1.6241 -0.0394  0.1423
 1691TIP3    H226489   2.282   5.053  15.639  1.4712 -1.0522 -0.9210
 1692TIP3   OH226490   4.777   4.376  15.915  0.5721  0.6359  0.5574
 1692TIP3    H126491   4.831   4.302  15.888 -0.5512 -0.6651  1.7460
 1692TIP3    H226492   4.688   4.350  15.894  0.1879  1.8735  0.5504
 1693TIP3   OH226493   1.323   4.907  15.567  0.3168  0.3457  0.4586
 1693TIP3    H126494   1.259   4.955  15.515 -1.5758 -2.8114 -0.3860
 1693TIP3    H226495   1.280   4.893  15.651  0.4719 -0.4709  0.4178
 1694TIP3   OH226496   4.760   2.531  14.029 -0.6564 -0.3805  0.1554
 1694TIP3    H126497   4.735   2.479  14.106 -1.7566 -0.7558 -0.4413
 1694TIP3    H226498   4.811   2.470  13.975  0.0868 -0.1269  0.5531
 1695TIP3   OH226499   4.150   3.844  13.807  0.3311 -0.2393  0.3759
 1695TIP3    H126500   4.239   3.856  13.841  1.0666  1.9451 -1.9881
 1695TIP3    H226501   4.161   3.847  13.712 -2.0275 -2.3915 -0.0474
 1696TIP3   OH226502   2.329   2.221   1.943  0.4167 -0.0263  1.1402
 1696TIP3    H126503   2.248   2.270   1.930 -0.1022 -1.3461 -1.2286
 1696TIP3    H226504   2.399   2.282   1.919 -0.1842 -0.1807 -1.2497
 1697TIP3   OH226505   1.618   0.161   3.319  0.1913  0.1681 -0.0469
 1697TIP3    H126506   1.568   0.084   3.345  0.4206 -0.2360 -0.7849
 1697TIP3    H226507   1.551   0.222   3.286 -0.0426  0.4861  0.9720
 1698TIP3   OH226508   1.703   6.573  12.869 -0.6049 -0.1129  0.0967
 1698TIP3    H126509   1.788   6.613  12.853 -0.7865  0.8559  1.4859
 1698TIP3    H226510   1.670   6.553  12.781  0.6462  0.3270 -0.5003
 1699TIP3   OH226511   4.664   6.653  16.701  0.4412 -0.4788  0.4816
 1699TIP3    H126512   4.705   6.613  16.625  0.2581  0.0525  0.0992
 1699TIP3    H226513   4.723   6.631  16.774  1.8543  0.9268 -0.1745
 1700TIP3   OH226514   6.654   5.318  13.750 -0.4158 -0.0593  0.5638
 1700TIP3    H126515   6.674   5.395  13.805  1.4132  1.9064 -2.5194
 1700TIP3    H226516   6.736   5.268  13.750 -0.0024  0.5644 -1.1476
 1701TIP3   OH226517   6.726   0.362  12.628  0.0904 -0.0716  0.1475
 1701TIP3    H126518   6.689   0.433  12.680 -0.2859 -0.7050  0.7400
 1701TIP3    H226519   6.673   0.285  12.649  0.8333 -0.6590 -0.0809
 1702TIP3   OH226520   2.482   5.680  13.709  0.6870 -0.6368  0.2619
 1702TIP3    H126521   2.557   5.655  13.761  2.1653 -2.5571 -2.5300
 1702TIP3    H226522   2.497   5.641  13.623 -2.2152  1.1447 -1.2666
 1703TIP3   OH226523   4.436   0.021   4.710 -0.4883 -0.2666  0.0933
 1703TIP3    H126524   4.349   0.045   4.678 -0.9535 -0.3608  1.2266
 1703TIP3    H226525   4.432   0.039   4.804  0.4979 -0.9024  0.2693
 1704TIP3   OH226526   1.486   1.077  11.733  0.0760  0.3726  0.7418
 1704TIP3    H126527   1.424   1.045  11.667  0.9566 -2.0338  0.9809
 1704TIP3    H226528   1.432   1.094  11.810 -0.7114  1.4766 -0.0247
 1705TIP3   OH226529   0.966   4.125  16.493  0.2520  0.0453  0.4279
 1705TIP3    H126530   0.926   4.212  16.488  1.0431  0.4998  1.6092
 1705TIP3    H226531   0.959   4.090  16.405 -0.4717  1.1377  0.0392
 1706TIP3   OH226532   4.858   1.214   0.180  0.5496 -0.2175 -0.4371
 1706TIP3    H126533   4.876   1.235   0.089  2.3495 -1.0630 -0.3189
 1706TIP3    H226534   4.868   1.119   0.185 -2.0110 -0.5324  0.1536
 1707TIP3   OH226535   0.349   1.547   0.236 -0.4745  0.2890  0.2752
 1707TIP3    H126536   0.395   1.630   0.254 -0.8058  0.1271  2.1154
 1707TIP3    H226537   0.304   1.562   0.153 -0.4898  1.9438  0.5450
 1708TIP3   OH226538   4.797   4.424   0.582 -0.2631 -0.0921  0.3559
 1708TIP3    H126539   4.729   4.367   0.618 -0.7793  0.3234  0.0590
 1708TIP3    H226540   4.871   4.414   0.641 -0.6856 -0.3299  0.8535
 1709TIP3   OH226541   0.474   0.494   4.917 -0.4844  0.6312 -0.4364
 1709TIP3    H126542   0.517   0.415   4.948 -0.7773  0.5170 -0.3111
 1709TIP3    H226543   0.428   0.528   4.994 -1.4420  0.1962 -0.7936
 1710TIP3   OH226544   5.229   2.914  15.805 -0.1958 -0.2774  0.5710
 1710TIP3    H126545   5.139   2.945  15.798  0.0228  0.5880  1.3393
 1710TIP3    H226546   5.227   2.850  15.876 -0.2940 -0.6200  0.2606
 1711TIP3   OH226547   0.008   6.025   0.518 -0.3482 -0.0485  0.0954
 1711TIP3    H126548   0.005   5.993   0.428  0.8369 -1.8041  0.6005
 1711TIP3    H226549   0.101   6.043   0.534 -0.6894  1.3169  0.6311
 1712TIP3   OH226550   4.236   3.144  16.901  0.0377  0.2333 -0.3321
 1712TIP3    H126551   4.301   3.198  16.857 -0.8905  0.6571 -1.2335
 1712TIP3    H226552   4.237   3.061  16.854 -0.9487  0.6836 -1.2021
 1713TIP3   OH226553   3.132   6.276  15.831 -0.1383 -0.0985  0.2476
 1713TIP3    H126554   3.187   6.271  15.752 -1.5089  0.0555 -0.7557
 1713TIP3    H226555   3.113   6.369  15.842 -1.2051 -0.2555 -0.1564
 1714TIP3   OH226556   3.773   3.759  15.021  0.6777  0.0933 -0.8418
 1714TIP3    H126557   3.854   3.718  15.052 -0.2925 -2.7903 -1.8415
 1714TIP3    H226558   3.711   3.746  15.092  0.5512  0.5387 -0.8677
 1715TIP3   OH226559   1.693   1.593   6.062  0.1357  0.5374  0.4211
 1715TIP3    H126560   1.601   1.615   6.078  0.1931  0.3736  1.0060
 1715TIP3    H226561   1.729   1.575   6.149  0.7462  0.6883  0.2042
 1716TIP3   OH226562   2.190   1.656  15.917 -0.5623  0.6007 -0.1848
 1716TIP3    H126563   2.181   1.590  15.986  0.9243  0.1971 -0.3549
 1716TIP3    H226564   2.232   1.731  15.960  0.9073  0.1280 -0.7692
 1717TIP3   OH226565   3.916   4.933  16.772 -0.2157  0.0489 -0.2658
 1717TIP3    H126566   3.974   4.964  16.842 -0.7329 -2.4678  1.3995
 1717TIP3    H226567   3.830   4.967  16.797  0.0314  1.4816 -1.2535
 1718TIP3   OH226568   4.183   0.764  13.967 -0.3596  0.3946 -0.2525
 1718TIP3    H126569   4.175   0.674  13.936  0.1309  0.4880 -0.6518
 1718TIP3    H226570   4.135   0.816  13.903 -0.2252  0.4724 -0.2892
 1719TIP3   OH226571   0.922   4.816   2.221  0.0310 -0.0516 -0.4231
 1719TIP3    H126572   0.827   4.821   2.228  0.1292  0.2093  1.1345
 1719TIP3    H226573   0.948   4.901   2.186 -0.2117  0.5434  0.7792
 1720TIP3   OH226574   0.700   1.321   0.438 -0.4757  0.4539 -0.0505
 1720TIP3    H126575   0.731   1.411   0.429 -1.1216  0.5786 -1.4392
 1720TIP3    H226576   0.625   1.316   0.378 -0.0118 -1.2071 -0.5433
 1721TIP3   OH226577   3.411   0.030   2.415 -0.4532  0.8983  0.9712
 1721TIP3    H126578   3.442  -0.060   2.402 -2.6541  0.1559  0.4380
 1721TIP3    H226579   3.418   0.044   2.509  0.1858  0.2875  1.0252
 1722TIP3   OH226580   0.178   2.288  15.028 -0.3117  0.1409  0.1978
 1722TIP3    H126581   0.258   2.330  14.998  0.2128 -1.9455 -1.5268
 1722TIP3    H226582   0.143   2.244  14.951 -2.5087  0.0208  1.1843
 1723TIP3   OH226583   3.404   0.277  12.643 -0.1954 -0.9204 -0.1399
 1723TIP3    H126584   3.314   0.255  12.620  0.2141 -1.1033 -1.6468
 1723TIP3    H226585   3.456   0.250  12.568  1.3214 -2.1277  1.2608
 1724TIP3   OH226586   3.806   0.042   3.028 -0.0708  0.1882  0.3934
 1724TIP3    H126587   3.871   0.111   3.045  0.5088 -0.7338  2.2109
 1724TIP3    H226588   3.724   0.078   3.061 -0.3195  0.9585 -0.9787
 1725TIP3   OH226589   6.211   5.212   3.564 -0.1725 -0.3597  0.1466
 1725TIP3    H126590   6.285   5.256   3.522 -1.0589  3.0682  1.8266
 1725TIP3    H226591   6.252   5.148   3.623  1.4369  0.5898  0.1452
 1726TIP3   OH226592   4.961   3.980  17.213  0.0308  0.3176  0.1533
 1726TIP3    H126593   5.000   3.956  17.129 -0.7098 -2.3176  0.4685
 1726TIP3    H226594   5.022   3.946  17.278 -2.0010 -2.8950  0.6356
 1727TIP3   OH226595   6.241   6.645   1.968  0.2903  0.4251  0.1169
 1727TIP3    H126596   6.295   6.638   1.890 -2.0043 -3.4696 -1.4340
 1727TIP3    H226597   6.281   6.585   2.031 -0.4933 -0.2100  0.0406
 1728TIP3   OH226598   3.659   1.060   1.637  0.0287  0.0118 -0.3060
 1728TIP3    H126599   3.739   1.112   1.646  0.5340 -0.6223 -1.0284
 1728TIP3    H226600   3.674   0.982   1.689  0.9919 -1.3626 -2.4967
 1729TIP3   OH226601   3.839   5.677  17.290 -0.0491 -0.4432  0.6405
 1729TIP3    H126602   3.763   5.657  17.344 -1.1898 -0.0559 -0.7435
 1729TIP3    H226603   3.843   5.772  17.288  1.1867 -0.4468  1.6142
 1730TIP3   OH226604   6.020   6.156   6.504  0.2002  0.9261 -0.2720
 1730TIP3    H126605   5.975   6.229   6.461 -1.4459  0.2845  0.3069
 1730TIP3    H226606   5.953   6.114   6.557  1.9282  1.1630  2.2961
 1731TIP3   OH226607   3.835   2.932  13.371  0.4327  0.1897  0.4339
 1731TIP3    H126608   3.847   2.909  13.279  1.4353  2.3673 -0.0594
 1731TIP3    H226609   3.741   2.948  13.380  0.3691  0.2684 -0.3013
 1732TIP3   OH226610   6.474   5.368  13.224  0.0124 -0.3484  0.0140
 1732TIP3    H126611   6.510   5.289  13.264 -1.0687 -1.0551 -0.3674
 1732TIP3    H226612   6.413   5.336  13.158 -1.4234  0.7750  0.7190
 1733TIP3   OH226613   5.737   4.569   3.645 -0.0033  0.7088  0.3141
 1733TIP3    H126614   5.713   4.654   3.607  0.1463  0.6619  0.1106
 1733TIP3    H226615   5.736   4.584   3.739 -1.9614  0.4184  0.3853
 1734TIP3   OH226616   3.795   3.518   3.875 -0.6302 -0.3950 -0.9046
 1734TIP3    H126617   3.740   3.464   3.818  0.5688 -2.0804 -0.5463
 1734TIP3    H226618   3.884   3.504   3.842 -0.2883  1.5946 -0.9410
 1735TIP3   OH226619   1.564   5.563  15.894  0.6253  0.2663  0.3052
 1735TIP3    H126620   1.547   5.559  15.988  2.6686  0.4053  0.7391
 1735TIP3    H226621   1.509   5.495  15.856  0.9784 -0.9370  1.8279
 1736TIP3   OH226622   5.253   6.212  13.278 -0.7669  0.4928 -0.2837
 1736TIP3    H126623   5.306   6.191  13.355  0.2364  0.2554 -1.0184
 1736TIP3    H226624   5.163   6.193  13.304 -0.4104  0.1794  0.7456
 1737TIP3   OH226625   0.217   4.217  15.697  0.0953  0.2344  0.6083
 1737TIP3    H126626   0.297   4.228  15.647 -0.5592 -1.1837 -0.8582
 1737TIP3    H226627   0.169   4.148  15.651 -1.0066 -0.4580  2.6518
 1738TIP3   OH226628   4.480   6.483   4.561 -0.5504 -0.4067  0.2808
 1738TIP3    H126629   4.448   6.536   4.488 -0.3081  0.5177  0.8272
 1738TIP3    H226630   4.443   6.396   4.546  0.8615 -0.7135 -1.8673
 1739TIP3   OH226631   6.685   5.585   2.206  0.6666 -0.1188  0.2923
 1739TIP3    H126632   6.754   5.541   2.256  1.4825  0.6507 -0.1338
 1739TIP3    H226633   6.690   5.676   2.233 -0.3822 -0.1036  0.4655
 1740TIP3   OH226634   2.029   3.063   3.716 -0.1914 -0.2373 -0.1618
 1740TIP3    H126635   1.961   3.046   3.651 -1.5450 -1.0299  1.3712
 1740TIP3    H226636   1.987   3.042   3.800  1.7336 -0.0310  0.9040
 1741TIP3   OH226637   6.480   2.266  15.631  0.7119 -0.1438 -0.6394
 1741TIP3    H126638   6.385   2.273  15.641  0.9879  2.3406  0.8736
 1741TIP3    H226639   6.492   2.243  15.538 -1.3613 -3.7797 -0.2201
 1742TIP3   OH226640   3.605   6.015  13.661 -0.2899  0.0276 -1.1885
 1742TIP3    H126641   3.590   6.034  13.568 -0.6220  0.1514 -1.1138
 1742TIP3    H226642   3.531   5.959  13.685  1.6846 -3.1670 -1.9292
 1743TIP3   OH226643   4.425   4.049   1.155  0.5308 -0.2626  0.5254
 1743TIP3    H126644   4.359   4.096   1.104  1.0362  2.3675  2.0629
 1743TIP3    H226645   4.376   4.012   1.229  0.3386 -1.0586  0.0140
 1744TIP3   OH226646   2.721   4.641  11.731  0.1149 -0.2464  0.5064
 1744TIP3    H126647   2.812   4.667  11.744  0.5785 -2.2628  1.7120
 1744TIP3    H226648   2.715   4.553  11.768 -1.7613 -1.1709 -1.7127
 1745TIP3   OH226649   1.704   1.305   4.481 -0.3689 -0.3536  0.2970
 1745TIP3    H126650   1.717   1.399   4.479 -1.2782 -0.1696  1.6776
 1745TIP3    H226651   1.788   1.268   4.453  0.0470  0.8519 -0.0786
 1746TIP3   OH226652   5.799   3.419  15.069  0.4366 -0.4352 -0.0881
 1746TIP3    H126653   5.804   3.513  15.053  0.4007  0.0575  2.3595
 1746TIP3    H226654   5.749   3.385  14.995 -0.6406  1.6566 -0.4126
 1747TIP3   OH226655   5.049   0.438   0.995  0.0326 -0.1709  0.0692
 1747TIP3    H126656   5.078   0.529   0.998  2.0814 -0.8017  1.6926
 1747TIP3    H226657   4.959   0.441   1.026 -0.3032  1.4092 -0.9454
 1748TIP3   OH226658   2.861   4.432   5.528  0.5328  0.8991 -0.1412
 1748TIP3    H126659   2.849   4.458   5.619 -2.2375  0.2768 -0.2485
 1748TIP3    H226660   2.909   4.349   5.533 -0.3485  0.4370  0.8088
 1749TIP3   OH226661   2.571   5.489   2.905  0.4640  0.1055  0.5375
 1749TIP3    H126662   2.643   5.436   2.938  0.7495 -1.5430 -2.4256
 1749TIP3    H226663   2.534   5.438   2.833 -1.4150  2.4695 -0.3137
 1750TIP3   OH226664   4.997   5.269   4.572  0.0152  0.3193  0.1270
 1750TIP3    H126665   4.945   5.241   4.647 -0.9741 -3.3908 -1.6736
 1750TIP3    H226666   5.085   5.237   4.590  0.3716  1.5634  0.6905
 1751TIP3   OH226667   5.410   4.094  13.568  0.0284 -0.2523  0.0500
 1751TIP3    H126668   5.420   4.186  13.543 -3.5545 -0.0381 -1.1510
 1751TIP3    H226669   5.462   4.046  13.504  0.5412  0.8466 -0.3920
 1752TIP3   OH226670   1.208   2.291   3.329  0.0348 -0.1226 -0.6911
 1752TIP3    H126671   1.132   2.331   3.288  0.5645 -0.1333 -1.7311
 1752TIP3    H226672   1.235   2.353   3.397 -0.6682  0.0580 -0.5762
 1753TIP3   OH226673   5.422   5.707   0.176  0.4273  0.0828 -0.1421
 1753TIP3    H126674   5.355   5.750   0.229  0.6116 -0.3582  0.4562
 1753TIP3    H226675   5.424   5.617   0.208  1.1098  0.0223 -0.3416
 1754TIP3   OH226676   4.271   0.805   1.016 -0.2693  0.3748  0.0018
 1754TIP3    H126677   4.249   0.855   1.094  0.2890 -0.3080  0.6038
 1754TIP3    H226678   4.204   0.830   0.952 -0.4222  1.3294  0.5229
 1755TIP3   OH226679   3.243   3.942  15.619  0.2709 -0.6696 -0.7022
 1755TIP3    H126680   3.243   4.037  15.612  0.6894 -0.7060 -1.2644
 1755TIP3    H226681   3.335   3.918  15.625  0.3187 -1.1549 -2.5614
 1756TIP3   OH226682   0.017   1.000   4.469  0.4632 -0.3423  0.3909
 1756TIP3    H126683  -0.016   0.915   4.441  0.5178 -0.7477  1.4832
 1756TIP3    H226684  -0.057   1.038   4.518  1.6348 -1.4694  3.2963
 1757TIP3   OH226685   3.863   5.769   4.939  0.8583 -0.1150 -0.2677
 1757TIP3    H126686   3.859   5.843   4.999 -0.0116 -1.1212  0.9711
 1757TIP3    H226687   3.855   5.692   4.995  1.8176 -1.1612 -1.5093
 1758TIP3   OH226688   6.454   3.355   2.809  0.3032 -0.1543  0.3978
 1758TIP3    H126689   6.434   3.284   2.748  1.8694 -0.0260 -0.3182
 1758TIP3    H226690   6.490   3.310   2.885  1.1454 -0.1523  0.0089
 1759TIP3   OH226691   1.961   2.549  12.146  0.0405 -0.3722  0.3826
 1759TIP3    H126692   1.974   2.508  12.232  0.4271  0.3111  0.6549
 1759TIP3    H226693   1.959   2.475  12.085  0.3714 -0.8256  0.9054
 1760TIP3   OH226694   5.550   2.593   2.302  0.0188  0.5451 -0.2075
 1760TIP3    H126695   5.515   2.675   2.269 -0.3718  0.4678  0.0026
 1760TIP3    H226696   5.645   2.603   2.297 -0.0261  0.5615 -1.2743
 1761TIP3   OH226697   2.590   1.767  16.890 -0.4619 -0.3208  0.5716
 1761TIP3    H126698   2.662   1.763  16.826 -1.6560 -1.5423 -0.7885
 1761TIP3    H226699   2.626   1.726  16.968  0.8955  0.7703  0.5502
 1762TIP3   OH226700   1.840   0.377  13.051 -0.1982 -0.7294  0.1529
 1762TIP3    H126701   1.836   0.409  13.141  1.2533  0.5271 -0.1838
 1762TIP3    H226702   1.887   0.446  13.003 -0.0308 -1.8396 -1.3522
 1763TIP3   OH226703   2.280   1.237  13.327 -0.1351 -0.4159 -0.4667
 1763TIP3    H126704   2.192   1.257  13.297  0.7188  1.0663 -2.1613
 1763TIP3    H226705   2.318   1.323  13.349  0.6420 -1.0932  0.9925
 1764TIP3   OH226706   5.764   2.344   0.454  0.2902 -0.0571 -0.3498
 1764TIP3    H126707   5.773   2.413   0.520  0.7397  0.7035 -1.1774
 1764TIP3    H226708   5.851   2.304   0.450  2.0831  3.5157 -4.2846
 1765TIP3   OH226709   2.509   2.033  12.503  0.1097 -0.2325  0.2226
 1765TIP3    H126710   2.473   2.054  12.417 -0.6269  0.0312  0.5891
 1765TIP3    H226711   2.453   1.963  12.536  1.9466 -2.2056 -0.5820
 1766TIP3   OH226712   3.743   3.862   2.571 -0.4074 -0.5966 -0.1672
 1766TIP3    H126713   3.758   3.807   2.648  0.7305 -0.3079 -0.1643
 1766TIP3    H226714   3.663   3.910   2.592  0.1461 -0.1502  1.0758
 1767TIP3   OH226715   2.133   3.049  13.761  0.5931 -0.1962 -0.3717
 1767TIP3    H126716   2.194   2.976  13.755  1.9483  0.5805  2.3218
 1767TIP3    H226717   2.064   3.019  13.821 -0.0324 -0.0000 -0.9750
 1768TIP3   OH226718   0.650   3.375  15.376 -0.4319 -0.3091  0.4565
 1768TIP3    H126719   0.710   3.348  15.305  0.3857  0.2154  0.9339
 1768TIP3    H226720   0.587   3.433  15.333  0.9311  1.1937  0.4016
 1769TIP3   OH226721   2.367   2.044  16.589 -0.6700  0.5557  0.5701
 1769TIP3    H126722   2.277   2.075  16.592 -1.3308 -1.2537  0.8627
 1769TIP3    H226723   2.374   1.983  16.663  0.6356  0.3013  0.2568
 1770TIP3   OH226724   5.511   0.463  13.511  0.4258 -0.4592  0.3360
 1770TIP3    H126725   5.592   0.449  13.461  1.5083 -1.2330  2.2137
 1770TIP3    H226726   5.535   0.530  13.575 -0.7269 -0.0006  0.3027
 1771TIP3   OH226727   6.487   0.511  14.226 -0.5151 -0.0733 -0.7808
 1771TIP3    H126728   6.398   0.507  14.260 -0.3469 -0.3371 -0.3621
 1771TIP3    H226729   6.521   0.595  14.258 -0.2218 -0.5016  0.0582
 1772TIP3   OH226730   0.193   2.647  14.269 -0.2628  0.0498 -0.2369
 1772TIP3    H126731   0.241   2.698  14.335 -1.5303  0.1279  0.6497
 1772TIP3    H226732   0.258   2.631  14.200  0.3310  2.4807 -0.3576
 1773TIP3   OH226733   4.647   0.010   4.538 -0.5693  0.3768 -0.1719
 1773TIP3    H126734   4.589   0.054   4.475 -1.2405  0.3087  0.3936
 1773TIP3    H226735   4.589  -0.023   4.606  0.0493 -0.4120 -0.0054
 1774TIP3   OH226736   2.329   1.128   3.647  0.0087 -0.1644 -0.4490
 1774TIP3    H126737   2.356   1.036   3.642 -0.8526 -0.3778 -1.4941
 1774TIP3    H226738   2.317   1.144   3.740 -0.0840 -1.1915 -0.2741
 1775TIP3   OH226739   2.804   5.943   1.783 -0.4526  0.1817  0.2440
 1775TIP3    H126740   2.710   5.950   1.768 -1.0097 -3.2000  1.3390
 1775TIP3    H226741   2.836   5.890   1.710  0.7109  1.4314 -0.2113
 1776TIP3   OH226742   6.101   4.000   3.242 -0.0830  0.2034  0.1428
 1776TIP3    H126743   6.140   3.994   3.330 -1.3354  1.1443  0.7843
 1776TIP3    H226744   6.175   4.026   3.186  1.0466 -1.7293  0.6327
 1777TIP3   OH226745   4.230   3.895   6.148 -0.1549  0.0612 -0.3198
 1777TIP3    H126746   4.200   3.836   6.079 -0.4727 -0.1526 -0.0046
 1777TIP3    H226747   4.152   3.946   6.172 -0.2121 -0.3142  0.3213
 1778TIP3   OH226748   1.531   1.317  13.084  0.1149 -0.5953  0.2384
 1778TIP3    H126749   1.468   1.247  13.101 -0.1081 -0.0629  1.8915
 1778TIP3    H226750   1.506   1.352  12.999 -1.1438 -1.1042  0.3752
 1779TIP3   OH226751   5.299   4.346   6.085 -0.1757 -0.5455  0.5237
 1779TIP3    H126752   5.393   4.365   6.081 -0.2577 -0.3918 -2.8867
 1779TIP3    H226753   5.257   4.426   6.056 -1.0756 -1.9779 -2.4328
 1780TIP3   OH226754   4.262   4.989   1.541  0.3995 -0.1381  0.7239
 1780TIP3    H126755   4.330   4.973   1.475  0.2318  1.2345  0.1957
 1780TIP3    H226756   4.266   4.912   1.598  1.0409 -1.0132 -0.4603
 1781TIP3   OH226757   0.314   5.723   1.904  0.2787  0.4214 -0.0122
 1781TIP3    H126758   0.389   5.710   1.846  1.1097 -1.4251  1.3616
 1781TIP3    H226759   0.293   5.816   1.895  2.2031  0.8248 -1.0576
 1782TIP3   OH226760   4.389   4.317  16.637  0.2903 -0.3013  0.4745
 1782TIP3    H126761   4.467   4.373  16.645 -0.1008  0.3310 -0.0743
 1782TIP3    H226762   4.366   4.321  16.544  0.1333 -1.2175  0.4684
 1783TIP3   OH226763   4.881   5.326  11.015  0.1696 -0.0814  0.5477
 1783TIP3    H126764   4.852   5.248  10.968  0.3129 -2.0262  3.4072
 1783TIP3    H226765   4.834   5.398  10.973 -1.5642 -1.9506 -0.9243
 1784TIP3   OH226766   3.325   1.342  13.282  0.2052 -0.2249 -0.0894
 1784TIP3    H126767   3.363   1.341  13.370  0.6142 -1.1160 -0.2664
 1784TIP3    H226768   3.281   1.426  13.276 -0.7248 -0.5726  1.3574
 1785TIP3   OH226769   4.603   4.848   5.732 -0.4946 -0.3332 -0.6058
 1785TIP3    H126770   4.543   4.792   5.682 -0.4552  1.8142 -3.2380
 1785TIP3    H226771   4.689   4.831   5.694 -0.3713  0.8913 -0.9056
 1786TIP3   OH226772   3.832   0.731  16.060  0.0938  0.1534 -0.6879
 1786TIP3    H126773   3.813   0.737  16.154  1.0971  1.4884 -0.5403
 1786TIP3    H226774   3.850   0.638  16.045 -2.1719 -0.4555 -0.0144
 1787TIP3   OH226775   2.825   6.769  14.332  0.8725  0.3214 -0.2615
 1787TIP3    H126776   2.907   6.738  14.371  0.2538  1.3784  2.0720
 1787TIP3    H226777   2.762   6.700  14.351  0.0727  1.7128  2.7309
 1788TIP3   OH226778   6.016   5.373  14.524  0.5415 -0.1679  0.0169
 1788TIP3    H126779   5.962   5.341  14.452  1.5129 -1.1456 -0.3061
 1788TIP3    H226780   6.048   5.458  14.493 -0.1109  0.0232 -0.1465
 1789TIP3   OH226781   1.081   0.841  10.997  0.0844 -0.4921  0.6970
 1789TIP3    H126782   1.111   0.847  10.906  2.4656 -2.4176  1.2583
 1789TIP3    H226783   0.986   0.854  10.991  0.0343 -1.4342 -2.1774
 1790TIP3   OH226784   1.331   5.920   3.149 -0.1287 -0.3011  0.4466
 1790TIP3    H126785   1.247   5.913   3.104  0.6602 -0.4173 -1.0984
 1790TIP3    H226786   1.395   5.889   3.084  0.9954 -1.3175  1.9737
 1791TIP3   OH226787   0.156   6.505   3.959 -1.1094  0.4756 -0.1298
 1791TIP3    H126788   0.248   6.517   3.933 -1.2766  1.7529 -0.1780
 1791TIP3    H226789   0.121   6.593   3.963 -2.2938  0.0045  0.0980
 1792TIP3   OH226790   4.444   0.934  15.477  0.0156  0.2446  0.4559
 1792TIP3    H126791   4.492   0.971  15.551 -1.6974 -1.1734  2.3892
 1792TIP3    H226792   4.443   0.840  15.493  0.6902 -0.2902 -2.1138
 1793TIP3   OH226793   6.585   1.881  12.087  0.0856 -0.5518  0.1138
 1793TIP3    H126794   6.600   1.968  12.124 -0.5940 -1.5574  2.9961
 1793TIP3    H226795   6.603   1.891  11.993  3.0397  1.9598  0.7949
 1794TIP3   OH226796   4.361   4.664  15.967  0.0002 -0.3586  0.5557
 1794TIP3    H126797   4.423   4.592  15.965  0.7086  0.2462  0.1616
 1794TIP3    H226798   4.276   4.623  15.949  0.4559 -1.0272 -0.1367
 1795TIP3   OH226799   0.646   1.489   2.344  0.5545  0.4069  0.5585
 1795TIP3    H126800   0.601   1.479   2.260  0.8846  0.7407  0.3404
 1795TIP3    H226801   0.703   1.412   2.350  0.1980  0.1533  0.6830
 1796TIP3   OH226802   6.419   2.896  17.049  0.3322  0.2782  0.2997
 1796TIP3    H126803   6.437   2.946  16.969  0.9993 -2.2362 -1.2455
 1796TIP3    H226804   6.327   2.915  17.068  0.4261  1.6739 -0.4971
 1797TIP3   OH226805   1.503   2.767  16.892  0.1730  0.5711  0.4579
 1797TIP3    H126806   1.475   2.720  16.814 -0.9328  0.9354  0.6153
 1797TIP3    H226807   1.481   2.859  16.875  0.5681  0.7572  0.9082
 1798TIP3   OH226808   4.031   5.986  10.922  0.5129 -0.4071  0.1854
 1798TIP3    H126809   3.984   5.986  11.005  1.1523  0.7075  0.5784
 1798TIP3    H226810   3.987   5.920  10.869 -2.6863  1.7586 -0.1366
 1799TIP3   OH226811   4.851   6.591  13.515 -0.0303 -0.4469  0.1346
 1799TIP3    H126812   4.917   6.539  13.469 -1.5726 -0.8151 -1.7837
 1799TIP3    H226813   4.772   6.582  13.462 -2.3804 -1.9987  3.5806
 1800TIP3   OH226814   5.862   1.434   3.495 -0.0809  0.4400 -0.0510
 1800TIP3    H126815   5.803   1.509   3.496 -1.2623 -0.4570 -0.2292
 1800TIP3    H226816   5.940   1.464   3.541 -1.3638  1.0985  1.7991
 1801TIP3   OH226817   3.887   3.623   1.521 -0.3454 -0.2459 -0.6166
 1801TIP3    H126818   3.926   3.620   1.609 -1.6841  0.2238  0.0223
 1801TIP3    H226819   3.793   3.632   1.537 -0.7682 -1.6507 -2.0984
 1802TIP3   OH226820   1.126   6.382  14.728  0.0568 -0.7754 -0.4235
 1802TIP3    H126821   1.084   6.432  14.798  0.6666 -0.5611 -0.2081
 1802TIP3    H226822   1.095   6.293  14.741 -2.1362 -0.2812 -1.6094
 1803TIP3   OH226823   6.350   3.144   5.925  0.6213 -0.1323 -0.3745
 1803TIP3    H126824   6.429   3.196   5.920  0.3368  0.3759  0.3163
 1803TIP3    H226825   6.278   3.207   5.914  0.2478 -0.2142  1.3442
 1804TIP3   OH226826   2.894   1.811  10.931 -0.4706 -0.8019  0.2256
 1804TIP3    H126827   2.955   1.863  10.982  0.0161 -0.5145 -0.6288
 1804TIP3    H226828   2.811   1.859  10.937 -0.9068 -1.6932  2.1824
 1805TIP3   OH226829   2.417   1.535   3.856 -0.2541 -0.2913  0.6424
 1805TIP3    H126830   2.360   1.576   3.920 -0.2194  0.0523  0.4546
 1805TIP3    H226831   2.468   1.471   3.906 -1.9957 -1.8469  0.5284
 1806TIP3   OH226832   3.725   4.817   3.401 -0.4322 -0.2012 -0.0011
 1806TIP3    H126833   3.700   4.835   3.310 -3.4136  1.1388  0.9648
 1806TIP3    H226834   3.718   4.902   3.445 -1.0324 -1.1791  1.8896
 1807TIP3   OH226835   3.120   5.878  17.299 -0.6460  0.3937  0.6698
 1807TIP3    H126836   3.200   5.922  17.269 -0.2751  0.7114  2.0451
 1807TIP3    H226837   3.151   5.797  17.340 -1.0321  0.4465  1.0732
 1808TIP3   OH226838   1.509   6.713   2.239 -0.4835 -0.1538  0.0180
 1808TIP3    H126839   1.483   6.684   2.152  1.5218  1.6342 -1.3021
 1808TIP3    H226840   1.458   6.793   2.254  1.6525  1.5595 -1.1913
 1809TIP3   OH226841   5.321   2.814   2.958  0.0967  0.3324 -0.5801
 1809TIP3    H126842   5.298   2.732   3.002 -1.0821 -0.3171 -2.3040
 1809TIP3    H226843   5.238   2.859   2.946  0.6591  1.4893 -0.2530
 1810TIP3   OH226844   4.321   3.976   3.290 -0.2364  0.3467 -0.5084
 1810TIP3    H126845   4.311   3.882   3.304  0.3305  0.2579 -0.7112
 1810TIP3    H226846   4.414   3.994   3.304 -0.2104  0.7595 -1.1669
 1811TIP3   OH226847   3.617   4.845  12.979  0.0388  0.5262 -0.4001
 1811TIP3    H126848   3.683   4.871  12.914 -0.0862 -0.0554 -0.7707
 1811TIP3    H226849   3.534   4.856  12.933 -0.0959  0.8545 -0.0741
 1812TIP3   OH226850   5.258   5.271  16.311  0.0993  0.0828 -0.5321
 1812TIP3    H126851   5.193   5.340  16.299 -0.9239 -0.7739 -0.0243
 1812TIP3    H226852   5.209   5.189  16.301  0.6780 -0.6247  1.8169
 1813TIP3   OH226853   2.958   1.202   1.389  0.5001 -0.0321  0.7672
 1813TIP3    H126854   2.914   1.129   1.346 -0.4913  0.3039  1.1755
 1813TIP3    H226855   3.049   1.175   1.394  0.2816 -0.9250  0.2502
 1814TIP3   OH226856   3.555   6.655  16.332  0.3670 -0.1610 -0.4252
 1814TIP3    H126857   3.540   6.746  16.307 -1.8515  0.3019  2.0752
 1814TIP3    H226858   3.649   6.649  16.350  0.7921  1.1951 -2.0241
 1815TIP3   OH226859   0.459   4.885   2.214  0.0776 -0.1355 -0.0581
 1815TIP3    H126860   0.397   4.847   2.151 -0.3799  0.6313 -0.0805
 1815TIP3    H226861   0.512   4.945   2.162 -0.7947  1.0727  0.4023
 1816TIP3   OH226862   3.578   0.667  12.739 -0.1373 -0.0581 -0.5125
 1816TIP3    H126863   3.490   0.645  12.708 -0.4411  0.2753  0.1055
 1816TIP3    H226864   3.610   0.585  12.776 -0.3913 -0.0433 -0.2580
 1817TIP3   OH226865   5.176   0.814  14.561 -0.9263 -0.1903 -0.5869
 1817TIP3    H126866   5.095   0.856  14.530 -1.9391 -1.3982  0.2834
 1817TIP3    H226867   5.181   0.836  14.654 -0.7517 -0.8468 -0.4326
 1818TIP3   OH226868   6.175   3.871  11.436  0.1626 -0.1908 -0.1664
 1818TIP3    H126869   6.205   3.949  11.389 -0.5666 -0.5065 -1.1936
 1818TIP3    H226870   6.085   3.858  11.406  0.0293 -1.0067  0.5490
 1819TIP3   OH226871   5.683   1.229   4.428 -0.0980  0.8145 -0.2079
 1819TIP3    H126872   5.619   1.294   4.398 -2.6632 -0.6552  1.6205
 1819TIP3    H226873   5.665   1.151   4.375 -0.3740  0.1572  0.8138
 1820TIP3   OH226874   0.935   2.164  13.038 -0.3015 -0.5580 -0.1788
 1820TIP3    H126875   0.973   2.114  13.110 -1.3528 -0.3528  0.5379
 1820TIP3    H226876   0.917   2.250  13.075  0.5432  0.0472 -1.1167
 1821TIP3   OH226877   4.007   0.739  15.031 -0.4113 -0.2330 -0.3136
 1821TIP3    H126878   3.930   0.793  15.050 -0.8086 -1.0985  0.6996
 1821TIP3    H226879   3.978   0.650  15.053  0.9010 -0.5587  0.1395
 1822TIP3   OH226880   1.048   5.587   0.574 -0.2285  0.4659 -0.0638
 1822TIP3    H126881   1.101   5.508   0.583  0.9507  1.1986 -0.3366
 1822TIP3    H226882   0.960   5.555   0.556  0.2414 -0.7831 -0.2270
 1823TIP3   OH226883   1.465   4.766  16.392 -0.1849  0.3532  0.7705
 1823TIP3    H126884   1.431   4.817  16.319 -1.6151 -0.3166  0.9274
 1823TIP3    H226885   1.419   4.682  16.386  2.5925 -1.2302  0.1084
 1824TIP3   OH226886   1.707   1.783   1.075 -0.0685 -0.1074 -0.1726
 1824TIP3    H126887   1.703   1.821   0.987  0.8459  0.3670 -0.0242
 1824TIP3    H226888   1.677   1.853   1.133 -3.1048 -1.1883 -0.2492
 1825TIP3   OH226889   3.440   0.727  13.766 -0.1532  0.6382  0.1428
 1825TIP3    H126890   3.460   0.818  13.787 -2.5133  0.9991  1.2307
 1825TIP3    H226891   3.372   0.703  13.829  0.3577 -1.8794 -0.1591
 1826TIP3   OH226892   4.441   0.962  14.394  0.3067  0.4638  0.1437
 1826TIP3    H126893   4.487   0.953  14.310  1.2064  0.8788  0.5792
 1826TIP3    H226894   4.472   1.045  14.429  0.4727 -0.0426  1.2259
 1827TIP3   OH226895   6.052   6.675  11.355 -0.3502 -0.4079  0.2048
 1827TIP3    H126896   6.059   6.755  11.303 -0.7617 -0.7414 -0.3790
 1827TIP3    H226897   5.963   6.643  11.338 -0.1831 -1.0001  0.4173
 1828TIP3   OH226898   1.351   5.958   1.781 -0.2304 -0.3124  0.1617
 1828TIP3    H126899   1.303   5.877   1.764 -0.1612 -0.2155 -0.5565
 1828TIP3    H226900   1.285   6.018   1.815 -0.1457 -0.8676  1.3276
 1829TIP3   OH226901   0.318   2.801  17.016  0.0138 -0.0002 -0.1117
 1829TIP3    H126902   0.371   2.847  17.080  1.4107 -0.0060 -1.1993
 1829TIP3    H226903   0.348   2.834  16.931 -1.8625  0.1172 -0.7858
 1830TIP3   OH226904   5.614   6.281  15.675 -0.0535 -0.0437 -0.4164
 1830TIP3    H126905   5.674   6.211  15.650 -2.1145 -2.2095  0.3304
 1830TIP3    H226906   5.635   6.300  15.766  3.1747  3.3361 -1.6087
 1831TIP3   OH226907   2.521   3.267   3.775  0.1454 -0.0393 -0.5068
 1831TIP3    H126908   2.555   3.310   3.853 -0.3951  0.9916 -0.8210
 1831TIP3    H226909   2.473   3.191   3.809  0.8796 -0.2599  0.0723
 1832TIP3   OH226910   6.046   0.078  17.233 -0.2124  0.5738  0.1036
 1832TIP3    H126911   6.009   0.033  17.157  0.5728  2.8194 -1.6985
 1832TIP3    H226912   5.970   0.113  17.279 -0.6390  0.4018 -0.4546
 1833TIP3   OH226913   5.393   6.157   3.617 -0.0934 -0.5329 -0.2652
 1833TIP3    H126914   5.308   6.129   3.651  0.0207 -0.0158  0.4662
 1833TIP3    H226915   5.456   6.106   3.668  0.0295 -1.9351 -1.7337
 1834TIP3   OH226916   5.768   6.479  13.526  0.0478 -0.0924 -0.4299
 1834TIP3    H126917   5.761   6.559  13.473  1.5704  0.8773  0.7534
 1834TIP3    H226918   5.694   6.482  13.585 -0.5135 -0.1345 -1.1213
 1835TIP3   OH226919   5.192   5.773   5.993  0.4465 -0.0743 -0.3730
 1835TIP3    H126920   5.201   5.867   5.974 -2.4591  0.4940  0.5921
 1835TIP3    H226921   5.253   5.758   6.066 -0.4946  1.5958  0.8402
 1836TIP3   OH226922   2.364   3.767  10.913  0.3533 -0.2204 -0.0393
 1836TIP3    H126923   2.341   3.771  11.006  2.3616 -0.0997  0.4971
 1836TIP3    H226924   2.349   3.856  10.881  0.2052 -0.1186  0.3009
 1837TIP3   OH226925   2.253   5.006  11.893 -0.4189 -0.1399 -0.0221
 1837TIP3    H126926   2.321   4.977  11.832  0.1892 -0.5557  0.8341
 1837TIP3    H226927   2.174   4.959  11.865 -0.8546  1.7074 -2.1623
 1838TIP3   OH226928   5.200   5.149  12.706  0.2840 -0.5712 -0.1686
 1838TIP3    H126929   5.196   5.103  12.790  1.7879 -1.3169 -0.4795
 1838TIP3    H226930   5.190   5.081  12.640  2.5969 -0.5395 -0.6424
 1839TIP3   OH226931   4.078   4.640   5.775 -0.0135 -0.1643  0.3041
 1839TIP3    H126932   4.004   4.650   5.715  0.5803  0.2503 -0.3755
 1839TIP3    H226933   4.084   4.546   5.791  0.2404 -0.3469 -0.8324
 1840TIP3   OH226934   3.259   3.113   6.204  0.2428 -0.3817 -0.3926
 1840TIP3    H126935   3.178   3.092   6.251  0.1402  0.8125 -0.0265
 1840TIP3    H226936   3.279   3.203   6.229  2.2146 -0.9630  0.2796
 1841TIP3   OH226937   6.288   3.363   4.956 -0.3116  0.2964  0.2373
 1841TIP3    H126938   6.278   3.403   5.042  1.6440 -1.5298  1.4098
 1841TIP3    H226939   6.270   3.270   4.970  0.2206 -0.0699 -1.2824
 1842TIP3   OH226940   4.185   3.709  12.322 -0.0053 -0.4583 -0.2436
 1842TIP3    H126941   4.214   3.731  12.411 -0.7122  0.7196 -0.2856
 1842TIP3    H226942   4.259   3.661  12.284 -0.4714 -2.8825  1.6538
 1843TIP3   OH226943   6.194   0.578  17.126  0.3815 -0.5875  0.5402
 1843TIP3    H126944   6.110   0.533  17.134 -0.6676  0.8742 -1.4063
 1843TIP3    H226945   6.199   0.604  17.034  2.0508  1.1231  1.0530
 1844TIP3   OH226946   6.059   2.328  11.473  0.3107  0.1740  0.3191
 1844TIP3    H126947   5.992   2.326  11.542 -0.7749 -0.7321 -0.7078
 1844TIP3    H226948   6.011   2.356  11.395  1.3383  0.3615 -0.2514
 1845TIP3   OH226949   4.391   3.787   3.546 -0.1115  0.3678  0.2144
 1845TIP3    H126950   4.392   3.698   3.513  1.5497  0.6840 -0.7192
 1845TIP3    H226951   4.426   3.781   3.635  2.1550  0.3110 -0.6311
 1846TIP3   OH226952   1.167   5.836  17.127 -0.4064 -0.2979 -0.3413
 1846TIP3    H126953   1.192   5.815  17.217 -0.7021  0.1276 -0.1585
 1846TIP3    H226954   1.138   5.752  17.091 -1.6521 -0.2172  0.4110
 1847TIP3   OH226955   0.381   3.359   0.137 -0.1278 -0.0447  0.4153
 1847TIP3    H126956   0.305   3.355   0.195  0.2712 -1.5885  0.8791
 1847TIP3    H226957   0.347   3.334   0.051  0.0634 -2.1193  0.8956
 1848TIP3   OH226958   5.056   0.696   1.568 -0.0674  0.2928  0.2356
 1848TIP3    H126959   5.021   0.689   1.479  1.2076 -1.5757 -0.1868
 1848TIP3    H226960   4.986   0.662   1.623 -0.0334 -0.6807 -0.2968
 1849TIP3   OH226961   0.262   4.171  16.454  0.0377  0.6113 -0.1351
 1849TIP3    H126962   0.185   4.137  16.409 -0.5863  1.8634 -0.0521
 1849TIP3    H226963   0.239   4.168  16.547  0.5342 -0.0460 -0.0210
 1850TIP3   OH226964   3.037   2.950  15.225 -0.5030  0.2292 -0.2073
 1850TIP3    H126965   2.999   3.037  15.232 -2.0045 -0.3959 -0.1388
 1850TIP3    H226966   3.104   2.958  15.157  0.9865  1.9249  1.3634
 1851TIP3   OH226967   3.059   4.361  13.900  0.2852 -0.8573 -0.1046
 1851TIP3    H126968   3.080   4.275  13.864 -1.4732 -1.2566 -0.2880
 1851TIP3    H226969   2.971   4.351  13.936  1.2395  0.0458  2.7102
 1852TIP3   OH226970   4.919   3.420  13.589 -0.4710 -0.5731  0.4341
 1852TIP3    H126971   4.917   3.334  13.546 -1.7577 -0.0496 -0.6172
 1852TIP3    H226972   4.829   3.453  13.580  0.1643  1.1846  0.2130
 1853TIP3   OH226973   5.328   2.049  12.658 -0.2553 -0.3179 -0.3659
 1853TIP3    H126974   5.261   1.994  12.617 -1.3179 -0.6570  1.6996
 1853TIP3    H226975   5.390   1.986  12.695 -0.2732 -0.0712  0.0826
 1854TIP3   OH226976   4.717   5.883  12.116 -0.1306  0.0178  0.3172
 1854TIP3    H126977   4.802   5.926  12.126 -0.4987  0.6213  0.8943
 1854TIP3    H226978   4.723   5.839  12.031  0.1445  1.4595 -0.4414
 1855TIP3   OH226979   0.531   0.936   2.621  0.3077  0.0166 -0.2204
 1855TIP3    H126980   0.554   0.968   2.708 -1.4017  0.1454  0.2361
 1855TIP3    H226981   0.587   0.984   2.561 -0.5465  2.1825  0.6140
 1856TIP3   OH226982   0.975   3.410   3.983 -0.3030 -0.1173 -0.2839
 1856TIP3    H126983   1.030   3.396   3.906  1.2735 -0.7402  0.9027
 1856TIP3    H226984   0.973   3.325   4.027 -2.4853 -0.1821 -0.4241
 1857TIP3   OH226985   0.366   1.826   0.264  0.2312  0.2009  0.3917
 1857TIP3    H126986   0.352   1.836   0.358 -0.2231 -0.6032  0.4229
 1857TIP3    H226987   0.284   1.854   0.224 -0.0582 -0.6927  0.3272
 1858TIP3   OH226988   6.722   0.098  13.414  0.0095  0.1226 -0.0323
 1858TIP3    H126989   6.787   0.053  13.468  1.1048  0.0743 -1.3533
 1858TIP3    H226990   6.730   0.058  13.328 -0.7123  1.1752 -0.6143
 1859TIP3   OH226991   1.071   3.064   1.176  0.3313  0.2858 -0.3422
 1859TIP3    H126992   1.087   2.974   1.147 -0.2234 -0.1714  0.7231
 1859TIP3    H226993   0.980   3.082   1.150 -0.0155  0.0374  0.6626
 1860TIP3   OH226994   1.570   1.991  11.488 -0.1993  0.0845 -0.2824
 1860TIP3    H126995   1.588   1.955  11.402 -0.4171 -0.0057 -0.2912
 1860TIP3    H226996   1.540   2.081  11.472  1.7724  0.7968 -0.1703
 1861TIP3   OH226997   6.615   6.551   1.188  0.3412  0.0092  0.1201
 1861TIP3    H126998   6.621   6.488   1.116  2.4671  0.3056 -0.0370
 1861TIP3    H226999   6.528   6.538   1.225  0.5672 -2.7382 -0.1345
 1862TIP3   OH227000   3.524   0.492   5.463  0.4147 -0.3931  0.8292
 1862TIP3    H127001   3.505   0.418   5.406 -3.4510  0.2460  1.0550
 1862TIP3    H227002   3.511   0.458   5.552 -1.2279  0.4382  0.9379
 1863TIP3   OH227003   6.059   6.565   4.165  0.2158  0.6647 -0.0346
 1863TIP3    H127004   5.988   6.534   4.222 -1.0001  0.6976 -1.4861
 1863TIP3    H227005   6.085   6.488   4.115  1.3790  0.6048  0.6264
 1864TIP3   OH227006   5.818   6.628  11.555 -0.0619  0.1329  0.4776
 1864TIP3    H127007   5.883   6.698  11.560 -0.1177  0.1811  0.5209
 1864TIP3    H227008   5.819   6.601  11.463  2.9111 -2.6107  1.1620
 1865TIP3   OH227009   5.852   4.911   4.718  0.0205  0.5827 -0.0940
 1865TIP3    H127010   5.756   4.917   4.714 -0.0131 -0.1523 -0.4919
 1865TIP3    H227011   5.882   4.942   4.633  0.0803 -0.1890 -0.3588
 1866TIP3   OH227012   6.642   5.648   6.321  0.0591 -0.1066  0.1064
 1866TIP3    H127013   6.579   5.590   6.277 -0.2044  0.8605 -0.8464
 1866TIP3    H227014   6.725   5.600   6.319  0.0360 -0.1348 -1.4215
 1867TIP3   OH227015   3.150   3.730   1.074  0.2359  0.4973 -0.0822
 1867TIP3    H127016   3.179   3.783   1.147 -1.0029  1.3742 -0.1887
 1867TIP3    H227017   3.101   3.790   1.018  1.7126  0.0292 -2.0122
 1868TIP3   OH227018   1.508   3.247  16.167 -0.1132  0.3652 -0.3085
 1868TIP3    H127019   1.511   3.207  16.079 -0.8532  1.0608 -0.6611
 1868TIP3    H227020   1.449   3.190  16.216  0.6100 -0.2510 -0.1363
 1869TIP3   OH227021   0.586   1.743  12.877 -0.6336  0.2630  0.0294
 1869TIP3    H127022   0.584   1.766  12.784  1.4537  0.7696  0.0481
 1869TIP3    H227023   0.661   1.792  12.911  0.1687 -1.8030  1.4343
 1870TIP3   OH227024   6.672   0.846  14.013 -0.1060  0.3300 -0.1301
 1870TIP3    H127025   6.720   0.785  14.068 -0.5530 -0.8266 -0.9791
 1870TIP3    H227026   6.737   0.879  13.951  0.5892  2.2600  1.5270
 1871TIP3   OH227027   4.259   1.219  13.962  0.0201 -0.5443 -0.2193
 1871TIP3    H127028   4.232   1.127  13.953  0.6165 -0.5913 -1.8934
 1871TIP3    H227029   4.310   1.221  14.043 -1.5110 -1.2901  0.8214
 1872TIP3   OH227030   2.420   0.705   1.942 -0.1100 -0.1831 -0.3796
 1872TIP3    H127031   2.449   0.614   1.939  1.9690  0.4283 -0.7501
 1872TIP3    H227032   2.358   0.714   1.870  1.7213 -0.7053 -2.1061
 1873TIP3   OH227033   6.082   5.668   4.668 -0.6604  0.0146  0.3983
 1873TIP3    H127034   6.006   5.713   4.632 -0.0378  0.4739 -0.3625
 1873TIP3    H227035   6.061   5.658   4.761  0.0642  3.9229  1.1539
 1874TIP3   OH227036   4.240   6.447  12.944  0.3152 -0.0463 -0.5237
 1874TIP3    H127037   4.208   6.534  12.967 -0.5540 -0.5359  0.2265
 1874TIP3    H227038   4.235   6.397  13.026  0.2156 -0.9638 -1.0667
 1875TIP3   OH227039   2.894   1.320  15.216 -0.1724  0.6038 -0.1839
 1875TIP3    H127040   2.881   1.265  15.138 -0.1794  1.6910 -0.9696
 1875TIP3    H227041   2.867   1.408  15.188 -1.6637  0.7449  1.5081
 1876TIP3   OH227042   1.669   6.126   1.518 -0.5382  0.5446  0.2006
 1876TIP3    H127043   1.647   6.108   1.609  2.7636  1.0824  1.2625
 1876TIP3    H227044   1.637   6.215   1.504 -0.3347  0.7856  1.1454
 1877TIP3   OH227045   0.717   1.289  14.173  0.1862 -0.2108 -0.1633
 1877TIP3    H127046   0.787   1.243  14.220 -2.5125 -3.0763  1.4329
 1877TIP3    H227047   0.689   1.227  14.105 -0.9977  0.7485 -0.5875
 1878TIP3   OH227048   0.255   6.387  12.514 -0.1896 -0.3156 -0.1796
 1878TIP3    H127049   0.334   6.429  12.549  1.1342 -2.5707 -0.2987
 1878TIP3    H227050   0.251   6.303  12.559 -1.0716 -1.3358 -2.0510
 1879TIP3   OH227051   3.796   4.095   4.088 -0.3833 -0.1331 -0.0020
 1879TIP3    H127052   3.780   4.161   4.155 -0.7735 -0.1219 -0.1006
 1879TIP3    H227053   3.709   4.060   4.068 -0.3347  0.2100 -0.8468
 1880TIP3   OH227054   5.136   2.408   4.689 -0.1858 -0.0920 -0.0646
 1880TIP3    H127055   5.078   2.415   4.765 -1.0544 -0.1912 -0.7086
 1880TIP3    H227056   5.150   2.314   4.677 -1.0336 -0.1370 -0.7530
 1881TIP3   OH227057   5.825   3.815   4.281 -0.2586 -0.4015  0.1398
 1881TIP3    H127058   5.769   3.886   4.311  0.4732 -0.7067  2.4381
 1881TIP3    H227059   5.909   3.857   4.260  0.3923 -0.5625  2.1348
 1882TIP3   OH227060   6.480   5.817  15.942  0.5201  0.0611 -0.4699
 1882TIP3    H127061   6.541   5.745  15.955  2.1181  0.8968 -2.6498
 1882TIP3    H227062   6.451   5.807  15.851 -1.0170  0.8906 -0.1118
 1883TIP3   OH227063   2.707   1.527   4.524  0.2819 -0.3521 -0.0101
 1883TIP3    H127064   2.694   1.562   4.436 -0.8819 -0.4161  0.1266
 1883TIP3    H227065   2.800   1.502   4.526 -0.1753 -2.7007 -2.1017
 1884TIP3   OH227066   2.248   0.676   5.014 -0.1215  0.1695  0.3815
 1884TIP3    H127067   2.233   0.644   4.925 -2.0005  1.3189  0.2320
 1884TIP3    H227068   2.274   0.767   5.003  0.5489  0.0587  0.9793
 1885TIP3   OH227069   3.835   0.948   3.324  0.1092  0.1180  0.0877
 1885TIP3    H127070   3.769   0.904   3.271  0.0550 -0.0269  0.2742
 1885TIP3    H227071   3.888   0.997   3.261  0.3126 -0.3987 -0.1409
 1886TIP3   OH227072   2.592   4.350  14.458  0.3571 -0.3068  0.0091
 1886TIP3    H127073   2.632   4.437  14.461 -1.0104  0.3691 -0.4456
 1886TIP3    H227074   2.525   4.353  14.527  0.6340 -1.1809  0.3197
 1887TIP3   OH227075   3.040   1.333  14.256  0.5230  0.7144  0.0538
 1887TIP3    H127076   2.971   1.386  14.215 -0.2813  1.2836  2.0433
 1887TIP3    H227077   2.993   1.262  14.300  1.3950 -0.1085 -0.2965
 1888TIP3   OH227078   4.169   0.866   4.959 -0.6080 -0.0789  0.2451
 1888TIP3    H127079   4.122   0.887   4.878  0.6884  1.5325 -0.1243
 1888TIP3    H227080   4.238   0.806   4.931 -0.6943 -0.2114  0.3144
 1889TIP3   OH227081   5.008   3.052  11.840 -0.1103  0.2254  0.7550
 1889TIP3    H127082   5.006   3.086  11.751  1.1429 -0.0032  0.6205
 1889TIP3    H227083   5.089   3.086  11.877  0.3745 -1.2592  1.1468
 1890TIP3   OH227084   5.904   3.713  17.145 -0.1024  0.0241 -0.3052
 1890TIP3    H127085   5.975   3.702  17.209 -1.2661  1.1197  1.2745
 1890TIP3    H227086   5.854   3.788  17.178 -1.1461  0.2200 -2.1861
 1891TIP3   OH227087   3.075   4.426  15.843 -0.8397 -0.5330 -0.3216
 1891TIP3    H127088   3.016   4.422  15.919  1.6965  0.6267  1.9066
 1891TIP3    H227089   3.052   4.508  15.800 -1.4487 -0.5473 -0.0471
 1892TIP3   OH227090   3.968   5.861   0.201 -0.1720 -0.6793 -0.0800
 1892TIP3    H127091   3.952   5.936   0.144  1.8931  0.2152  0.4053
 1892TIP3    H227092   3.971   5.898   0.290 -1.5601 -1.7576  0.4454
 1893TIP3   OH227093   4.775   1.465  16.594  0.0864 -0.0158 -0.2540
 1893TIP3    H127094   4.834   1.485  16.522 -0.3275  2.3099 -0.0387
 1893TIP3    H227095   4.697   1.517  16.576 -0.3155  0.0490  1.4782
 1894TIP3   OH227096   3.979   5.388  14.265  0.0405 -0.0336 -0.3754
 1894TIP3    H127097   3.949   5.452  14.200 -1.0610 -1.0754 -0.9485
 1894TIP3    H227098   4.051   5.342  14.221  1.4991  1.3873  0.3958
 1895TIP3   OH227099   4.490   0.738  15.661  1.1195 -0.0786  0.2844
 1895TIP3    H127100   4.535   0.654  15.664 -0.7676 -1.1068  2.1741
 1895TIP3    H227101   4.471   0.759  15.752 -4.2894 -1.0239 -0.2664
 1896TIP3   OH227102   1.176   5.328   0.042  0.0488  0.1103  0.2985
 1896TIP3    H127103   1.266   5.302   0.056  0.0527 -0.2309 -0.3506
 1896TIP3    H227104   1.174   5.421   0.065  1.2405  0.9119 -2.4418
 1897TIP3   OH227105   3.204   0.805   0.974  0.1045  0.0005  0.4989
 1897TIP3    H127106   3.236   0.747   1.044 -0.9188  1.5797  2.3941
 1897TIP3    H227107   3.113   0.822   0.997  0.6748  3.3842  0.9072
 1898TIP3   OH227108   1.063   0.698  11.991 -0.0712 -0.1050 -0.3848
 1898TIP3    H127109   1.051   0.604  12.007 -2.0767  0.3076  0.8237
 1898TIP3    H227110   0.974   0.731  11.974  0.3713  1.8643  0.8703
 1899TIP3   OH227111   2.232   3.877  15.684  0.4789 -0.4879  0.2060
 1899TIP3    H127112   2.143   3.852  15.706  0.1223  0.4181 -0.1885
 1899TIP3    H227113   2.235   3.873  15.588  0.9525 -0.7979  0.2280
 1900TIP3   OH227114   4.077   5.141  15.114  0.0286  0.5344  0.1671
 1900TIP3    H127115   4.119   5.164  15.197 -1.2823  0.9657  0.7477
 1900TIP3    H227116   4.139   5.169  15.047  0.4620  1.5804  0.9696
 1901TIP3   OH227117   0.533   4.645   0.938  0.1444  0.5914  0.6169
 1901TIP3    H127118   0.442   4.617   0.949 -0.0375  0.7982 -0.2677
 1901TIP3    H227119   0.581   4.563   0.920 -0.0832  0.6230 -0.1620
 1902TIP3   OH227120   4.274   0.973  15.940  0.3004  0.0119 -0.1243
 1902TIP3    H127121   4.356   1.024  15.938  0.2289  0.1447  0.2656
 1902TIP3    H227122   4.205   1.039  15.939  0.2011  0.0615  2.7448
 1903TIP3   OH227123   2.532   4.688  11.546 -0.2803 -0.3473  0.0086
 1903TIP3    H127124   2.580   4.661  11.624  0.2160 -0.8919 -0.4772
 1903TIP3    H227125   2.600   4.706  11.481 -0.7283 -1.7624 -0.9019
 1904TIP3   OH227126   1.052   6.642  12.774  0.0092  0.0411 -0.2801
 1904TIP3    H127127   1.144   6.616  12.763 -0.1253  0.3124 -2.5568
 1904TIP3    H227128   1.004   6.584  12.715 -1.3084 -0.0521  0.8390
 1905TIP3   OH227129   0.297   4.388   1.513 -0.6346 -0.7856  0.0858
 1905TIP3    H127130   0.337   4.470   1.484 -0.5869 -1.0298 -0.5705
 1905TIP3    H227131   0.291   4.396   1.608  1.0810 -0.7700  0.2322
 1906TIP3   OH227132   2.046   3.371   4.246 -0.0404 -0.2388  0.5662
 1906TIP3    H127133   1.979   3.303   4.250 -0.2613 -0.0852  5.0853
 1906TIP3    H227134   2.010   3.443   4.299  1.9560  1.6164 -0.4557
 1907TIP3   OH227135   0.025   1.768   2.600 -0.4402  0.1782  0.1771
 1907TIP3    H127136   0.038   1.745   2.692  0.0735  1.1328  0.3631
 1907TIP3    H227137  -0.047   1.831   2.601 -0.6489 -0.0552 -0.1107
 1908TIP3   OH227138   0.206   4.234  11.734 -0.4566 -0.1942  0.3282
 1908TIP3    H127139   0.116   4.262  11.755 -1.4260 -2.7249 -0.1431
 1908TIP3    H227140   0.219   4.156  11.787  0.9036 -0.7476 -0.7825
 1909TIP3   OH227141   4.081   0.851   0.779  0.0345 -0.0632  0.5329
 1909TIP3    H127142   3.991   0.853   0.812  0.0613  2.9191  0.7290
 1909TIP3    H227143   4.079   0.790   0.706 -3.0571  2.4376 -1.7188
 1910TIP3   OH227144   4.201   6.003   4.004  0.2016  0.2391 -0.3843
 1910TIP3    H127145   4.137   5.968   3.943  0.2324 -0.2595 -0.1374
 1910TIP3    H227146   4.160   6.082   4.040 -0.6821 -0.5786  0.4709
 1911TIP3   OH227147   5.852   0.250   2.037 -0.1857 -0.3369 -0.3783
 1911TIP3    H127148   5.850   0.154   2.048 -2.0355 -0.2564  0.3122
 1911TIP3    H227149   5.887   0.263   1.949 -1.1356 -1.7071 -0.9989
 1912TIP3   OH227150   3.192   4.484   1.219  0.3305  0.3226  0.0263
 1912TIP3    H127151   3.230   4.511   1.303  1.3356 -1.6779  0.2677
 1912TIP3    H227152   3.258   4.508   1.154 -0.4343  1.8422 -0.2399
 1913TIP3   OH227153   6.236   3.482  17.165  0.3019 -0.5519 -0.2166
 1913TIP3    H127154   6.246   3.449  17.075  0.8808  2.2015 -1.2469
 1913TIP3    H227155   6.315   3.452  17.210  0.1281 -1.7386 -0.6706
 1914TIP3   OH227156   4.359   6.494   1.185 -0.1736  0.3552 -1.6417
 1914TIP3    H127157   4.280   6.500   1.130  0.1587  0.3912 -2.1267
 1914TIP3    H227158   4.427   6.537   1.133 -0.4471  2.9716 -0.0246
 1915TIP3   OH227159   0.904   6.158   5.806  0.0140  0.0241  0.4785
 1915TIP3    H127160   0.942   6.246   5.809  0.3352  0.0531 -2.1128
 1915TIP3    H227161   0.977   6.101   5.829  0.0685  0.3757  1.2061
 1916TIP3   OH227162   2.986   6.251  10.593  0.3913 -0.1560 -0.2026
 1916TIP3    H127163   2.905   6.300  10.611 -0.5063 -1.6752  0.0982
 1916TIP3    H227164   2.960   6.159  10.600  2.3365 -0.6825  0.7480
 1917TIP3   OH227165   5.490   3.689   5.803  0.3858 -0.6943 -0.7993
 1917TIP3    H127166   5.432   3.701   5.878  0.9508 -1.1197 -0.2857
 1917TIP3    H227167   5.493   3.776   5.762  0.9018 -0.1724  0.2865
 1918TIP3   OH227168   2.046   4.403  14.309 -0.4738  0.2387  0.0361
 1918TIP3    H127169   2.059   4.405  14.403  0.4559  0.2063 -0.0832
 1918TIP3    H227170   2.119   4.350  14.275 -0.1931  1.1030 -0.7776
 1919TIP3   OH227171   5.497   0.988   3.282 -0.2789 -0.0054  0.0533
 1919TIP3    H127172   5.461   0.999   3.370 -0.3686 -0.2954  0.0520
 1919TIP3    H227173   5.458   1.059   3.231 -0.0875  0.2761  0.2891
 1920TIP3   OH227174   4.247   5.489  14.658 -0.1484  0.2613  0.3253
 1920TIP3    H127175   4.307   5.435  14.606 -0.3255  1.0483 -0.7390
 1920TIP3    H227176   4.296   5.569  14.675  0.0984 -0.1713  1.8601
 1921TIP3   OH227177   6.009   0.825   0.784 -0.3430  0.1737  0.7726
 1921TIP3    H127178   5.967   0.746   0.748 -2.5618  2.2603 -1.6032
 1921TIP3    H227179   6.048   0.868   0.708  2.3050  0.6255  2.2756
 1922TIP3   OH227180   5.733   6.395  11.650 -0.5062  0.3363  0.3948
 1922TIP3    H127181   5.737   6.488  11.628 -3.6856  0.1163 -1.6425
 1922TIP3    H227182   5.808   6.357  11.605 -0.0667  1.6750 -0.0619
 1923TIP3   OH227183   3.344   1.487   5.520 -0.1676 -0.2390  0.0157
 1923TIP3    H127184   3.318   1.408   5.474  0.1349 -0.7899  0.7619
 1923TIP3    H227185   3.376   1.546   5.452 -1.3434 -0.3592 -0.6604
 1924TIP3   OH227186   4.987   5.832   5.301  0.2922  0.4943  0.1555
 1924TIP3    H127187   4.946   5.830   5.387 -3.8991  0.7044 -1.5862
 1924TIP3    H227188   5.026   5.919   5.295 -2.3259  1.7838  0.7025
 1925TIP3   OH227189   0.775   2.052  14.681 -0.4865  0.1662 -0.3795
 1925TIP3    H127190   0.753   2.121  14.743  2.2297  1.5734 -0.8289
 1925TIP3    H227191   0.784   2.098  14.597 -0.4933 -1.0855 -1.0905
 1926TIP3   OH227192   4.971   2.856  17.132  0.1186  0.1624 -0.2505
 1926TIP3    H127193   4.902   2.812  17.183  1.6751 -0.0553  1.8300
 1926TIP3    H227194   5.043   2.792  17.131  1.5083  1.6513  0.6222
 1927TIP3   OH227195   2.287   4.044   4.583 -1.2662 -0.5000  0.4135
 1927TIP3    H127196   2.227   4.090   4.524 -2.2421 -1.2983  0.7497
 1927TIP3    H227197   2.312   3.965   4.535 -0.6956 -0.3130  0.3936
 1928TIP3   OH227198   1.299   3.957  13.797 -0.2594  0.3739 -0.1097
 1928TIP3    H127199   1.352   4.037  13.801 -0.9283  0.8421 -0.5216
 1928TIP3    H227200   1.210   3.987  13.815 -0.1485 -0.7064  2.8574
 1929TIP3   OH227201   2.618   1.346   4.003  0.1567  0.0592 -0.2493
 1929TIP3    H127202   2.601   1.273   4.063  0.1418  0.4656  0.2415
 1929TIP3    H227203   2.705   1.327   3.967 -0.3980 -0.9106 -1.1584
 1930TIP3   OH227204   6.192   1.218  15.037 -0.6788 -0.1481 -0.1198
 1930TIP3    H127205   6.168   1.193  14.948 -1.5192 -0.3432  0.1519
 1930TIP3    H227206   6.216   1.136  15.079 -4.0716 -0.7066  0.9680
 1931TIP3   OH227207   5.906   0.273  11.592  0.0957 -0.1168  0.0408
 1931TIP3    H127208   5.882   0.321  11.512 -0.4909 -0.9113 -0.2746
 1931TIP3    H227209   5.997   0.246  11.577  1.2004  2.6464  1.1128
 1932TIP3   OH227210   0.742   1.670  15.219  0.0906 -0.3744 -0.3454
 1932TIP3    H127211   0.674   1.711  15.272  0.5166 -0.2010  0.0710
 1932TIP3    H227212   0.824   1.690  15.265  0.3072 -1.6681 -0.1424
 1933TIP3   OH227213   2.059   3.142   1.237 -0.3828  0.4452  0.2069
 1933TIP3    H127214   1.979   3.095   1.215 -0.4361  0.0488  1.2235
 1933TIP3    H227215   2.058   3.220   1.180 -1.4320  0.3958  0.1457
 1934TIP3   OH227216   0.235   2.392  11.270 -0.2464 -0.4487  0.2423
 1934TIP3    H127217   0.301   2.421  11.334 -0.1239 -1.1464  0.4475
 1934TIP3    H227218   0.282   2.329  11.216 -0.3887  0.0408 -0.4614
 1935TIP3   OH227219   3.037   2.855   1.993 -0.3800  0.0250 -0.5054
 1935TIP3    H127220   3.009   2.937   1.953 -1.0086 -0.2184 -0.5691
 1935TIP3    H227221   2.993   2.787   1.943  0.4773 -0.3810 -0.7309
 1936TIP3   OH227222   4.301   4.411   5.746  0.3110 -0.1209 -0.1304
 1936TIP3    H127223   4.394   4.391   5.747 -0.1636 -2.8270 -1.1371
 1936TIP3    H227224   4.275   4.412   5.838  1.5742  2.3192  0.2568
 1937TIP3   OH227225   2.800   4.983   1.273  0.7073 -0.4735  0.0503
 1937TIP3    H127226   2.800   4.898   1.317  1.9922 -0.3362  0.3271
 1937TIP3    H227227   2.710   5.015   1.284  0.4438 -1.3965  0.6952
 1938TIP3   OH227228   5.264   6.388   1.403 -0.0141  0.2318  0.1020
 1938TIP3    H127229   5.169   6.398   1.408 -0.2469 -1.6770  0.3961
 1938TIP3    H227230   5.295   6.413   1.490 -0.2413  0.8796  0.0000
 1939TIP3   OH227231   6.640   3.773   3.148 -0.1458  0.2005 -0.2786
 1939TIP3    H127232   6.663   3.741   3.235 -0.9751  0.8372  0.1857
 1939TIP3    H227233   6.614   3.694   3.100  0.3811 -0.1639  0.0171
 1940TIP3   OH227234   5.229   4.251   2.790  0.4695  0.2033  0.1511
 1940TIP3    H127235   5.223   4.306   2.712  1.4161  1.5343  0.9790
 1940TIP3    H227236   5.311   4.203   2.778  0.2707 -0.1046  0.0143
 1941TIP3   OH227237   4.802   0.748   4.867 -0.5197  0.8556  0.7617
 1941TIP3    H127238   4.763   0.689   4.932 -0.3943  0.9105  0.8860
 1941TIP3    H227239   4.832   0.823   4.917  0.4250  0.4804  0.7758
 1942TIP3   OH227240   0.201   3.028   6.387 -0.2815  0.3109  0.2342
 1942TIP3    H127241   0.294   3.048   6.377 -0.2750 -0.4047 -1.4108
 1942TIP3    H227242   0.157   3.090   6.328 -0.7791  0.0815  0.3619
 1943TIP3   OH227243   1.685   3.353  17.286 -0.5098 -0.3258  0.2178
 1943TIP3    H127244   1.758   3.412  17.306  0.1054 -0.9186 -0.2356
 1943TIP3    H227245   1.607   3.401  17.315 -0.0042  0.6026  0.0924
 1944TIP3   OH227246   1.343   3.388  12.903  0.0428  0.4862  0.0742
 1944TIP3    H127247   1.321   3.328  12.974  0.7945  1.8062  1.4910
 1944TIP3    H227248   1.429   3.423  12.927  0.9483  0.0033 -2.1862
 1945TIP3   OH227249   6.280   0.110   5.282 -0.2879  0.1070 -0.2032
 1945TIP3    H127250   6.210   0.157   5.327 -0.3431  0.9658 -1.1538
 1945TIP3    H227251   6.352   0.173   5.276  0.5493 -0.7299  0.6712
 1946TIP3   OH227252   3.261   1.792   3.184 -0.1206  0.5248 -0.9473
 1946TIP3    H127253   3.199   1.861   3.207  0.6173  0.5504  1.2472
 1946TIP3    H227254   3.347   1.834   3.192  0.3778 -0.6998  1.0090
 1947TIP3   OH227255   0.297   6.581  15.925  0.4171 -0.0180  0.5561
 1947TIP3    H127256   0.352   6.536  15.861  0.0930 -0.8688  0.8673
 1947TIP3    H227257   0.343   6.570  16.008  1.0898  1.5066  0.4117
 1948TIP3   OH227258   4.808   5.178   1.937  0.1576  0.0540 -0.2298
 1948TIP3    H127259   4.743   5.111   1.952  1.1637 -0.9003 -0.0248
 1948TIP3    H227260   4.766   5.239   1.877 -1.5851  0.4736  1.3064
 1949TIP3   OH227261   6.349   1.683  16.950 -0.3074 -0.1453 -0.4046
 1949TIP3    H127262   6.333   1.653  16.861  2.6183 -0.1211 -1.0233
 1949TIP3    H227263   6.372   1.775  16.941  1.4896 -0.5006  0.1342
 1950TIP3   OH227264   6.667   2.720  10.526 -0.0442 -0.5975  0.2457
 1950TIP3    H127265   6.655   2.786  10.595 -1.9833 -0.7304  0.1077
 1950TIP3    H227266   6.760   2.722  10.506  0.2927  0.5781  1.7516
 1951TIP3   OH227267   4.507   1.281  13.316 -0.2155 -0.4799  0.1723
 1951TIP3    H127268   4.412   1.275  13.331 -0.3157  1.2216  0.3972
 1951TIP3    H227269   4.527   1.374  13.324  1.3797 -0.7221 -0.5648
 1952TIP3   OH227270   0.924   2.345   5.831  0.3886  0.3605 -0.1413
 1952TIP3    H127271   0.951   2.400   5.757  0.6373  0.1439 -0.2128
 1952TIP3    H227272   0.883   2.405   5.892  1.5969  0.7945  0.2563
 1953TIP3   OH227273   2.959   5.437   5.765 -0.4223  0.2146 -0.3970
 1953TIP3    H127274   2.906   5.512   5.738  0.2860  1.1281  0.6513
 1953TIP3    H227275   2.914   5.361   5.728 -1.0120  1.1641 -1.7262
 1954TIP3   OH227276   2.534   1.266   6.034 -0.4181  0.1903  0.0799
 1954TIP3    H127277   2.543   1.309   6.118 -3.8714  1.8510 -0.2600
 1954TIP3    H227278   2.512   1.175   6.056  3.1980 -0.6997  0.7854
 1955TIP3   OH227279   1.071   0.565   6.330  0.0836 -0.0985 -0.3046
 1955TIP3    H127280   1.075   0.475   6.362  0.5949 -0.2592 -0.8027
 1955TIP3    H227281   1.006   0.562   6.259  0.4692 -0.1851 -0.6564
 1956TIP3   OH227282   4.690   0.342   4.123 -0.4953  0.0298 -0.0247
 1956TIP3    H127283   4.765   0.336   4.182  0.0806  0.1805 -0.7247
 1956TIP3    H227284   4.723   0.312   4.039 -1.4140 -0.5754 -0.1839
 1957TIP3   OH227285   5.879   4.822   0.095  0.1288 -0.1399 -0.3021
 1957TIP3    H127286   5.917   4.758   0.035  0.0046 -0.9889  0.5155
 1957TIP3    H227287   5.788   4.793   0.106 -0.1102  0.5359 -0.3972
 1958TIP3   OH227288   3.965   5.845   1.630 -0.1119 -0.2381 -0.8036
 1958TIP3    H127289   3.998   5.877   1.545 -1.5211 -0.9728 -1.6583
 1958TIP3    H227290   3.878   5.810   1.610 -0.9790  0.6461  1.1714
 1959TIP3   OH227291   3.180   4.779  14.748 -0.4569 -0.3180 -0.7909
 1959TIP3    H127292   3.137   4.802  14.830 -0.1933  1.1811 -1.0479
 1959TIP3    H227293   3.260   4.734  14.775  0.0681  0.9202 -0.1668
 1960TIP3   OH227294   3.132   4.836  16.141  0.4503  0.5024  0.5478
 1960TIP3    H127295   3.180   4.912  16.109  0.2300  0.3689 -0.1041
 1960TIP3    H227296   3.200   4.778  16.176  0.8233  0.1132 -0.7782
 1961TIP3   OH227297   3.062   0.481   3.522 -0.2275 -0.6128 -0.1603
 1961TIP3    H127298   2.999   0.552   3.534 -0.5318 -0.7214 -1.0503
 1961TIP3    H227299   3.025   0.428   3.452 -0.6599 -2.4086  1.3438
 1962TIP3   OH227300   5.656   4.900   5.789 -0.2249 -0.1298 -0.6822
 1962TIP3    H127301   5.669   4.813   5.828 -0.0536 -0.2918 -1.0940
 1962TIP3    H227302   5.668   4.961   5.861  0.2264 -0.4188 -0.5114
 1963TIP3   OH227303   1.709   4.065  16.155 -0.2671  0.8441  0.0996
 1963TIP3    H127304   1.654   4.142  16.140 -0.2219  0.5911 -1.6697
 1963TIP3    H227305   1.653   3.991  16.131  0.2670  0.4684 -0.0017
 1964TIP3   OH227306   5.250   3.796  15.354  0.0293 -0.5303 -0.8718
 1964TIP3    H127307   5.174   3.812  15.410  0.3544 -0.5843 -0.4137
 1964TIP3    H227308   5.282   3.710  15.379  1.0490  0.0397 -0.0999
 1965TIP3   OH227309   6.704   0.640  12.629 -0.0528  0.6621  0.0920
 1965TIP3    H127310   6.611   0.662  12.621  0.2602  1.6835 -1.1165
 1965TIP3    H227311   6.748   0.725  12.634  0.7280  0.1780  2.1217
 1966TIP3   OH227312   3.460   6.281  14.809  0.6416  0.0921  0.2474
 1966TIP3    H127313   3.531   6.311  14.866  2.4431 -1.3962 -1.0769
 1966TIP3    H227314   3.410   6.220  14.863  1.3870 -0.1147  0.7120
 1967TIP3   OH227315   0.965   0.081  11.841  0.2963 -0.1216  0.1187
 1967TIP3    H127316   1.056   0.060  11.859  0.6277  1.3368  0.2992
 1967TIP3    H227317   0.935   0.127  11.919 -0.7145 -0.8742  0.1999
 1968TIP3   OH227318   1.273   3.485   4.154  0.1668  0.4415  0.1462
 1968TIP3    H127319   1.314   3.399   4.142 -2.3403 -1.0278  1.2524
 1968TIP3    H227320   1.347   3.546   4.156  2.0788 -1.6730 -0.4359
 1969TIP3   OH227321   0.722   3.646  16.124 -0.0577 -0.4758 -0.3181
 1969TIP3    H127322   0.688   3.563  16.090 -2.2176 -0.8715  2.4277
 1969TIP3    H227323   0.773   3.620  16.201  1.1572  0.6236 -0.7340
 1970TIP3   OH227324   4.800   3.398   5.435 -0.0920 -0.5510  0.2682
 1970TIP3    H127325   4.790   3.303   5.440 -0.5489 -0.6100 -1.2277
 1970TIP3    H227326   4.842   3.413   5.350  2.3091  0.4513  1.5393
 1971TIP3   OH227327   1.050   2.303   2.048  1.2209 -0.2468  0.0425
 1971TIP3    H127328   1.012   2.324   2.133  0.3538  0.9249 -0.5948
 1971TIP3    H227329   1.144   2.308   2.061  1.0988 -0.3304  0.9895
 1972TIP3   OH227330   3.437   0.513   3.277  0.1775 -0.4325 -0.5372
 1972TIP3    H127331   3.406   0.440   3.224 -1.0061  1.5028 -2.7082
 1972TIP3    H227332   3.357   0.555   3.308  0.8171  0.1994  0.2898
 1973TIP3   OH227333   6.178   3.933   3.517 -0.1366  0.1682  0.0831
 1973TIP3    H127334   6.085   3.929   3.535 -0.0225 -0.8754  0.4838
 1973TIP3    H227335   6.220   3.932   3.603  0.3267 -2.3210 -0.1083
 1974TIP3   OH227336   2.381   0.920  14.354 -0.1057  0.0736  0.2255
 1974TIP3    H127337   2.330   0.980  14.408 -0.8629 -1.0652  0.8350
 1974TIP3    H227338   2.369   0.835  14.397  0.3224 -0.6308 -1.0262
 1975TIP3   OH227339   3.632   0.805   1.772 -0.5116 -0.1610  0.2946
 1975TIP3    H127340   3.586   0.762   1.700  0.9402  0.3747 -0.9912
 1975TIP3    H227341   3.565   0.814   1.840 -1.8644 -0.8847 -0.8761
 1976TIP3   OH227342   5.998   4.387  14.584  0.3761 -0.6535 -0.3418
 1976TIP3    H127343   6.018   4.338  14.504  3.3300 -2.1136  1.1309
 1976TIP3    H227344   5.954   4.324  14.641  0.5868 -0.4109  0.1003
 1977TIP3   OH227345   4.803   5.294  16.933  0.0387 -0.1303 -0.0538
 1977TIP3    H127346   4.714   5.325  16.917 -0.2629  0.1737  1.9181
 1977TIP3    H227347   4.811   5.214  16.881 -1.7571 -0.7210  0.5205
 1978TIP3   OH227348   4.652   2.152  12.779  0.1038  0.0485 -0.0812
 1978TIP3    H127349   4.558   2.137  12.771  0.1455  0.1556 -0.7928
 1978TIP3    H227350   4.682   2.085  12.841 -0.6303  0.7748  1.0920
 1979TIP3   OH227351   4.035   5.452   1.973  0.6780  0.5087  0.1572
 1979TIP3    H127352   3.990   5.369   1.955 -0.0556  0.9764 -0.2291
 1979TIP3    H227353   4.125   5.427   1.991  0.3027 -0.4442  0.7842
 1980TIP3   OH227354   3.312   5.010  11.530 -0.2199 -0.1555  0.4605
 1980TIP3    H127355   3.402   5.043  11.533 -0.7004  1.5313 -1.2595
 1980TIP3    H227356   3.262   5.072  11.582 -0.4892 -0.8171  1.0100
 1981TIP3   OH227357   3.116   6.533  16.146  0.3139 -0.2555  0.0887
 1981TIP3    H127358   3.164   6.519  16.228 -0.0038  0.1775  0.3547
 1981TIP3    H227359   3.184   6.556  16.083  0.4829  0.1682  0.4159
 1982TIP3   OH227360   0.940   5.116   0.558 -0.0762 -0.0980 -0.3947
 1982TIP3    H127361   0.867   5.166   0.593  1.0854  2.0422 -0.8745
 1982TIP3    H227362   0.901   5.060   0.492 -1.6648 -1.1320  1.3290
 1983TIP3   OH227363   5.723   1.274  13.921 -0.1353  0.1889  0.0379
 1983TIP3    H127364   5.791   1.285  13.987 -1.3633  1.5677  1.1243
 1983TIP3    H227365   5.738   1.185  13.887  0.3914 -0.6739  2.3183
 1984TIP3   OH227366   6.308   2.551  11.929 -0.0089  0.0436  0.0167
 1984TIP3    H127367   6.400   2.526  11.916 -0.0082  0.6722 -1.2980
 1984TIP3    H227368   6.312   2.639  11.966  0.0028  2.2849 -4.6355
 1985TIP3   OH227369   5.507   1.093   0.156 -0.0447 -0.3005  0.3055
 1985TIP3    H127370   5.547   1.012   0.188 -0.6330 -1.0401 -0.7756
 1985TIP3    H227371   5.579   1.157   0.157  1.8166 -2.0494 -3.3657
 1986TIP3   OH227372   4.846   3.148   1.584 -0.2354 -0.2765  0.0081
 1986TIP3    H127373   4.765   3.194   1.604  1.6207  3.6060 -0.5918
 1986TIP3    H227374   4.891   3.141   1.668  0.2152  0.6461 -0.1422
 1987TIP3   OH227375   4.733   1.343  12.998  0.1759 -0.4864  0.2929
 1987TIP3    H127376   4.661   1.280  13.011  0.8545 -1.1989  0.7083
 1987TIP3    H227377   4.776   1.348  13.083 -0.7125  1.6702  0.6833
 1988TIP3   OH227378   6.585   5.298   2.438  0.5348 -0.1314 -0.6432
 1988TIP3    H127379   6.514   5.344   2.483 -0.3880 -2.2770  0.2440
 1988TIP3    H227380   6.560   5.301   2.346 -1.4157 -1.8493 -0.2510
 1989TIP3   OH227381   5.562   4.879  13.582 -0.0365  0.4345  0.2656
 1989TIP3    H127382   5.470   4.885  13.557 -0.5180  2.0006  2.1928
 1989TIP3    H227383   5.580   4.961  13.627  2.7775  0.8948 -1.4428
 1990TIP3   OH227384   4.918   1.260   1.243  0.1744  0.2790  0.6171
 1990TIP3    H127385   4.859   1.275   1.169  0.4002  0.3306  0.4471
 1990TIP3    H227386   4.984   1.329   1.236  1.0546 -0.6006 -0.0048
 1991TIP3   OH227387   1.847   3.266   5.230 -0.4445 -0.2076 -0.2241
 1991TIP3    H127388   1.783   3.314   5.283 -0.8942 -1.3607  0.3085
 1991TIP3    H227389   1.801   3.245   5.149 -0.2437  0.2601 -0.4627
 1992TIP3   OH227390   0.163   0.295   1.780  0.7777 -0.1591 -0.1534
 1992TIP3    H127391   0.180   0.386   1.755  2.3869 -0.5072 -0.4028
 1992TIP3    H227392   0.199   0.244   1.708 -1.5966 -0.9903 -0.8319
 1993TIP3   OH227393   5.661   1.621   3.493  0.1880 -0.0455 -0.4905
 1993TIP3    H127394   5.724   1.692   3.490 -0.3639  0.4389 -0.6929
 1993TIP3    H227395   5.612   1.628   3.411 -2.6864  1.9400  1.2334
 1994TIP3   OH227396   4.077   4.715  15.790 -1.4059 -0.4213 -0.2453
 1994TIP3    H127397   3.983   4.698  15.776 -1.3960  0.6625 -1.8772
 1994TIP3    H227398   4.121   4.663  15.723 -1.1843  2.6873 -2.7624
 1995TIP3   OH227399   3.150   2.657  16.770  0.3920  0.2917  0.4262
 1995TIP3    H127400   3.113   2.604  16.841  1.6698 -0.7348  0.3612
 1995TIP3    H227401   3.130   2.747  16.795  0.2396 -0.0871  1.7528
 1996TIP3   OH227402   3.703   0.173  13.841 -0.6348 -0.5352  0.2544
 1996TIP3    H127403   3.668   0.093  13.802  0.8776 -1.7521  1.2274
 1996TIP3    H227404   3.700   0.157  13.935 -0.2356  0.5239  0.4659
 1997TIP3   OH227405   3.876   3.985  15.749  0.0369  0.3267 -0.1487
 1997TIP3    H127406   3.954   3.930  15.758 -0.3786 -0.1292  0.8891
 1997TIP3    H227407   3.831   3.976  15.833 -0.5890  1.4273 -0.3439
 1998TIP3   OH227408   1.379   1.816   4.816 -0.3225  0.0816 -0.2709
 1998TIP3    H127409   1.407   1.903   4.844 -2.1731  0.5801  0.1515
 1998TIP3    H227410   1.321   1.786   4.886  1.6685 -2.3224  0.5521
 1999TIP3   OH227411   3.430   1.420  13.985 -0.1824  0.3850  0.0405
 1999TIP3    H127412   3.524   1.426  14.004 -0.6475  0.8968  2.3908
 1999TIP3    H227413   3.387   1.445  14.066 -2.3766 -2.8865  0.0463
 2000TIP3   OH227414   6.724   2.999   6.634  0.3088 -0.2459 -0.1717
 2000TIP3    H127415   6.750   3.079   6.588 -0.0073  1.1445  1.8986
 2000TIP3    H227416   6.646   3.024   6.683 -0.3184 -2.1060 -0.1567
 2001TIP3   OH227417   2.719   1.301  16.496  0.4035  0.2849 -1.6051
 2001TIP3    H127418   2.642   1.276  16.446 -0.4929  2.3062 -1.3294
 2001TIP3    H227419   2.726   1.396  16.484 -1.7552  1.6316  4.4092
 2002TIP3   OH227420   3.735   1.372  12.899  0.4287 -0.2167 -0.1775
 2002TIP3    H127421   3.819   1.389  12.942 -0.7845  0.8047  1.9946
 2002TIP3    H227422   3.758   1.340  12.812  3.0589 -0.6986  0.6022
 2003TIP3   OH227423   2.829   2.399   2.343 -0.4000  0.3951 -0.0040
 2003TIP3    H127424   2.807   2.491   2.359  0.9683  0.4602  1.7853
 2003TIP3    H227425   2.768   2.372   2.275 -1.4586  2.3626  0.0745
 2004TIP3   OH227426   1.646   2.289   3.552  0.0954 -0.2826  0.5161
 2004TIP3    H127427   1.646   2.232   3.475 -1.1422 -1.8782  1.6296
 2004TIP3    H227428   1.645   2.378   3.516  2.1813 -0.8846 -1.2748
 2005TIP3   OH227429   4.403   6.185  15.747 -0.1334  0.1966  0.0696
 2005TIP3    H127430   4.419   6.115  15.810 -2.4923 -1.6302 -1.1665
 2005TIP3    H227431   4.379   6.139  15.666 -0.3176  2.4487 -1.2359
 2006TIP3   OH227432   1.192   1.539   3.612 -0.3341  0.2013  0.1207
 2006TIP3    H127433   1.257   1.469   3.615  2.4404  2.6134  0.5129
 2006TIP3    H227434   1.151   1.530   3.526  1.2818 -0.7988 -0.5882
 2007TIP3   OH227435   5.354   6.451   1.675  0.4481  0.2673  0.2227
 2007TIP3    H127436   5.319   6.368   1.708  0.0186 -0.0447 -0.9805
 2007TIP3    H227437   5.338   6.514   1.746  1.7656 -0.8834  1.6106
 2008TIP3   OH227438   0.901   4.689  16.310  0.0531 -0.0199 -0.6877
 2008TIP3    H127439   0.831   4.736  16.355  1.1942  0.4637  0.6486
 2008TIP3    H227440   0.919   4.741  16.232 -1.9336 -0.8530 -1.7744
 2009TIP3   OH227441   0.594   1.021   5.786 -0.4096  0.3352  0.2271
 2009TIP3    H127442   0.552   1.104   5.764 -1.1675  0.0167  0.4027
 2009TIP3    H227443   0.530   0.977   5.842  1.0759  0.7261  2.3361
 2010TIP3   OH227444   3.714   4.330  12.997 -0.4678 -0.2304  0.1179
 2010TIP3    H127445   3.665   4.322  12.915 -0.1556  0.7607 -0.1663
 2010TIP3    H227446   3.668   4.398  13.046  0.3083  0.3337  0.0723
 2011TIP3   OH227447   6.530   4.690  14.860  0.2482  0.1233  0.1911
 2011TIP3    H127448   6.442   4.696  14.824  0.4026  0.1702 -0.1769
 2011TIP3    H227449   6.516   4.670  14.953 -0.1347 -0.5349 -0.0013
 2012TIP3   OH227450   1.262   0.578  14.292  0.4270  0.3375  0.3982
 2012TIP3    H127451   1.263   0.566  14.387  0.1391 -0.2991  0.3249
 2012TIP3    H227452   1.345   0.541  14.262 -0.2980 -1.2325  0.2136
 2013TIP3   OH227453   4.684   2.968  10.834  0.0591  0.2031 -0.1750
 2013TIP3    H127454   4.734   3.049  10.840 -0.5122  0.5903 -0.5757
 2013TIP3    H227455   4.733   2.914  10.772 -0.3392  0.8120 -1.0192
 2014TIP3   OH227456   6.109   5.202  12.589  0.0848  0.3952  0.1082
 2014TIP3    H127457   6.194   5.166  12.612 -0.4368 -0.5069  0.6712
 2014TIP3    H227458   6.069   5.224  12.674 -1.0408 -1.0726  0.0004
 2015TIP3   OH227459   1.060   2.295  12.175  0.6887  0.4893 -0.4886
 2015TIP3    H127460   1.149   2.314  12.204  1.1235 -2.2314  0.2839
 2015TIP3    H227461   1.071   2.251  12.091  0.2765 -1.3684  0.3761
 2016TIP3   OH227462   1.770   0.613   3.865 -0.6792  0.0492  0.2337
 2016TIP3    H127463   1.808   0.536   3.908  0.8543  1.0626  0.7451
 2016TIP3    H227464   1.780   0.595   3.771 -0.1582 -0.3051  0.3508
 2017TIP3   OH227465   4.636   4.696   2.366 -0.2373 -0.1369  0.0675
 2017TIP3    H127466   4.554   4.744   2.352 -0.3298 -0.3538 -0.1316
 2017TIP3    H227467   4.608   4.608   2.390 -0.0751  0.0497  0.9892
 2018TIP3   OH227468   3.544   5.644  14.415  0.7280 -0.0843 -0.2471
 2018TIP3    H127469   3.474   5.615  14.473  0.9312  0.6548  0.3812
 2018TIP3    H227470   3.600   5.568  14.405 -0.2467 -0.7453 -0.9086
 2019TIP3   OH227471   6.425   6.180  11.065  0.8037  0.1844 -0.3123
 2019TIP3    H127472   6.350   6.131  11.032  0.3610  0.5023  0.2072
 2019TIP3    H227473   6.389   6.234  11.136  1.3070  1.1410 -0.7701
 2020TIP3   OH227474   6.215   1.790   4.364 -0.5590  0.2929  0.2287
 2020TIP3    H127475   6.229   1.761   4.274 -1.3093 -0.9100  0.4765
 2020TIP3    H227476   6.272   1.866   4.374  1.0543 -0.7467 -0.6454
 2021TIP3   OH227477   3.476   5.871   4.423  0.0550 -0.4147 -0.0274
 2021TIP3    H127478   3.491   5.963   4.403 -1.1441 -0.5834 -2.0705
 2021TIP3    H227479   3.442   5.871   4.512  0.7665  1.0341  0.2766
 2022TIP3   OH227480   3.139   5.894   3.988 -0.1199  0.5505 -0.0662
 2022TIP3    H127481   3.183   5.895   4.073  1.4429 -1.9320 -0.7526
 2022TIP3    H227482   3.062   5.838   4.001 -0.6110  1.2257  0.0031
 2023TIP3   OH227483   5.288   1.544   3.073  0.1072  0.0042  0.1397
 2023TIP3    H127484   5.226   1.510   3.138 -0.2125 -0.7663 -0.5601
 2023TIP3    H227485   5.300   1.472   3.011  0.2217  0.8091 -0.7901
 2024TIP3   OH227486   5.458   4.751   2.688 -0.0009 -0.0912  0.1103
 2024TIP3    H127487   5.379   4.804   2.703  0.2359  0.2227  0.2447
 2024TIP3    H227488   5.424   4.663   2.671 -0.4323  0.2199 -0.7133
 2025TIP3   OH227489   0.337   5.112   5.222 -0.1488  0.0573 -0.0701
 2025TIP3    H127490   0.346   5.165   5.302 -0.2982  0.5562 -0.3815
 2025TIP3    H227491   0.410   5.051   5.226 -0.5296 -0.3653  0.7842
 2026TIP3   OH227492   2.532   4.363   0.461  0.3607  0.0865  0.2368
 2026TIP3    H127493   2.530   4.307   0.538 -2.5560 -0.8902 -0.4352
 2026TIP3    H227494   2.462   4.330   0.405  1.6480  1.4562 -2.3739
 2027TIP3   OH227495   5.878   0.545   5.848  0.0052  0.0492  0.2811
 2027TIP3    H127496   5.844   0.460   5.818  0.5900 -0.1249  0.1032
 2027TIP3    H227497   5.972   0.531   5.857 -0.1932 -0.1425  2.9271
 2028TIP3   OH227498   4.048   2.605  15.729 -0.3209 -0.5429 -0.1870
 2028TIP3    H127499   3.978   2.629  15.790 -0.4174 -1.1125 -0.0712
 2028TIP3    H227500   4.110   2.556  15.783  0.8102  1.0380  0.0073
 2029TIP3   OH227501   5.055   4.915   5.346  0.4842  0.2933  0.3777
 2029TIP3    H127502   5.072   4.839   5.402 -0.7561  0.7856  1.4898
 2029TIP3    H227503   5.137   4.964   5.346  1.0544 -0.6271  0.2850
 2030TIP3   OH227504   2.522   1.124  15.248  0.0400  0.5424 -0.4807
 2030TIP3    H127505   2.478   1.180  15.312 -0.4839  1.0422 -1.2631
 2030TIP3    H227506   2.474   1.138  15.166  1.2697  0.6356 -1.2182
 2031TIP3   OH227507   3.933   4.465   5.217  0.0263  0.3992  0.5957
 2031TIP3    H127508   3.898   4.535   5.162  2.0562  0.3299 -0.9193
 2031TIP3    H227509   3.959   4.510   5.298  2.1186  1.7022 -0.6789
 2032TIP3   OH227510   3.595   5.022  11.654 -0.4764  0.1678  0.3075
 2032TIP3    H127511   3.574   5.029  11.561 -1.5519  0.5997  0.5682
 2032TIP3    H227512   3.690   5.031  11.658 -0.4307  0.2584 -0.7356
 2033TIP3   OH227513   2.452   2.234  10.710 -0.5748  0.4416 -0.4080
 2033TIP3    H127514   2.445   2.167  10.778  1.3975  1.8254  1.2670
 2033TIP3    H227515   2.362   2.245  10.679 -0.9864 -3.0964 -0.9884
 2034TIP3   OH227516   1.609   3.507  14.373  0.5415 -0.1481 -0.2195
 2034TIP3    H127517   1.607   3.599  14.399  0.1641  0.1258 -1.1786
 2034TIP3    H227518   1.523   3.473  14.397  0.5767 -0.1722 -0.1285
 2035TIP3   OH227519   3.982   1.500  16.206  0.1548 -0.8447 -0.2021
 2035TIP3    H127520   3.972   1.506  16.111  0.6473  0.2415 -0.1960
 2035TIP3    H227521   3.905   1.451  16.235 -1.0180  0.4625 -0.9768
 2036TIP3   OH227522   3.372   5.226  11.872 -0.2018  0.4216  0.0206
 2036TIP3    H127523   3.382   5.286  11.946 -1.1355  0.6543 -0.0285
 2036TIP3    H227524   3.437   5.158  11.887  0.9045  1.4527  0.0585
 2037TIP3   OH227525   3.986   3.792  14.171  0.0703  0.5828 -0.4043
 2037TIP3    H127526   3.995   3.710  14.219 -2.1464  1.8156  2.4028
 2037TIP3    H227527   4.072   3.807  14.133  1.1669 -1.9046  0.8604
 2038TIP3   OH227528   1.490   2.083   2.405  0.5666  0.3010  0.1620
 2038TIP3    H127529   1.558   2.151   2.403  0.3900  0.5033  0.8222
 2038TIP3    H227530   1.470   2.073   2.498  0.0575 -0.1249  0.0047
 2039TIP3   OH227531   2.535   4.215   4.452 -0.5671 -1.0074  0.5102
 2039TIP3    H127532   2.510   4.270   4.526  0.3560  0.4112 -0.1889
 2039TIP3    H227533   2.603   4.157   4.487  1.8088  1.4415  0.2323
 2040TIP3   OH227534   2.346   3.493  13.648  0.5206  0.3657 -0.4728
 2040TIP3    H127535   2.439   3.480  13.661  0.2116 -0.9432  0.6059
 2040TIP3    H227536   2.304   3.450  13.722 -0.9764  0.3348 -1.2780
 2041TIP3   OH227537   1.615   0.281  14.822 -0.2219  0.3422 -0.0018
 2041TIP3    H127538   1.708   0.256  14.823 -0.3414 -0.1991  2.4794
 2041TIP3    H227539   1.616   0.376  14.808  0.6525  0.2725 -0.5256
 2042TIP3   OH227540   5.046   3.481   5.655 -0.8052 -0.7544 -0.8175
 2042TIP3    H127541   5.140   3.466   5.645 -0.2951 -0.5794  2.4808
 2042TIP3    H227542   5.031   3.567   5.615  0.9271  0.2205  0.4624
 2043TIP3   OH227543   6.673   3.398  12.622  0.1785 -0.1913  0.5631
 2043TIP3    H127544   6.687   3.311  12.659  0.5794 -1.1067 -1.5922
 2043TIP3    H227545   6.579   3.401  12.604  0.1912 -0.2695  0.4782
 2044TIP3   OH227546   2.261   6.715  14.812  0.0683  0.2202 -0.4432
 2044TIP3    H127547   2.240   6.622  14.822  1.1705 -0.1325 -1.1689
 2044TIP3    H227548   2.245   6.734  14.720  0.0383  0.6969 -0.3421
 2045TIP3   OH227549   0.917   3.540   5.524  0.5912 -0.8499 -0.2555
 2045TIP3    H127550   0.860   3.604   5.482  0.3815 -0.9679 -0.1548
 2045TIP3    H227551   0.995   3.589   5.548 -0.0531 -0.3392  0.8975
 2046TIP3   OH227552   0.334   5.995  14.319 -0.3753 -0.4168 -0.1450
 2046TIP3    H127553   0.251   5.954  14.345  0.0694 -0.5363  1.1546
 2046TIP3    H227554   0.399   5.926  14.331  0.1393  0.1520  0.3809
 2047TIP3   OH227555   5.858   1.262  13.219 -0.2280  0.2375 -0.0030
 2047TIP3    H127556   5.819   1.338  13.264  0.1099 -0.4686  1.5404
 2047TIP3    H227557   5.935   1.240  13.272  0.7591 -0.0388 -1.5068
 2048TIP3   OH227558   0.046   2.705  13.948 -0.7670 -0.1095 -0.2395
 2048TIP3    H127559  -0.041   2.740  13.966 -1.2940 -0.8904 -1.1578
 2048TIP3    H227560   0.049   2.621  13.994 -0.6663 -0.2823 -0.5547
 2049TIP3   OH227561   4.240   6.207   3.335  0.7345 -0.3329  0.1145
 2049TIP3    H127562   4.221   6.229   3.244 -0.8024  0.3881  0.5708
 2049TIP3    H227563   4.256   6.113   3.335 -0.1109 -0.4870 -0.7857
 2050TIP3   OH227564   0.754   6.726  12.823 -0.3625  0.3254  0.4460
 2050TIP3    H127565   0.846   6.712  12.845  0.2463  0.0196 -1.9754
 2050TIP3    H227566   0.710   6.645  12.848  0.1946  0.1224  0.7818
 2051TIP3   OH227567   6.666   6.093   4.600 -0.5093  0.0666 -0.0204
 2051TIP3    H127568   6.662   6.165   4.663 -2.2052 -1.1080  1.2961
 2051TIP3    H227569   6.614   6.024   4.639  0.5469 -1.6847 -1.5435
 2052TIP3   OH227570   1.235   1.728   5.050 -0.3544 -0.0740 -0.4501
 2052TIP3    H127571   1.193   1.782   5.118 -0.4965 -0.9769  0.1850
 2052TIP3    H227572   1.163   1.678   5.012 -0.5167  1.3515 -2.2030
 2053TIP3   OH227573   6.414   3.694   6.581 -0.1496 -0.3162 -0.6743
 2053TIP3    H127574   6.453   3.682   6.495 -0.4475  1.3447 -1.0887
 2053TIP3    H227575   6.329   3.735   6.563 -0.4353 -0.4096  0.3802
 2054TIP3   OH227576   2.422   4.794   0.402 -0.0160  0.1612 -0.1784
 2054TIP3    H127577   2.395   4.740   0.328 -0.3187  0.1399 -0.0548
 2054TIP3    H227578   2.505   4.756   0.430  0.5901  0.7549 -1.0967
 2055TIP3   OH227579   3.606   0.067  13.427 -0.4127  0.0978 -0.0571
 2055TIP3    H127580   3.528   0.112  13.396 -1.4712 -1.3718  0.3378
 2055TIP3    H227581   3.580   0.029  13.512  0.1900 -1.7521 -0.6376
 2056TIP3   OH227582   6.458   5.028   3.468  0.4167  0.0796 -0.0602
 2056TIP3    H127583   6.430   5.028   3.560 -1.6326  0.0338 -0.6299
 2056TIP3    H227584   6.459   5.121   3.444  2.3719  0.2101  0.3576
 2057TIP3   OH227585   2.551   4.721  15.552 -0.1594 -0.2649 -0.0783
 2057TIP3    H127586   2.482   4.757  15.496  0.7970  2.3275  0.3081
 2057TIP3    H227587   2.536   4.761  15.638  1.2978 -0.3561  0.2417
 2058TIP3   OH227588   5.109   5.137   0.162 -0.4832 -0.7291 -0.1679
 2058TIP3    H127589   5.015   5.152   0.159 -0.1323  2.1290  0.4834
 2058TIP3    H227590   5.147   5.216   0.123  1.6619 -2.0042 -0.8468
 2059TIP3   OH227591   0.536   4.002   4.477 -0.7101  0.3334  0.2088
 2059TIP3    H127592   0.486   4.038   4.404 -1.4425 -0.4243  0.3298
 2059TIP3    H227593   0.489   4.031   4.555 -0.6207  0.1179  0.3423
 2060TIP3   OH227594   0.940   2.378   2.292 -0.6490  0.5629 -0.2857
 2060TIP3    H127595   0.988   2.458   2.310 -2.6472  2.0382 -1.1088
 2060TIP3    H227596   0.973   2.314   2.355  0.2284  2.3436  1.1196
 2061TIP3   OH227597   6.098   1.655  12.334 -0.2813  0.0762 -0.0009
 2061TIP3    H127598   6.169   1.659  12.398 -0.6437 -0.0603  0.4177
 2061TIP3    H227599   6.141   1.654  12.249  0.1905  1.5714  0.1946
 2062TIP3   OH227600   0.562   1.487   3.802  0.3408 -0.7048 -0.2892
 2062TIP3    H127601   0.545   1.489   3.896 -0.2568 -0.0484 -0.3991
 2062TIP3    H227602   0.649   1.525   3.792 -0.6917  1.8954 -0.1970
 2063TIP3   OH227603   0.982   0.376  13.688  0.0263  0.2714  0.4879
 2063TIP3    H127604   1.002   0.459  13.643 -0.1707 -0.0669 -0.2449
 2063TIP3    H227605   1.054   0.365  13.750  1.5171 -0.3012 -1.2318
 2064TIP3   OH227606   4.076   4.553   4.432 -0.2800  0.1380  0.2457
 2064TIP3    H127607   4.043   4.612   4.364  1.2771  0.9710  0.1566
 2064TIP3    H227608   4.131   4.490   4.384  0.4839  0.4705  0.6710
 2065TIP3   OH227609   0.261   5.782   0.591  0.6398  0.1493 -0.2453
 2065TIP3    H127610   0.283   5.743   0.506  0.3286 -0.3447 -0.1027
 2065TIP3    H227611   0.173   5.750   0.610  0.2084  1.2534 -0.3090
 2066TIP3   OH227612   4.005   0.165   2.005 -0.2411  0.1772 -0.3865
 2066TIP3    H127613   4.088   0.193   2.044 -0.3621  2.5053 -1.5867
 2066TIP3    H227614   4.031   0.110   1.931  0.2544  0.6320 -0.5630
 2067TIP3   OH227615   3.966   6.438  15.877  0.1233  0.4959 -0.5626
 2067TIP3    H127616   3.926   6.525  15.877 -0.2271  0.4086  1.9154
 2067TIP3    H227617   4.060   6.455  15.875  0.0669  0.9763  0.4019
 2068TIP3   OH227618   1.238   2.383   4.245  0.0586  0.0200 -0.0334
 2068TIP3    H127619   1.285   2.349   4.321  0.1352  1.8336  0.7756
 2068TIP3    H227620   1.275   2.470   4.230 -0.6695  0.1113 -1.5174
 2069TIP3   OH227621   5.176   4.651   1.241  0.4597 -0.4043 -0.1879
 2069TIP3    H127622   5.114   4.707   1.289  2.5385  1.8488  0.1162
 2069TIP3    H227623   5.140   4.645   1.153 -0.3158  0.6436  0.0337
 2070TIP3   OH227624   2.853   1.511  11.287 -0.2814 -0.0491 -0.3296
 2070TIP3    H127625   2.799   1.566  11.344 -1.5445  0.0516 -1.5790
 2070TIP3    H227626   2.941   1.549  11.294 -0.5155  0.3079  1.0713
 2071TIP3   OH227627   0.420   0.727   6.016 -0.0087 -0.0493  0.0373
 2071TIP3    H127628   0.368   0.674   5.955 -1.8727 -0.0644  1.5455
 2071TIP3    H227629   0.383   0.815   6.009 -0.5722 -0.1436  1.4184
 2072TIP3   OH227630   6.566   4.527  11.616  0.5777  0.5772  0.1173
 2072TIP3    H127631   6.568   4.551  11.523 -1.8152  0.7251  0.0559
 2072TIP3    H227632   6.653   4.492  11.633  0.7663 -0.3753 -2.4354
 2073TIP3   OH227633   3.233   2.379  10.800  0.0406 -0.0915 -0.4659
 2073TIP3    H127634   3.165   2.318  10.773 -0.8835  0.4901  0.4744
 2073TIP3    H227635   3.299   2.325  10.844  1.3560 -0.9948 -3.2784
 2074TIP3   OH227636   5.883   6.333  16.747 -0.0357 -0.2596 -0.0795
 2074TIP3    H127637   5.811   6.341  16.684  2.5645  0.7896 -3.2126
 2074TIP3    H227638   5.843   6.352  16.832 -3.9313 -2.4089 -1.2078
 2075TIP3   OH227639   0.632   5.016   4.099  0.4782 -0.0696 -0.4028
 2075TIP3    H127640   0.609   5.074   4.027  0.7692  1.0285  0.3466
 2075TIP3    H227641   0.603   4.929   4.072  0.1242  0.4111 -1.6056
 2076TIP3   OH227642   0.908   5.099   1.785 -0.4767 -0.2164 -0.2028
 2076TIP3    H127643   0.913   5.194   1.798  0.4775 -0.0171 -1.7797
 2076TIP3    H227644   0.904   5.088   1.690 -2.3781 -1.7104 -0.0101
 2077TIP3   OH227645   0.971   1.468  13.695  0.2234  0.0877 -0.3060
 2077TIP3    H127646   0.916   1.471  13.774  1.5857  1.9669  0.6509
 2077TIP3    H227647   0.918   1.511  13.628 -0.5450 -0.5987 -0.1590
 2078TIP3   OH227648   1.962   1.805  16.105 -0.3738 -0.0003 -0.0319
 2078TIP3    H127649   1.940   1.813  16.013 -0.2742  0.4088 -0.0229
 2078TIP3    H227650   1.879   1.788  16.149 -0.5650  0.7199 -0.0933
 2079TIP3   OH227651   2.288   3.660   3.241 -0.0876 -0.3853 -0.4788
 2079TIP3    H127652   2.274   3.572   3.275  0.6007 -0.1721  0.3856
 2079TIP3    H227653   2.216   3.673   3.179 -0.2120 -1.5361 -0.5947
 2080TIP3   OH227654   3.913   0.780   3.020 -0.2761  0.7585  0.1331
 2080TIP3    H127655   3.883   0.768   2.929 -0.1280  0.8581  0.0713
 2080TIP3    H227656   3.987   0.721   3.029 -2.7515 -2.4673  1.4364
 2081TIP3   OH227657   0.388   2.737  13.784  0.4395 -0.2438  0.0959
 2081TIP3    H127658   0.389   2.745  13.689 -0.7970 -1.1198 -0.0150
 2081TIP3    H227659   0.466   2.785  13.813  0.3577  0.7874 -1.2826
 2082TIP3   OH227660   4.301   2.418  16.049  0.0597  0.1884  0.2925
 2082TIP3    H127661   4.219   2.451  16.013 -0.5627 -1.2512  0.3290
 2082TIP3    H227662   4.369   2.468  16.003 -0.7998  2.9370  1.7684
 2083TIP3   OH227663   0.536   5.883  13.226 -0.4254 -0.3680 -0.4099
 2083TIP3    H127664   0.560   5.791  13.214  1.6384 -0.0247  0.6391
 2083TIP3    H227665   0.519   5.916  13.138 -0.8133 -1.6451 -0.8324
 2084TIP3   OH227666   2.943   5.560   2.111  0.2142 -0.0295  0.4717
 2084TIP3    H127667   3.037   5.569   2.094  0.4236  0.1301  1.6289
 2084TIP3    H227668   2.921   5.635   2.166 -0.4955 -0.3140  0.5834
 2085TIP3   OH227669   5.057   2.925  16.334  0.4270  0.3570 -0.3605
 2085TIP3    H127670   5.013   2.858  16.386 -1.4133 -0.5656 -2.9216
 2085TIP3    H227671   5.148   2.896  16.330  0.2989 -0.3326  1.0571
 2086TIP3   OH227672   4.819   1.227   2.944  0.3240 -0.2772 -0.2414
 2086TIP3    H127673   4.861   1.174   3.011 -0.8960 -0.0434  0.7530
 2086TIP3    H227674   4.814   1.170   2.867  0.8200 -0.9005  0.1837
 2087TIP3   OH227675   2.511   4.230   0.696 -0.1466  0.2685 -0.1055
 2087TIP3    H127676   2.595   4.276   0.696 -0.0270  0.0538  0.4038
 2087TIP3    H227677   2.472   4.251   0.782  0.2096 -1.1236  0.4241
 2088TIP3   OH227678   2.458   5.800   2.221 -0.1567 -0.5886  0.3169
 2088TIP3    H127679   2.479   5.731   2.285 -1.3903 -2.0656 -0.7838
 2088TIP3    H227680   2.507   5.775   2.142 -0.7701 -0.3260 -0.1583
 2089TIP3   OH227681   4.192   6.680  12.346  0.0586  0.3701  0.0214
 2089TIP3    H127682   4.101   6.679  12.375 -0.1003  0.3500 -0.4791
 2089TIP3    H227683   4.212   6.589  12.326 -0.5078  0.6402 -2.0065
 2090TIP3   OH227684   4.751   0.795   2.781 -0.3938 -0.2798 -0.0390
 2090TIP3    H127685   4.778   0.884   2.761  2.4604 -0.6192  1.6808
 2090TIP3    H227686   4.832   0.743   2.776 -1.9874 -2.8576 -1.2164
 2091TIP3   OH227687   2.219   0.467  13.232  0.1752  0.0948  0.1531
 2091TIP3    H127688   2.243   0.392  13.286  0.5939  0.0705 -0.0552
 2091TIP3    H227689   2.293   0.527  13.241  0.3802 -0.0366 -0.6147
 2092TIP3   OH227690   4.555   5.619  15.434  0.0819 -0.5251 -0.7691
 2092TIP3    H127691   4.597   5.578  15.509  1.9640 -2.2200 -2.6249
 2092TIP3    H227692   4.581   5.711  15.439 -0.0567 -0.5368  0.7521
 2093TIP3   OH227693   4.400   4.076   5.966 -0.0260  0.4431 -0.1090
 2093TIP3    H127694   4.334   4.010   5.986  0.2808 -0.0741 -0.7623
 2093TIP3    H227695   4.484   4.030   5.971  0.3031  1.1148  0.7927
 2094TIP3   OH227696   2.805   3.224   4.606  0.0426 -0.1033 -0.2768
 2094TIP3    H127697   2.857   3.304   4.611  0.4192 -0.4361  2.1722
 2094TIP3    H227698   2.725   3.244   4.654 -0.4056 -0.8096 -0.7104
 2095TIP3   OH227699   0.443   4.744   5.276  0.2149  0.3510 -0.1461
 2095TIP3    H127700   0.401   4.679   5.220 -1.7893  1.3807  0.0615
 2095TIP3    H227701   0.472   4.813   5.216  1.6831 -0.3431 -0.2857
 2096TIP3   OH227702   2.224   5.237  15.164 -0.9382  0.1612 -0.0091
 2096TIP3    H127703   2.231   5.245  15.259 -0.8006 -2.1747  0.2525
 2096TIP3    H227704   2.177   5.155  15.150 -0.6660  0.2809 -1.9622
 2097TIP3   OH227705   2.443   2.585  16.924 -0.2120  0.3367 -0.6430
 2097TIP3    H127706   2.408   2.507  16.881  0.4440 -0.7331  0.6798
 2097TIP3    H227707   2.419   2.574  17.016  1.6179  0.6744 -0.0843
 2098TIP3   OH227708   1.762   6.005   1.236  0.4238 -0.1249 -0.1323
 2098TIP3    H127709   1.836   5.945   1.242  0.3934 -0.3117 -1.3776
 2098TIP3    H227710   1.749   6.036   1.326  3.2063  1.3487 -0.1193
 2099TIP3   OH227711   0.066   2.794   6.145  0.3211  0.3011  0.0112
 2099TIP3    H127712   0.034   2.763   6.229 -0.0484  0.1237 -0.1889
 2099TIP3    H227713   0.124   2.867   6.166 -1.5086  1.7516  0.3263
 2100TIP3   OH227714   3.670   4.962   3.740 -0.3929 -0.8480  0.1283
 2100TIP3    H127715   3.760   4.942   3.765  0.4628  0.1183 -1.9293
 2100TIP3    H227716   3.630   4.876   3.726  1.4110 -1.3671 -2.6615
 2101TIP3   OH227717   6.166   6.686  12.059  0.0255 -0.1232 -0.3426
 2101TIP3    H127718   6.193   6.778  12.060  0.5334 -0.2644  1.0652
 2101TIP3    H227719   6.191   6.655  11.972  1.3025  0.6600 -0.2828
 2102TIP3   OH227720   4.542   0.450   3.809 -0.6773 -0.1466  0.2465
 2102TIP3    H127721   4.529   0.545   3.803 -4.4247 -0.2493  2.9916
 2102TIP3    H227722   4.465   0.413   3.767 -0.3543 -1.8894  1.1324
 2103TIP3   OH227723   5.241   2.496   1.508 -0.4955  0.2851 -0.4906
 2103TIP3    H127724   5.293   2.565   1.549  0.5404 -1.1416  0.6873
 2103TIP3    H227725   5.168   2.543   1.467 -0.0040  2.0413  0.5203
 2104TIP3   OH227726   1.855   3.700   4.015 -0.0276 -0.1322  0.2567
 2104TIP3    H127727   1.866   3.670   4.105  1.0444  1.1355  0.5681
 2104TIP3    H227728   1.770   3.663   3.988  0.9137 -2.9090  0.7832
 2105TIP3   OH227729   0.435   0.699  16.808  0.1752  0.5856 -0.2501
 2105TIP3    H127730   0.426   0.787  16.846 -4.6433  0.3118 -0.1126
 2105TIP3    H227731   0.444   0.642  16.884 -1.6649  0.6724  0.0895
 2106TIP3   OH227732   5.353   3.463  12.105 -0.3452  0.0372 -0.1816
 2106TIP3    H127733   5.310   3.382  12.134  0.0871 -0.4299 -0.8176
 2106TIP3    H227734   5.443   3.438  12.087 -0.2241  0.6456 -0.4590
 2107TIP3   OH227735   6.225   5.558  13.985 -0.3726 -0.3536 -0.3276
 2107TIP3    H127736   6.251   5.608  13.907 -1.3689  0.5455 -0.1065
 2107TIP3    H227737   6.307   5.534  14.027  0.1452  0.3818 -0.8955
 2108TIP3   OH227738   4.239   1.174  11.787 -0.1604 -0.3328  0.5655
 2108TIP3    H127739   4.246   1.085  11.752 -0.7475 -0.3512  0.4756
 2108TIP3    H227740   4.265   1.231  11.714  0.6084 -0.4384  0.7476
 2109TIP3   OH227741   1.096   6.654   2.880 -0.7252  0.4851  0.3915
 2109TIP3    H127742   1.114   6.578   2.825  0.0512 -0.1448  1.4781
 2109TIP3    H227743   1.002   6.647   2.900 -0.6901 -0.1132  0.3610
 2110TIP3   OH227744   1.061   4.274  17.118 -0.4678  0.1693 -0.1795
 2110TIP3    H127745   0.986   4.308  17.166 -0.0282 -0.3464  0.9184
 2110TIP3    H227746   1.023   4.221  17.048 -1.1619 -0.6051  0.7397
 2111TIP3   OH227747   3.359   6.332  16.582 -0.4209  0.0848  0.1315
 2111TIP3    H127748   3.344   6.296  16.670 -1.2883 -2.2546 -0.8876
 2111TIP3    H227749   3.407   6.264  16.536 -1.4240  0.5377 -1.6847
 2112TIP3   OH227750   2.312   4.334   3.059  0.8839 -0.2387 -0.0843
 2112TIP3    H127751   2.246   4.312   3.124  1.6635 -0.2711  0.7115
 2112TIP3    H227752   2.345   4.249   3.029  0.0289 -0.2461 -1.0665
 2113TIP3   OH227753   6.384   3.319   1.566  0.1304 -0.2261 -0.1789
 2113TIP3    H127754   6.340   3.388   1.616 -1.8765 -0.4677 -1.5287
 2113TIP3    H227755   6.362   3.238   1.613  0.3435 -0.2126 -0.0530
 2114TIP3   OH227756   2.364   6.418   1.684 -0.4785 -0.2526  0.0030
 2114TIP3    H127757   2.389   6.326   1.677 -0.9991 -0.3761 -0.3085
 2114TIP3    H227758   2.353   6.447   1.594  1.6169  0.6807 -0.0158
 2115TIP3   OH227759   5.673   5.687  13.149  0.5541  0.0098 -0.0403
 2115TIP3    H127760   5.630   5.607  13.120  0.6733  0.3647 -1.2589
 2115TIP3    H227761   5.623   5.757  13.107 -0.0953  0.6373  1.7136
 2116TIP3   OH227762   3.446   6.369   2.623  0.7889  0.0363 -0.5269
 2116TIP3    H127763   3.352   6.384   2.631  0.5293 -1.4651 -0.3597
 2116TIP3    H227764   3.464   6.380   2.530  0.2156 -0.7563 -0.7447
 2117TIP3   OH227765   2.052   2.750   4.422 -0.3459  0.6926 -0.0448
 2117TIP3    H127766   2.120   2.758   4.356  0.4336 -0.3655  0.6054
 2117TIP3    H227767   1.988   2.690   4.384 -0.5378  1.0693 -0.3308
 2118TIP3   OH227768   4.677   0.059  11.394  0.1349  0.7196 -0.1279
 2118TIP3    H127769   4.646  -0.032  11.392 -0.6490  0.8598  2.3337
 2118TIP3    H227770   4.629   0.102  11.324 -1.3601 -0.2517  0.2378
 2119TIP3   OH227771   4.941   0.366  16.255  0.3447 -0.8569 -0.4845
 2119TIP3    H127772   4.987   0.288  16.222 -0.1533 -1.9392  1.2208
 2119TIP3    H227773   4.854   0.334  16.277  0.2742  0.0527  0.6792
 2120TIP3   OH227774   2.683   0.017   2.986  0.6048 -0.0160  0.8653
 2120TIP3    H127775   2.680   0.097   3.038  2.2037  0.6467 -0.0016
 2120TIP3    H227776   2.603  -0.030   3.010 -0.3992  1.8514  1.3386
 2121TIP3   OH227777   6.580   1.175   1.764  0.2763  0.5449  0.1734
 2121TIP3    H127778   6.509   1.149   1.705 -0.8397 -2.2927  2.5098
 2121TIP3    H227779   6.660   1.145   1.721 -0.5400 -1.7707  0.1587
 2122TIP3   OH227780   1.158   3.517   0.952  0.2123  0.6843 -0.4839
 2122TIP3    H127781   1.177   3.452   0.884 -0.1808 -0.0368  0.0789
 2122TIP3    H227782   1.240   3.525   1.001  0.1009  0.1776 -0.2051
 2123TIP3   OH227783   4.591   3.131  12.029  0.0621  0.2566 -0.0996
 2123TIP3    H127784   4.528   3.199  12.005 -1.0121 -0.7432 -0.1986
 2123TIP3    H227785   4.595   3.074  11.952  1.0090  0.2325 -0.0492
 2124TIP3   OH227786   4.879   6.439   5.160 -0.2829  0.2874 -0.0229
 2124TIP3    H127787   4.886   6.519   5.107  0.4720 -0.6736 -1.4429
 2124TIP3    H227788   4.969   6.422   5.188 -0.0505 -1.1376 -1.4559
 2125TIP3   OH227789   4.894   1.197  15.822  0.5012  0.0331 -0.3333
 2125TIP3    H127790   4.988   1.190  15.841  0.3491 -0.8878  0.1504
 2125TIP3    H227791   4.882   1.147  15.741  0.8018  2.2046 -1.8049
 2126TIP3   OH227792   5.138   5.289  15.283  0.0006  0.0230  0.5801
 2126TIP3    H127793   5.159   5.297  15.376 -0.5379 -0.0860  0.7113
 2126TIP3    H227794   5.151   5.196  15.264 -2.8899 -0.6295  1.3025
 2127TIP3   OH227795   4.292   1.184   1.667 -0.1592 -0.1575  0.4744
 2127TIP3    H127796   4.199   1.206   1.677 -0.5368  0.3549 -2.8932
 2127TIP3    H227797   4.293   1.091   1.645  0.0366 -0.0272 -0.0910
 2128TIP3   OH227798   6.354   2.073   0.476 -0.4469 -0.4294  0.1164
 2128TIP3    H127799   6.295   2.027   0.536  0.0026 -1.6042 -0.3130
 2128TIP3    H227800   6.322   2.050   0.388 -0.3899  0.3247 -0.1114
 2129TIP3   OH227801   2.340   4.498  11.283  0.4177 -0.1663  0.3472
 2129TIP3    H127802   2.316   4.590  11.294  2.2124  0.6066 -1.5803
 2129TIP3    H227803   2.258   4.454  11.264 -0.3486  1.2059  0.3404
 2130TIP3   OH227804   5.073   0.099  16.751  0.0355 -0.4447  0.6935
 2130TIP3    H127805   5.075   0.007  16.726  1.8523 -0.3792  0.4989
 2130TIP3    H227806   5.025   0.142  16.680 -0.3848 -1.1656  0.5355
 2131TIP3   OH227807   3.888   1.211   5.929  0.6487 -0.0379 -0.4858
 2131TIP3    H127808   3.943   1.220   6.007 -0.2283 -2.0222  0.4234
 2131TIP3    H227809   3.934   1.147   5.874  0.5946  0.3550 -1.0020
 2132TIP3   OH227810   2.909   2.715  13.752  0.1483  0.6510 -0.2082
 2132TIP3    H127811   2.950   2.696  13.836  0.0941  0.3581 -0.2472
 2132TIP3    H227812   2.891   2.809  13.755  2.0931  1.0817 -0.7481
 2133TIP3   OH227813   3.082   2.668  12.815 -0.4226  0.6643 -0.6877
 2133TIP3    H127814   3.121   2.603  12.758  2.1237  0.2066  1.4027
 2133TIP3    H227815   3.125   2.750  12.792  0.3709  0.5401  0.3079
 2134TIP3   OH227816   2.016   6.342   3.345 -0.5794 -0.5198  0.1812
 2134TIP3    H127817   1.962   6.268   3.315 -0.8579 -1.0657  1.8781
 2134TIP3    H227818   2.106   6.313   3.332 -0.6853 -0.5763 -0.4649
 2135TIP3   OH227819   2.365   1.084  13.540  0.3000  0.1992  0.6232
 2135TIP3    H127820   2.305   1.111  13.469 -1.7135 -3.8423  0.5350
 2135TIP3    H227821   2.329   1.126  13.618 -0.9509  0.1216  0.1113
 2136TIP3   OH227822   4.127   5.235   4.685 -0.4149 -0.4042  0.2519
 2136TIP3    H127823   4.086   5.261   4.767  0.8591  0.5907  0.6179
 2136TIP3    H227824   4.216   5.211   4.710  0.0761  0.1694 -0.8573
 2137TIP3   OH227825   0.597   2.992  13.347 -0.5654  0.0696 -0.0055
 2137TIP3    H127826   0.503   2.976  13.353 -0.3096 -1.0956  2.2777
 2137TIP3    H227827   0.613   3.008  13.254 -3.0032  0.3706 -0.4492
 2138TIP3   OH227828   4.811   6.338  16.884  0.4946  0.5248  0.0293
 2138TIP3    H127829   4.724   6.309  16.909  0.3250  0.5713 -0.4866
 2138TIP3    H227830   4.809   6.339  16.788  0.5063  2.1890  0.0195
 2139TIP3   OH227831   2.710   4.511   6.454  0.2877 -0.0477  0.5955
 2139TIP3    H127832   2.660   4.441   6.496  0.7801 -1.4270 -1.0083
 2139TIP3    H227833   2.756   4.468   6.382  0.5672  1.9581 -0.4992
 2140TIP3   OH227834   2.478   4.145  14.769  0.0419  0.0269 -0.0786
 2140TIP3    H127835   2.542   4.077  14.748 -0.2497 -0.3616  0.2589
 2140TIP3    H227836   2.525   4.227  14.759 -0.2437 -0.0573 -2.8671
 2141TIP3   OH227837   3.744   3.939   0.667 -0.5703  0.3080 -0.2397
 2141TIP3    H127838   3.702   3.870   0.616 -2.6616  0.9815  0.4993
 2141TIP3    H227839   3.819   3.896   0.708 -1.9720 -1.6112  0.4264
 2142TIP3   OH227840   4.872   1.984  17.278  0.2587  0.4745  0.1704
 2142TIP3    H127841   4.839   1.951  17.362 -1.8381  1.0135 -0.4009
 2142TIP3    H227842   4.939   1.920  17.253 -0.3914 -0.7255  1.3438
 2143TIP3   OH227843   5.357   1.491  14.979 -0.5143 -0.1550 -0.2717
 2143TIP3    H127844   5.270   1.474  15.016 -0.7676  0.3604 -0.6165
 2143TIP3    H227845   5.398   1.550  15.042 -0.1078 -1.0242  0.2919
 2144TIP3   OH227846   1.816   6.407  14.494  0.9624  0.2170  0.5865
 2144TIP3    H127847   1.778   6.355  14.424 -1.5942  1.6775  0.7687
 2144TIP3    H227848   1.793   6.359  14.574 -0.3542  0.9249  0.6718
 2145TIP3   OH227849   3.882   5.567   5.135  0.5490 -0.0114 -0.0079
 2145TIP3    H127850   3.969   5.562   5.174  0.2670  4.9455  1.9696
 2145TIP3    H227851   3.822   5.572   5.210 -0.8612  1.7984 -1.1601
 2146TIP3   OH227852   6.408   2.268   5.528 -0.2998  0.4953  0.0265
 2146TIP3    H127853   6.437   2.248   5.439 -1.2527 -3.3957  0.4124
 2146TIP3    H227854   6.485   2.306   5.571  2.1138 -2.8465 -0.9643
 2147TIP3   OH227855   1.935   3.521  17.255 -0.1870  0.3546 -0.3769
 2147TIP3    H127856   2.011   3.537  17.311 -0.0400  0.5354 -0.6247
 2147TIP3    H227857   1.888   3.604  17.254 -2.9607 -0.9194  3.5227
 2148TIP3   OH227858   0.824   0.815   0.849 -0.1387  0.5617  0.1018
 2148TIP3    H127859   0.873   0.740   0.814  1.4954  1.3763  0.5159
 2148TIP3    H227860   0.733   0.798   0.825  0.3136 -1.1079 -0.5849
 2149TIP3   OH227861   6.573   0.075   4.056 -0.3242  0.3205 -0.0704
 2149TIP3    H127862   6.618  -0.001   4.091 -1.1070 -2.3293 -4.1209
 2149TIP3    H227863   6.481   0.050   4.055 -0.4569  0.6443 -2.7367
 2150TIP3   OH227864   0.543   4.661  14.799 -0.5607  0.1314 -0.4955
 2150TIP3    H127865   0.570   4.596  14.734 -1.5095 -1.5590  0.7326
 2150TIP3    H227866   0.549   4.616  14.883 -1.9354  1.4078  0.3446
 2151TIP3   OH227867   6.647   2.578   4.603 -0.1763  0.3000 -0.5929
 2151TIP3    H127868   6.687   2.562   4.518 -0.2727  0.5938 -0.6956
 2151TIP3    H227869   6.581   2.646   4.586  0.8994  1.5330  0.0006
 2152TIP3   OH227870   1.962   1.457  15.031  0.5231  0.0384  0.1181
 2152TIP3    H127871   1.965   1.491  15.120  2.5750  0.2980 -0.0026
 2152TIP3    H227872   1.997   1.368  15.038  3.4207  0.9868 -0.7341
 2153TIP3   OH227873   5.293   3.414  11.467 -0.4771 -0.4418 -0.0278
 2153TIP3    H127874   5.217   3.422  11.408 -0.8109  1.3094  0.6071
 2153TIP3    H227875   5.367   3.396  11.409 -0.9626  0.3030 -0.8895
 2154TIP3   OH227876   5.067   6.348  11.948 -0.5404 -0.5781  0.1555
 2154TIP3    H127877   5.051   6.315  12.036 -1.0099  2.8105  1.4797
 2154TIP3    H227878   5.067   6.443  11.957  0.1951 -0.0915 -3.3947
 2155TIP3   OH227879   3.558   6.498  15.244 -0.0817  0.2975  0.5482
 2155TIP3    H127880   3.581   6.430  15.307  1.7548  0.5711  0.2290
 2155TIP3    H227881   3.508   6.453  15.176 -0.1084 -0.4331  1.0434
 2156TIP3   OH227882   6.068   4.553   1.245  0.5034 -0.4117 -0.0519
 2156TIP3    H127883   6.074   4.458   1.233 -1.3247 -0.7555  1.3148
 2156TIP3    H227884   5.985   4.567   1.289  1.3813  1.7177  1.1222
 2157TIP3   OH227885   1.418   5.571  16.264  0.6532 -0.1046 -0.1002
 2157TIP3    H127886   1.380   5.615  16.188  2.4287 -1.1511 -1.6945
 2157TIP3    H227887   1.435   5.641  16.327  1.6012  1.2199 -1.7595
 2158TIP3   OH227888   2.449   1.319  15.420  0.6020 -0.2072  0.5587
 2158TIP3    H127889   2.453   1.394  15.361  0.7680 -0.4039  0.3162
 2158TIP3    H227890   2.422   1.355  15.504 -0.8092 -0.0739  0.0817
 2159TIP3   OH227891   4.206   0.411   1.748 -0.2064  0.0591 -0.2526
 2159TIP3    H127892   4.215   0.450   1.835 -1.7821 -0.0623  0.0054
 2159TIP3    H227893   4.158   0.476   1.697  0.2420 -0.0883 -0.8720
 2160TIP3   OH227894   4.521   3.023   1.784  0.6781  0.5260  0.4646
 2160TIP3    H127895   4.531   3.070   1.867  1.3414  0.6870  0.2986
 2160TIP3    H227896   4.520   3.091   1.717  0.0267  0.4046  0.3463
 2161TIP3   OH227897   2.710   6.320  14.300  0.4005  0.1811 -0.1930
 2161TIP3    H127898   2.622   6.288  14.320 -0.2151  0.7483 -1.7580
 2161TIP3    H227899   2.768   6.272  14.358 -0.9054 -0.5403  0.5529
 2162TIP3   OH227900   4.170   6.739   0.038  0.1004 -0.1371 -0.0943
 2162TIP3    H127901   4.148   6.646   0.029  0.1142 -0.1236 -0.2650
 2162TIP3    H227902   4.266   6.740   0.044  0.2782  0.0419 -2.3328
 2163TIP3   OH227903   0.850   3.069   2.488 -0.2735  0.4400 -0.1143
 2163TIP3    H127904   0.762   3.099   2.463 -0.1988  0.2454 -0.6092
 2163TIP3    H227905   0.868   3.115   2.570 -1.1673 -0.1184  0.4217
 2164TIP3   OH227906   2.849   3.864  14.478 -0.2553 -0.2570 -0.4880
 2164TIP3    H127907   2.874   3.918  14.403 -0.0400 -1.3052 -1.2043
 2164TIP3    H227908   2.876   3.775  14.453  2.0997 -0.3207  1.8270
 2165TIP3   OH227909   0.333   3.801   6.270 -0.1878 -0.2010  0.2801
 2165TIP3    H127910   0.345   3.837   6.358 -0.6881 -1.9365  1.0985
 2165TIP3    H227911   0.408   3.744   6.256  1.6300  2.4555 -1.7848
 2166TIP3   OH227912   1.919   4.188   2.862  0.6060 -0.7215  0.2441
 2166TIP3    H127913   1.867   4.268   2.866 -0.6361 -1.5281  2.6625
 2166TIP3    H227914   1.974   4.198   2.785 -1.9414  0.9360 -1.4933
 2167TIP3   OH227915   3.096   5.343  12.720  0.0623 -0.1431 -0.0755
 2167TIP3    H127916   3.076   5.431  12.688 -1.1239 -0.2312  0.3579
 2167TIP3    H227917   3.174   5.316  12.672 -0.4658  0.5402 -1.3419
 2168TIP3   OH227918   0.447   5.120  17.221 -0.5815  0.0880 -0.0500
 2168TIP3    H127919   0.541   5.111  17.240 -0.3125  0.1899 -1.2374
 2168TIP3    H227920   0.410   5.157  17.301  0.3145 -0.3728  0.6017
 2169TIP3   OH227921   2.474   6.734   4.250 -0.1908 -0.4060 -0.3659
 2169TIP3    H127922   2.557   6.743   4.202 -0.2732  0.7329 -0.3137
 2169TIP3    H227923   2.499   6.746   4.342 -0.4910  0.6088 -0.4003
 2170TIP3   OH227924   4.901   5.249  17.243  0.4529 -0.0111  0.1285
 2170TIP3    H127925   4.991   5.280  17.232  0.1603  0.6336 -0.5734
 2170TIP3    H227926   4.848   5.316  17.199 -0.3737 -0.3420  0.6076
 2171TIP3   OH227927   2.920   2.980  12.248 -0.6166  0.5193  0.5149
 2171TIP3    H127928   2.940   2.910  12.310 -1.7840 -2.5810 -2.2952
 2171TIP3    H227929   2.825   2.991  12.254 -1.2764 -1.9900 -2.4940
 2172TIP3   OH227930   5.483   3.415  11.786 -0.4692  0.1158 -0.0678
 2172TIP3    H127931   5.468   3.343  11.847 -2.2144  1.6045  1.3904
 2172TIP3    H227932   5.405   3.416  11.731 -0.3652  0.7241 -0.2117
 2173TIP3   OH227933   5.983   5.856   1.468 -0.9193 -0.2126  0.4997
 2173TIP3    H127934   5.907   5.807   1.499 -0.4347 -1.1826  0.1838
 2173TIP3    H227935   6.056   5.826   1.522 -0.8378  1.0871  1.1446
 2174TIP3   OH227936   4.915   4.914  15.591  0.1829 -0.2831  0.4558
 2174TIP3    H127937   4.888   4.954  15.674  1.9899 -1.0802  1.4937
 2174TIP3    H227938   5.005   4.884  15.607  0.7656 -0.0392 -1.9566
 2175TIP3   OH227939   5.392   3.458  15.075  0.6756  0.2049  0.2979
 2175TIP3    H127940   5.478   3.499  15.062  0.5206 -0.1647 -2.4499
 2175TIP3    H227941   5.411   3.365  15.081  0.5766  0.2332  1.0336
 2176TIP3   OH227942   4.401   2.684   3.028 -0.0491 -0.2206  0.1464
 2176TIP3    H127943   4.445   2.757   3.071 -1.1901  0.9851 -0.6738
 2176TIP3    H227944   4.309   2.691   3.055 -0.2308 -1.2110 -0.1414
 2177TIP3   OH227945   2.877   3.911   3.881  0.2188 -0.3292  0.4088
 2177TIP3    H127946   2.818   3.942   3.950  1.5621 -2.3547  2.6257
 2177TIP3    H227947   2.821   3.860   3.823 -0.7928  0.7038  0.4370
 2178TIP3   OH227948   0.008   3.031  12.955  0.0132 -0.2385  0.0325
 2178TIP3    H127949   0.035   2.943  12.984  1.1582  0.3644  0.8714
 2178TIP3    H227950  -0.020   3.075  13.036 -0.2810  0.2667 -0.3419
 2179TIP3   OH227951   4.077   1.004  13.534  0.2917  0.5803  0.1928
 2179TIP3    H127952   4.092   0.947  13.458 -0.9360  0.6113 -0.0920
 2179TIP3    H227953   4.150   1.066  13.532 -0.4075  1.4269 -1.7749
 2180TIP3   OH227954   0.787   6.163  11.294 -0.1559  0.5635  0.0886
 2180TIP3    H127955   0.874   6.137  11.326  2.5126  2.9469 -4.2578
 2180TIP3    H227956   0.764   6.096  11.230 -1.4452  0.1650  0.9245
 2181TIP3   OH227957   3.287   0.443   0.075  0.2267 -0.1774 -0.4619
 2181TIP3    H127958   3.307   0.449   0.168  2.3436 -0.7480 -0.8339
 2181TIP3    H227959   3.224   0.371   0.069  0.1537 -0.2091  0.5160
 2182TIP3   OH227960   4.673   5.923   5.375 -0.1043  0.8501  0.5679
 2182TIP3    H127961   4.593   5.890   5.334 -0.2407  0.5822  1.0316
 2182TIP3    H227962   4.711   5.982   5.311 -1.4432  2.1308  0.8832
 2183TIP3   OH227963   0.609   2.911  16.460 -0.5125  0.0524  0.1569
 2183TIP3    H127964   0.675   2.849  16.432  2.6325  1.1687  4.1660
 2183TIP3    H227965   0.621   2.987  16.403 -0.3460 -0.7949 -0.9671
 2184TIP3   OH227966   2.316   3.708   6.483  0.0500  0.0679 -0.7426
 2184TIP3    H127967   2.262   3.630   6.488 -1.0056  0.7859 -0.5317
 2184TIP3    H227968   2.404   3.676   6.466 -0.4278 -1.1372 -1.0128
 2185TIP3   OH227969   5.127   0.037   5.232 -0.5279  0.2529  0.1852
 2185TIP3    H127970   5.156   0.081   5.312 -1.9972  0.0847  0.8296
 2185TIP3    H227971   5.050   0.086   5.204  0.4702  0.8592 -1.6475
 2186TIP3   OH227972   2.031   2.928  11.356 -0.1317 -0.4325  0.0045
 2186TIP3    H127973   1.939   2.908  11.336 -0.4968 -0.2169  1.3773
 2186TIP3    H227974   2.042   3.019  11.328 -0.2767 -0.5262 -0.3616
 2187TIP3   OH227975   1.188   3.822  13.542 -0.0870  0.1041  0.3925
 2187TIP3    H127976   1.278   3.796  13.560  0.1789 -0.2020 -1.2326
 2187TIP3    H227977   1.148   3.744  13.503  0.0060  1.2191 -2.1870
 2188TIP3   OH227978   4.789   3.002   3.956  0.3702  0.0925  0.2364
 2188TIP3    H127979   4.729   2.969   3.889  0.6914 -0.0736  0.0314
 2188TIP3    H227980   4.761   3.093   3.970 -0.3146 -0.1663  0.5810
 2189TIP3   OH227981   0.796   3.247   2.206  0.2153 -0.5353  0.1031
 2189TIP3    H127982   0.875   3.271   2.253  0.1866  1.0064 -0.5957
 2189TIP3    H227983   0.813   3.158   2.175  1.2797 -0.5829  0.7711
 2190TIP3   OH227984   6.728   3.144  13.216 -0.7572  0.6785  0.1975
 2190TIP3    H127985   6.664   3.215  13.208 -1.4677 -0.0313 -0.6546
 2190TIP3    H227986   6.690   3.086  13.282 -1.7413 -0.4546 -1.2831
 2191TIP3   OH227987   5.441   0.527  15.945 -0.6127  0.1331  0.4953
 2191TIP3    H127988   5.486   0.543  15.862  0.8461  1.1806  1.4433
 2191TIP3    H227989   5.370   0.591  15.947  1.1553  2.1711  1.3215
 2192TIP3   OH227990   2.532   3.215  16.838  0.3581 -0.5270  0.3251
 2192TIP3    H127991   2.586   3.167  16.900  0.3505  1.5220  2.0429
 2192TIP3    H227992   2.583   3.294  16.817 -0.3305 -0.4062 -1.0603
 2193TIP3   OH227993   1.193   0.370  16.030  0.3829  0.3491 -0.4004
 2193TIP3    H127994   1.118   0.402  15.980 -0.0856  0.4512  0.3445
 2193TIP3    H227995   1.237   0.449  16.061 -0.7685  0.3374  1.4339
 2194TIP3   OH227996   6.054   6.377   2.506  0.2556 -0.4520 -0.1404
 2194TIP3    H127997   6.113   6.308   2.536  2.6501  0.9670 -1.2943
 2194TIP3    H227998   6.070   6.382   2.411 -0.0467  1.4877 -0.1150
 2195TIP3   OH227999   3.392   4.611   0.441 -0.4136 -0.0185  0.0508
 2195TIP3    H128000   3.425   4.682   0.496 -0.8142  0.0966  0.1396
 2195TIP3    H228001   3.315   4.646   0.398  0.5562  0.3094 -1.5316
 2196TIP3   OH228002   0.447   5.484   5.220  0.2551  0.1576  0.0135
 2196TIP3    H128003   0.381   5.501   5.152  1.9941  3.2228 -1.0613
 2196TIP3    H228004   0.440   5.558   5.280  3.0167  0.8840 -0.4467
 2197TIP3   OH228005   1.241   1.014  16.914 -0.2309 -0.5495  0.0610
 2197TIP3    H128006   1.322   0.969  16.941 -0.6174 -0.2346  1.8316
 2197TIP3    H228007   1.250   1.102  16.950 -1.0985 -0.3255 -0.2675
 2198TIP3   OH228008   6.722   3.046  15.958  0.6743 -0.0816 -0.1732
 2198TIP3    H128009   6.817   3.042  15.946  0.7178  1.0103 -0.3067
 2198TIP3    H228010   6.685   3.035  15.871  0.6590 -0.9862 -0.0539
 2199TIP3   OH228011   5.980   6.675  16.103  0.1995  0.0436 -0.4164
 2199TIP3    H128012   6.074   6.687  16.108  0.3586 -0.2921 -2.1056
 2199TIP3    H228013   5.943   6.763  16.109  0.4789  0.0698  1.8877
 2200TIP3   OH228014   5.735   2.169   5.262 -0.0283 -0.2328 -0.1692
 2200TIP3    H128015   5.671   2.240   5.266 -0.1439 -0.2010 -1.7917
 2200TIP3    H228016   5.707   2.116   5.187  1.9532 -0.0960 -1.0766
 2201TIP3   OH228017   5.480   0.754   3.132  0.2897 -0.1449  0.5495
 2201TIP3    H128018   5.495   0.842   3.167  0.5004  0.1195 -0.1919
 2201TIP3    H228019   5.536   0.749   3.055 -0.4412 -0.5773  0.0274
 2202TIP3   OH228020   2.909   3.574  12.656 -0.2212 -0.1533 -0.2145
 2202TIP3    H128021   2.941   3.605  12.740  1.3209 -1.5658 -0.2469
 2202TIP3    H228022   2.979   3.519  12.622 -1.8632 -1.7017 -1.2454
 2203TIP3   OH228023   1.429   6.618  16.950 -0.1544  0.6996 -0.5899
 2203TIP3    H128024   1.484   6.622  17.028 -1.9450 -2.1993  1.0015
 2203TIP3    H228025   1.407   6.709  16.932 -1.7380  1.4821  3.9294
 2204TIP3   OH228026   3.473   0.895  11.504  0.1533 -0.2637  0.4699
 2204TIP3    H128027   3.459   0.988  11.487 -0.6817 -0.3619  0.5994
 2204TIP3    H228028   3.554   0.874  11.456  0.8869  0.7359  1.2249
 2205TIP3   OH228029   4.133   2.134   0.352 -0.2857 -0.7850  0.0693
 2205TIP3    H128030   4.200   2.102   0.292 -0.4567 -1.4688  0.2278
 2205TIP3    H228031   4.087   2.202   0.304  0.2547 -0.5998 -0.1900
 2206TIP3   OH228032   2.329   1.258  11.830  0.0281  0.4194  0.1504
 2206TIP3    H128033   2.242   1.281  11.862 -0.3281 -0.7440  0.0781
 2206TIP3    H228034   2.314   1.223  11.742  0.7067  1.2717 -0.3165
 2207TIP3   OH228035   3.760   2.259  11.237 -0.2498  0.3763 -0.0842
 2207TIP3    H128036   3.671   2.292  11.233  0.1411  1.4723 -0.1992
 2207TIP3    H228037   3.752   2.168  11.266 -1.4779  0.0763 -1.2947
 2208TIP3   OH228038   2.103   5.238  11.946 -0.1635 -0.0061 -0.1945
 2208TIP3    H128039   2.180   5.290  11.923 -0.6667  0.0151 -1.9962
 2208TIP3    H228040   2.126   5.148  11.922  0.4395 -0.5822  2.2494
 2209TIP3   OH228041   2.569   0.103  13.818 -0.7451 -0.3074  0.3351
 2209TIP3    H128042   2.552   0.013  13.845  0.2902 -0.6343 -0.0615
 2209TIP3    H228043   2.621   0.095  13.738 -1.8817  0.6453 -0.5384
 2210TIP3   OH228044   5.935   6.175   4.301  0.0477 -0.7207  0.3507
 2210TIP3    H128045   5.962   6.179   4.209 -0.2883 -0.7165  0.2541
 2210TIP3    H228046   6.011   6.210   4.348  0.1493 -0.5422  0.0624
 2211TIP3   OH228047   3.207   0.412   5.802 -0.1198 -0.2827 -0.1069
 2211TIP3    H128048   3.136   0.475   5.816  1.3306  1.6478 -0.8504
 2211TIP3    H228049   3.278   0.444   5.858  0.4431 -1.6711  0.0028
 2212TIP3   OH228050   6.463   6.183  17.280 -0.2665 -0.6067 -0.0025
 2212TIP3    H128051   6.434   6.093  17.294 -1.2393 -0.1427  1.2030
 2212TIP3    H228052   6.424   6.209  17.197 -0.8471 -0.9624  0.1562
 2213TIP3   OH228053   3.074   0.836   3.937  0.2710 -0.0688  0.0795
 2213TIP3    H128054   3.142   0.824   3.871  0.0434 -0.5278 -0.0782
 2213TIP3    H228055   3.056   0.747   3.969  0.2944  0.1366  0.6709
 2214TIP3   OH228056   1.108   2.694  16.512 -0.3237 -0.1594  0.1533
 2214TIP3    H128057   1.033   2.737  16.471 -1.5793 -0.9963  1.4642
 2214TIP3    H228058   1.109   2.606  16.474  0.9493  0.2944 -0.9593
 2215TIP3   OH228059   1.099   2.140   0.233  0.0405  0.2487 -0.0057
 2215TIP3    H128060   1.137   2.177   0.153 -0.4407 -0.3559 -0.5326
 2215TIP3    H228061   1.039   2.072   0.201 -0.0289 -0.1177  0.8821
 2216TIP3   OH228062   1.036   5.465  13.449  0.1336  0.1335  0.2652
 2216TIP3    H128063   0.975   5.395  13.473 -2.0477  1.4712 -1.0473
 2216TIP3    H228064   0.999   5.503  13.370  2.4493  1.3865 -0.3037
 2217TIP3   OH228065   3.841   5.213   3.112 -0.2608 -0.3433  0.1627
 2217TIP3    H128066   3.873   5.125   3.094  1.0597 -0.2649  1.8219
 2217TIP3    H228067   3.885   5.238   3.194 -1.5408  1.3794  0.3842
 2218TIP3   OH228068   0.827   4.286   3.265 -0.1746 -0.3759 -0.3638
 2218TIP3    H128069   0.838   4.356   3.329 -2.0542 -0.9640  0.7002
 2218TIP3    H228070   0.732   4.280   3.252  0.1352  0.3115 -3.9606
 2219TIP3   OH228071   3.543   2.575  15.790 -0.3698 -0.3206 -0.4531
 2219TIP3    H128072   3.584   2.498  15.750 -0.9560 -0.3965 -0.9320
 2219TIP3    H228073   3.512   2.545  15.875  0.8180 -0.1815  0.0522
 2220TIP3   OH228074   3.145   0.137  14.724  1.0071  0.4516  0.0402
 2220TIP3    H128075   3.072   0.099  14.675  2.4045  0.4928 -2.1976
 2220TIP3    H228076   3.144   0.230  14.702  3.0400  0.0986 -1.9484
 2221TIP3   OH228077   4.785   4.721  13.131 -0.3470 -0.5414 -0.1156
 2221TIP3    H128078   4.728   4.646  13.146 -0.0643 -0.6472  0.4610
 2221TIP3    H228079   4.826   4.704  13.047  0.4050 -1.4878  0.4228
 2222TIP3   OH228080   2.684   2.547  10.594  0.7159 -0.2335 -0.1295
 2222TIP3    H128081   2.734   2.607  10.649  0.6068 -0.3878  0.1375
 2222TIP3    H228082   2.737   2.536  10.515  0.7284  0.2297 -0.1896
 2223TIP3   OH228083   6.452   5.198  11.405 -0.4025  0.6195 -0.5017
 2223TIP3    H128084   6.463   5.250  11.326  0.0131 -2.3375 -2.5259
 2223TIP3    H228085   6.538   5.199  11.447 -0.4107  1.5089 -0.4777
 2224TIP3   OH228086   1.370   4.214   3.763 -0.1026 -0.3675 -0.4730
 2224TIP3    H128087   1.353   4.251   3.677  0.9870 -2.1693 -1.5321
 2224TIP3    H228088   1.347   4.121   3.754 -0.9862 -0.3889  1.5049
 2225TIP3   OH228089   5.273   6.303  17.338 -0.3878 -0.1383  0.1371
 2225TIP3    H128090   5.191   6.259  17.316 -0.5609  0.9655 -1.5635
 2225TIP3    H228091   5.336   6.232  17.349 -1.5589 -1.0201  1.6742
 2226TIP3   OH228092   6.559   0.564   4.886  0.2077  0.0643  0.3781
 2226TIP3    H128093   6.539   0.652   4.852  3.0628  0.3798 -0.8068
 2226TIP3    H228094   6.650   0.570   4.915 -0.2752 -1.9023  2.5675
 2227TIP3   OH228095   2.703   3.904   1.409  0.5564  0.0612 -0.1863
 2227TIP3    H128096   2.790   3.862   1.405  0.1260 -0.7593 -1.5495
 2227TIP3    H228097   2.643   3.836   1.380 -0.8549 -0.1037  2.7998
 2228TIP3   OH228098   1.936   1.611   3.200 -0.3465 -0.2883  0.7360
 2228TIP3    H128099   1.860   1.553   3.202 -1.7677  1.5344  1.7333
 2228TIP3    H228100   1.946   1.641   3.291  2.5829 -1.6670  1.0163
 2229TIP3   OH228101   4.762   4.695   2.905  0.1367 -0.2352  0.3973
 2229TIP3    H128102   4.755   4.789   2.890 -0.4120 -0.3452 -0.0943
 2229TIP3    H228103   4.691   4.674   2.965  0.5297 -0.2731  0.8584
 2230TIP3   OH228104   2.938   0.183   0.787 -0.1726  0.3396  0.5478
 2230TIP3    H128105   2.918   0.265   0.743 -1.2657  0.5068  1.3197
 2230TIP3    H228106   2.876   0.179   0.860 -0.3545 -1.3319  0.3346
 2231TIP3   OH228107   3.667   2.596   0.779  0.5118  0.2998  0.1251
 2231TIP3    H128108   3.632   2.509   0.760  2.3165 -0.4362 -0.0667
 2231TIP3    H228109   3.609   2.632   0.846 -1.1299 -0.4358 -0.8435
 2232TIP3   OH228110   4.791   2.829   5.361 -0.3628  0.3356 -0.4658
 2232TIP3    H128111   4.740   2.883   5.421  1.2556 -0.1774  1.4507
 2232TIP3    H228112   4.782   2.740   5.393 -0.4309 -0.1345 -1.7136
 2233TIP3   OH228113   2.311   4.547  16.793 -0.5372  0.2997  0.4342
 2233TIP3    H128114   2.344   4.601  16.720 -0.1184 -1.0423 -0.3993
 2233TIP3    H228115   2.245   4.490  16.752 -2.0324  1.1318  1.5815
 2234TIP3   OH228116   5.867   4.523   1.574 -0.5117 -0.2528  0.1721
 2234TIP3    H128117   5.875   4.430   1.557  1.0941 -0.0454 -0.3800
 2234TIP3    H228118   5.804   4.554   1.509  0.6279 -0.5973 -1.1546
 2235TIP3   OH228119   3.198   6.583   3.890  0.4118 -0.3066 -0.0247
 2235TIP3    H128120   3.190   6.529   3.811  1.4752 -0.1083 -0.2766
 2235TIP3    H228121   3.270   6.643   3.871  1.7740 -1.3225  1.6867
 2236TIP3   OH228122   2.633   1.634   5.619  0.1153  0.2480  0.2437
 2236TIP3    H128123   2.605   1.589   5.698 -0.6948  1.9913  1.0163
 2236TIP3    H228124   2.615   1.727   5.637  0.4056  0.7439 -1.7759
 2237TIP3   OH228125   2.556   3.235  13.371 -0.2261 -0.2825 -0.3521
 2237TIP3    H128126   2.532   3.155  13.323 -0.3135 -0.0395 -0.7188
 2237TIP3    H228127   2.594   3.292  13.304 -2.3539  0.9384 -0.5986
 2238TIP3   OH228128   1.436   2.508   4.440 -0.6364  0.0341 -0.3794
 2238TIP3    H128129   1.481   2.493   4.523 -2.0764 -1.4202  0.1774
 2238TIP3    H228130   1.405   2.599   4.446  0.4681  0.4033  0.0512
 2239TIP3   OH228131   2.668   6.671   3.523  0.1236  0.2269 -0.5895
 2239TIP3    H128132   2.680   6.616   3.446  1.8717  3.1524 -2.6024
 2239TIP3    H228133   2.588   6.721   3.504  0.5131  0.8964 -0.4756
 2240TIP3   OH228134   6.524   1.213   3.061 -0.2100  0.1762  0.1346
 2240TIP3    H128135   6.479   1.180   3.139  0.1499 -2.0083 -0.5154
 2240TIP3    H228136   6.616   1.221   3.088 -0.3312  0.9154  0.3536
 2241TIP3   OH228137   4.160   3.850  14.580 -0.0824  0.7479 -0.9083
 2241TIP3    H128138   4.237   3.832  14.526 -0.9966 -0.7411 -1.7945
 2241TIP3    H228139   4.102   3.900  14.522 -0.1317  1.1188 -0.5386
 2242TIP3   OH228140   5.236   0.861   6.245  0.1283  0.3558 -0.1531
 2242TIP3    H128141   5.175   0.911   6.191 -1.8762 -1.2560  0.4888
 2242TIP3    H228142   5.267   0.923   6.311 -1.7759  0.9438  0.2265
 2243TIP3   OH228143   0.350   4.849  16.843  0.2902  0.4326 -0.2742
 2243TIP3    H128144   0.310   4.798  16.773  3.3008  0.1738 -1.9243
 2243TIP3    H228145   0.332   4.797  16.922 -1.6520 -0.1697 -1.0326
 2244TIP3   OH228146   3.285   2.884   3.706  0.6490  0.1824 -0.6353
 2244TIP3    H128147   3.275   2.856   3.615  1.1609  0.2287 -0.7081
 2244TIP3    H228148   3.363   2.938   3.706  1.9727 -1.6240  0.2331
 2245TIP3   OH228149   0.069   5.586   3.556  0.0144  0.3184 -0.0840
 2245TIP3    H128150   0.069   5.652   3.486 -0.3939  0.8092  0.3681
 2245TIP3    H228151   0.158   5.589   3.592  0.9099 -1.4538 -1.9559
 2246TIP3   OH228152   5.385   4.388  13.768  0.7433 -0.0735 -0.2361
 2246TIP3    H128153   5.323   4.449  13.728  0.7820  0.0168 -0.1576
 2246TIP3    H228154   5.442   4.442  13.823 -0.9900 -0.4836  2.1272
 2247TIP3   OH228155   6.477   4.196  14.411  0.0819 -0.0255 -0.3150
 2247TIP3    H128156   6.398   4.247  14.431  0.2376 -0.3112  1.1671
 2247TIP3    H228157   6.453   4.106  14.433  0.6223 -0.2075 -0.4561
 2248TIP3   OH228158   5.448   5.563  13.380  0.6307 -0.3235  0.1134
 2248TIP3    H128159   5.504   5.552  13.303  0.2893 -1.6680  0.0233
 2248TIP3    H228160   5.361   5.579  13.345  0.1799 -2.4475  0.1531
 2249TIP3   OH228161   4.238   3.862   2.906 -0.3367 -0.1837  0.3613
 2249TIP3    H128162   4.164   3.909   2.866  1.2383  0.2648 -2.3233
 2249TIP3    H228163   4.221   3.770   2.886  0.6929  0.0683 -2.1057
 2250TIP3   OH228164   0.168   4.966   4.649 -0.2483 -0.2513  0.1616
 2250TIP3    H128165   0.225   4.899   4.687  2.4744  0.2255 -2.6865
 2250TIP3    H228166   0.189   5.046   4.697  1.5696 -0.0989 -0.8069
 2251TIP3   OH228167   5.893   5.173   2.262 -0.2664  0.4466  0.2207
 2251TIP3    H128168   5.807   5.202   2.232 -1.4570 -2.0969  0.9018
 2251TIP3    H228169   5.905   5.088   2.221  2.0110  0.7867  0.0685
 2252TIP3   OH228170   2.516   0.922  11.016 -0.5611 -0.1129 -0.3296
 2252TIP3    H128171   2.556   0.972  10.945  0.7671 -0.4998  0.1259
 2252TIP3    H228172   2.475   0.847  10.973 -2.6413  1.3088 -1.0348
 2253TIP3   OH228173   2.776   0.982  12.353  0.0564  0.9143 -0.8158
 2253TIP3    H128174   2.691   0.940  12.341  0.1146  0.9656 -1.4530
 2253TIP3    H228175   2.828   0.920  12.403  0.1183  0.2562 -1.6803
 2254TIP3   OH228176   6.555   3.301  15.980  0.2027 -0.4796 -0.4508
 2254TIP3    H128177   6.498   3.323  16.054  0.5668  2.3063 -0.9217
 2254TIP3    H228178   6.610   3.230  16.014 -1.5242 -1.2249  0.9782
 2255TIP3   OH228179   2.026   4.717   4.537  0.1990  0.1228  0.5026
 2255TIP3    H128180   1.998   4.760   4.456  1.7642  0.3861  0.0784
 2255TIP3    H228181   2.028   4.787   4.602 -0.3174  0.0614  0.5875
 2256TIP3   OH228182   3.913   5.754  10.838 -0.2465 -0.3273 -0.8645
 2256TIP3    H128183   3.818   5.764  10.837 -0.1172  1.1126 -1.1571
 2256TIP3    H228184   3.930   5.693  10.909 -1.2608  0.9974  0.5794
 2257TIP3   OH228185   3.393   0.095   1.469 -0.0365 -0.9643  0.6538
 2257TIP3    H128186   3.364   0.142   1.547 -1.3023 -0.8926  0.1486
 2257TIP3    H228187   3.324   0.032   1.451 -1.3241  1.0755 -2.1792
 2258TIP3   OH228188   5.081   2.129   1.203  0.8680 -0.0907 -0.5668
 2258TIP3    H128189   5.045   2.193   1.141  1.7877  1.8385  0.7817
 2258TIP3    H228190   5.114   2.058   1.148  0.4301  0.9032 -2.1904
 2259TIP3   OH228191   1.720   6.474   3.142  0.0047  0.1093  0.2759
 2259TIP3    H128192   1.698   6.423   3.064 -0.8454 -0.6831  1.0063
 2259TIP3    H228193   1.762   6.553   3.108 -0.6994 -0.0387 -1.0010
 2260TIP3   OH228194   0.658   5.647  13.202  0.0575 -0.3044  0.0221
 2260TIP3    H128195   0.612   5.619  13.282 -1.8337  0.7457 -0.6204
 2260TIP3    H228196   0.749   5.626  13.218  0.0303  1.3051  3.1675
 2261TIP3   OH228197   2.471   4.121  16.665  0.2433 -0.1476 -0.5696
 2261TIP3    H128198   2.508   4.056  16.604 -0.2402 -0.6543 -0.3289
 2261TIP3    H228199   2.470   4.076  16.749  0.2413  0.3026 -0.3303
 2262TIP3   OH228200   3.804   4.515  12.727 -0.0272  0.3604 -0.4597
 2262TIP3    H128201   3.857   4.567  12.788  2.3970  0.8020 -2.7542
 2262TIP3    H228202   3.727   4.569  12.710  0.9133  1.7916 -0.3666
 2263TIP3   OH228203   0.676   3.428   3.913  0.2996 -0.0174 -0.3591
 2263TIP3    H128204   0.624   3.391   3.984  0.2862  0.9632  0.1585
 2263TIP3    H228205   0.764   3.435   3.949  0.0890  1.3951 -0.0889
 2264TIP3   OH228206   0.510   0.537   3.177 -0.2776  0.4189  0.1755
 2264TIP3    H128207   0.499   0.613   3.235  2.2935  0.0799  1.2601
 2264TIP3    H228208   0.532   0.575   3.092 -1.2241  0.8937  0.1289
 2265TIP3   OH228209   4.132   1.380  16.406  0.1644 -0.0154 -0.6492
 2265TIP3    H128210   4.090   1.453  16.451  0.0803 -0.3095 -0.2474
 2265TIP3    H228211   4.090   1.378  16.320 -1.5135 -1.0231  0.1410
 2266TIP3   OH228212   0.077   5.341   2.546  0.3248  0.0051 -0.0683
 2266TIP3    H128213  -0.012   5.338   2.511  0.3434 -0.4614 -0.0725
 2266TIP3    H228214   0.073   5.408   2.615 -0.0649 -0.1142  0.0286
 2267TIP3   OH228215   1.683   2.673  15.078  0.4195 -0.3641  0.0508
 2267TIP3    H128216   1.753   2.608  15.090  0.2531 -0.3982  0.9389
 2267TIP3    H228217   1.605   2.622  15.058  0.7311 -0.2996 -1.3758
 2268TIP3   OH228218   4.403   4.651  12.723 -0.3150  0.4619 -0.0755
 2268TIP3    H128219   4.476   4.615  12.774  0.7680  1.0826 -1.1221
 2268TIP3    H228220   4.445   4.694  12.648 -1.7176  1.4991 -0.3143
 2269TIP3   OH228221   0.459   4.575  11.556  0.4027  0.5938  0.0783
 2269TIP3    H128222   0.453   4.515  11.482  1.7925  0.7958 -0.2113
 2269TIP3    H228223   0.394   4.643  11.537 -1.3149 -0.8521  0.4855
 2270TIP3   OH228224   5.744   6.349   0.078  0.1174  0.1071 -0.1543
 2270TIP3    H128225   5.777   6.340   0.167 -0.4274 -3.8867 -0.1957
 2270TIP3    H228226   5.821   6.342   0.022  0.0468 -3.8375 -0.0503
 2271TIP3   OH228227   2.580   4.844   3.982  0.1140 -0.6911  0.5950
 2271TIP3    H128228   2.663   4.878   4.015  0.5319  0.5135 -1.4935
 2271TIP3    H228229   2.599   4.820   3.891 -2.3712  2.2647 -0.9095
 2272TIP3   OH228230   5.819   2.983  16.791 -0.1179  0.5029 -0.2220
 2272TIP3    H128231   5.755   3.052  16.804 -3.1188 -1.6328 -2.1822
 2272TIP3    H228232   5.780   2.905  16.832  1.8359 -0.6570 -0.4053
 2273TIP3   OH228233   0.551   0.933  17.055 -0.7263  0.3128  0.1387
 2273TIP3    H128234   0.556   1.017  17.009 -0.7523  1.3744  1.9510
 2273TIP3    H228235   0.637   0.894  17.042 -0.8292  0.4509 -1.0233
 2274TIP3   OH228236   4.974   4.695   2.430 -0.2523  0.1827 -0.4163
 2274TIP3    H128237   4.947   4.650   2.511 -2.8915  0.3394 -1.1247
 2274TIP3    H228238   5.046   4.752   2.458 -1.0216  0.1774  1.8431
 2275TIP3   OH228239   6.424   1.924   5.520 -0.7160 -0.7082  0.3619
 2275TIP3    H128240   6.408   1.977   5.598  0.6741 -0.4513  0.5074
 2275TIP3    H228241   6.456   1.840   5.554 -1.0577 -0.9494  0.0891
 2276TIP3   OH228242   2.785   4.976   6.311  0.0602  0.0725 -0.1746
 2276TIP3    H128243   2.836   5.055   6.293 -0.7132  0.8328  0.8308
 2276TIP3    H228244   2.837   4.927   6.374 -0.5102  0.9747  1.0550
 2277TIP3   OH228245   6.621   3.718  11.946  0.0981 -0.1611 -0.0557
 2277TIP3    H128246   6.526   3.728  11.958  0.3575  1.1935  1.2495
 2277TIP3    H228247   6.633   3.710  11.851 -1.3218 -0.3944 -0.2366
 2278TIP3   OH228248   5.146   3.334   4.417 -0.0584 -0.1853  0.0877
 2278TIP3    H128249   5.225   3.301   4.374  0.4249  0.5583  0.3881
 2278TIP3    H228250   5.176   3.411   4.466 -0.9211 -0.0486  0.4100
 2279TIP3   OH228251   6.269   5.605  13.496 -0.0658  0.6691 -0.3431
 2279TIP3    H128252   6.300   5.602  13.586  0.1950 -2.9535 -0.3857
 2279TIP3    H228253   6.348   5.590  13.443 -0.3301  2.0519 -1.1830
 2280TIP3   OH228254   0.063   6.368   1.894 -0.0453 -0.0911 -0.0836
 2280TIP3    H128255   0.148   6.330   1.872 -0.5500 -0.5376 -1.3097
 2280TIP3    H228256  -0.001   6.304   1.864 -0.8434  0.7182 -0.1500
 2281TIP3   OH228257   0.431   3.835   1.002  0.0937  0.0298 -0.1220
 2281TIP3    H128258   0.456   3.890   0.928  0.6772  1.2523  0.9454
 2281TIP3    H228259   0.341   3.862   1.022  0.1198  0.0689 -0.0585
 2282TIP3   OH228260   1.621   3.770  14.453  0.1365  0.1517  0.3604
 2282TIP3    H128261   1.557   3.791  14.521  0.7075  2.1523  0.3350
 2282TIP3    H228262   1.592   3.820  14.376  0.1040 -1.2361 -0.5804
 2283TIP3   OH228263   0.106   4.012  13.858 -0.5358 -0.0253 -0.1979
 2283TIP3    H128264   0.169   4.043  13.792  0.2226  0.5837  0.7747
 2283TIP3    H228265   0.145   3.933  13.894 -0.9020 -0.3034 -0.4026
 2284TIP3   OH228266   3.883   0.006   0.078 -0.0156 -0.4843  0.2275
 2284TIP3    H128267   3.871   0.055  -0.003 -0.2337 -0.9936 -0.0524
 2284TIP3    H228268   3.973   0.025   0.104  0.4988 -1.3791 -0.8525
 2285TIP3   OH228269   2.279   3.100  17.317 -0.0109 -0.3891  0.4507
 2285TIP3    H128270   2.211   3.163  17.340  0.4726  0.4129 -0.2385
 2285TIP3    H228271   2.232   3.024  17.284 -0.6086 -0.3929  1.2923
 2286TIP3   OH228272   6.225   1.650   3.299  0.2259 -0.1578 -0.3289
 2286TIP3    H128273   6.233   1.555   3.314 -0.0965 -0.2070 -0.4797
 2286TIP3    H228274   6.155   1.659   3.235  0.7684  0.1412 -0.8825
 2287TIP3   OH228275   3.704   2.428  16.763 -0.3966 -0.3409  0.0912
 2287TIP3    H128276   3.637   2.441  16.830  0.1220  1.7538  0.2935
 2287TIP3    H228277   3.786   2.422  16.812 -0.2642 -1.4781 -0.2361
 2288TIP3   OH228278   0.289   0.265  13.419 -0.2420 -0.1151 -0.1590
 2288TIP3    H128279   0.258   0.338  13.473  1.4136 -0.4536  1.3433
 2288TIP3    H228280   0.294   0.301  13.331 -0.6518  1.2261  0.3433
 2289TIP3   OH228281   1.407   1.444  12.070 -0.1215 -0.3103 -0.4170
 2289TIP3    H128282   1.323   1.487  12.053 -0.9954 -0.8214  2.1887
 2289TIP3    H228283   1.425   1.461  12.162  1.0615 -2.8926 -0.0813
 2290TIP3   OH228284   0.521   1.854  10.973  0.3086 -0.5271 -0.0870
 2290TIP3    H128285   0.453   1.871  10.907 -1.8195 -0.9472  1.8673
 2290TIP3    H228286   0.563   1.939  10.987 -0.3668 -0.0764 -0.7425
 2291TIP3   OH228287   5.555   0.068   5.591 -0.2339 -0.1768 -0.8677
 2291TIP3    H128288   5.627   0.072   5.529 -0.0014 -0.9565 -0.6628
 2291TIP3    H228289   5.573  -0.010   5.644  0.0463  0.9094  0.7411
 2292TIP3   OH228290   0.588   0.244  11.392  0.4788  0.5807  0.8619
 2292TIP3    H128291   0.548   0.236  11.478 -0.3102 -0.3555  0.4295
 2292TIP3    H228292   0.677   0.274  11.409  1.2367 -2.1477  2.2168
 2293TIP3   OH228293   3.232   3.086  12.218  0.6533  0.0506 -0.4182
 2293TIP3    H128294   3.177   3.008  12.224 -1.3107  1.4501  0.8430
 2293TIP3    H228295   3.225   3.113  12.127 -0.1042 -0.2669 -0.4640
 2294TIP3   OH228296   6.343   2.703  16.137 -0.7664  0.5714  0.5363
 2294TIP3    H128297   6.333   2.627  16.195  0.6062 -0.8930 -1.0406
 2294TIP3    H228298   6.429   2.739  16.160 -0.3861  0.2162 -0.3179
 2295TIP3   OH228299   5.955   3.576  11.376 -0.2385  0.0285 -0.3421
 2295TIP3    H128300   5.906   3.504  11.415  0.6137  0.4286  1.5400
 2295TIP3    H228301   6.020   3.600  11.441 -0.3208  2.3340 -1.0090
 2296TIP3   OH228302   5.805   1.024   4.105  0.3276  0.2145 -0.2120
 2296TIP3    H128303   5.885   1.066   4.135  0.2792 -0.7513  1.4173
 2296TIP3    H228304   5.767   0.986   4.185 -0.3912 -1.5665 -1.3353
 2297TIP3   OH228305   4.940   4.248   0.249 -0.2290  0.0140 -0.5684
 2297TIP3    H128306   4.975   4.160   0.264  3.5945  1.5414  0.7807
 2297TIP3    H228307   4.944   4.259   0.155  0.6905 -0.7876 -0.6472
 2298TIP3   OH228308   3.483   6.586   3.386  0.4196 -0.3994 -0.0122
 2298TIP3    H128309   3.563   6.547   3.350  2.6659  0.4301  3.5414
 2298TIP3    H228310   3.453   6.522   3.450 -1.6154 -0.4883 -0.9880
 2299TIP3   OH228311   0.105   2.013  16.072 -0.6153  0.0057 -0.0836
 2299TIP3    H128312   0.113   2.088  16.012  0.0173 -0.6178 -0.7889
 2299TIP3    H228313   0.048   2.045  16.142 -2.1298  0.4933 -1.4619
 2300TIP3   OH228314   3.419   0.780   0.169 -0.2629  0.7481 -0.5315
 2300TIP3    H128315   3.478   0.773   0.244 -1.0038  1.7580  0.1811
 2300TIP3    H228316   3.331   0.778   0.207 -0.7271 -0.7024 -1.5653
 2301TIP3   OH228317   4.906   1.637  15.975  0.1857  0.2117  0.6012
 2301TIP3    H128318   4.959   1.713  15.999  0.9994  0.1046 -0.7357
 2301TIP3    H228319   4.970   1.565  15.970 -0.2431 -0.1324 -0.0516
 2302TIP3   OH228320   5.309   1.470  17.280 -0.2116 -0.2337 -0.4710
 2302TIP3    H128321   5.320   1.506  17.191  0.6615 -4.3109 -2.2397
 2302TIP3    H228322   5.215   1.455  17.288 -0.1731 -1.0264 -1.2880
 2303TIP3   OH228323   1.445   4.053  14.692 -0.1907 -0.7276 -0.5268
 2303TIP3    H128324   1.511   4.059  14.622  0.0548 -1.0257 -0.3238
 2303TIP3    H228325   1.470   3.975  14.742 -0.6445 -0.7871 -0.3899
 2304TIP3   OH228326   0.731   3.584  14.313  0.7142 -0.1947  0.3622
 2304TIP3    H128327   0.801   3.649  14.308  0.3278  0.1379 -1.5772
 2304TIP3    H228328   0.749   3.524  14.241  0.0413 -1.1989  1.0082
 2305TIP3   OH228329   3.507   0.905   1.206 -0.5704  0.0873  0.2034
 2305TIP3    H128330   3.461   0.968   1.151 -0.2071 -0.5396 -0.8499
 2305TIP3    H228331   3.573   0.957   1.253  0.0735  0.4343 -1.0386
 2306TIP3   OH228332   2.947   6.329  13.229 -0.1230  0.5703  0.1392
 2306TIP3    H128333   2.896   6.365  13.156 -0.6414 -0.7908 -0.2008
 2306TIP3    H228334   2.919   6.237  13.234  0.4243  0.4681  1.6052
 2307TIP3   OH228335   5.770   4.210   1.806 -0.5919  0.7926  0.0062
 2307TIP3    H128336   5.747   4.302   1.791  0.2802  1.1363  0.6529
 2307TIP3    H228337   5.852   4.214   1.856 -1.0628 -0.3235  0.9181
 2308TIP3   OH228338   0.232   2.974   3.758 -0.2224 -0.1115  0.6184
 2308TIP3    H128339   0.294   2.965   3.686 -0.3420 -0.3565  0.5441
 2308TIP3    H228340   0.285   3.006   3.831 -0.6221  2.9853 -0.3427
 2309TIP3   OH228341   4.909   3.444   3.305  0.6536  0.7531 -0.7602
 2309TIP3    H128342   4.859   3.424   3.226  0.8629  1.2584 -1.0264
 2309TIP3    H228343   4.987   3.388   3.298 -0.2765 -0.7084  0.1034
 2310TIP3   OH228344   6.303   5.878   2.539  0.2009  0.3968 -0.6010
 2310TIP3    H128345   6.388   5.903   2.502  0.5868 -1.5413 -1.1638
 2310TIP3    H228346   6.320   5.867   2.632  1.1212 -1.7962 -0.9492
 2311TIP3   OH228347   2.214   0.090   3.790  0.4338  0.3866  0.1055
 2311TIP3    H128348   2.172   0.034   3.724  0.0430  3.4467 -2.4677
 2311TIP3    H228349   2.308   0.083   3.771  0.5923 -0.9013  1.1785
 2312TIP3   OH228350   4.558   4.160   3.891  0.2400 -0.0031  0.1496
 2312TIP3    H128351   4.620   4.226   3.861 -1.3643  2.7814  2.3412
 2312TIP3    H228352   4.579   4.148   3.984 -0.8252 -0.9822  0.2876
 2313TIP3   OH228353   2.264   1.575  12.619  0.1881  0.0081  0.0311
 2313TIP3    H128354   2.186   1.550  12.568 -1.1899 -0.0975  2.0506
 2313TIP3    H228355   2.296   1.492  12.655  1.2810  0.0534 -0.8016
 2314TIP3   OH228356   3.816   2.323  16.110 -0.2119  0.1563  0.2476
 2314TIP3    H128357   3.817   2.395  16.174 -1.2961  0.3182  0.0954
 2314TIP3    H228358   3.752   2.261  16.145  0.1356 -0.3599 -0.0300
 2315TIP3   OH228359   0.568   2.598  15.305 -0.0392 -0.3477  0.0101
 2315TIP3    H128360   0.499   2.660  15.283  0.6634  0.4642  0.0662
 2315TIP3    H228361   0.619   2.641  15.373  0.6892 -0.8211 -0.2222
 2316TIP3   OH228362   2.715   0.750   2.855 -0.1854  0.3081  0.1290
 2316TIP3    H128363   2.689   0.694   2.781 -0.6891 -0.8256  1.1422
 2316TIP3    H228364   2.810   0.741   2.859 -0.1370  0.4938 -0.4689
 2317TIP3   OH228365   0.542   2.535   2.802 -0.3690 -0.5045  0.1809
 2317TIP3    H128366   0.584   2.451   2.786  0.8002  0.0376  0.3240
 2317TIP3    H228367   0.513   2.530   2.894  2.3815  0.3300  1.1744
 2318TIP3   OH228368   6.742   3.406   4.358 -0.1186  0.1613  0.1959
 2318TIP3    H128369   6.673   3.353   4.397  0.2397 -0.9112 -0.5993
 2318TIP3    H228370   6.717   3.414   4.265  0.5184  0.2580  0.0281
 2319TIP3   OH228371   6.698   2.927  12.471 -0.3187 -0.2791 -0.0031
 2319TIP3    H128372   6.689   2.911  12.565  0.1201  0.7921  0.2341
 2319TIP3    H228373   6.752   2.854  12.439 -3.2409 -2.6034 -0.1024
 2320TIP3   OH228374   6.009   0.456  14.510 -0.2794  0.2130  0.2402
 2320TIP3    H128375   5.961   0.538  14.520  0.8359  1.0882 -1.1105
 2320TIP3    H228376   5.951   0.399  14.460 -0.3920  0.8300 -0.3459
 2321TIP3   OH228377   2.391   6.457   2.515 -0.4754 -0.5388 -0.9330
 2321TIP3    H128378   2.361   6.370   2.543 -2.1637  0.4848  0.5710
 2321TIP3    H228379   2.482   6.443   2.489 -0.1425 -2.4176  0.9969
 2322TIP3   OH228380   0.123   3.253  13.521 -0.2802  0.1669 -0.2820
 2322TIP3    H128381   0.141   3.248  13.615 -1.6920 -0.9719 -0.0312
 2322TIP3    H228382   0.121   3.346  13.501  0.1269  0.4146  0.7832
 2323TIP3   OH228383   5.286   4.827   5.845  0.1600  0.3438 -0.2008
 2323TIP3    H128384   5.226   4.902   5.842  2.3584  2.2042 -0.3488
 2323TIP3    H228385   5.301   4.804   5.753 -1.0245 -0.7959 -0.1477
 2324TIP3   OH228386   1.661   3.425   2.501 -0.6597 -0.4641  0.2650
 2324TIP3    H128387   1.649   3.517   2.475 -0.1599 -0.2517  0.7649
 2324TIP3    H228388   1.590   3.379   2.457 -1.3320  0.2628  0.5550
 2325TIP3   OH228389   0.037   2.324  12.734 -0.5118 -0.2646  0.1936
 2325TIP3    H128390   0.053   2.340  12.827 -1.6967  1.6918  0.1197
 2325TIP3    H228391   0.111   2.366  12.690 -1.3789  1.3097  0.1787
 2326TIP3   OH228392   0.984   5.732  12.892  0.1884 -0.3292  0.7255
 2326TIP3    H128393   0.964   5.704  12.981 -1.9849  1.7965  1.0384
 2326TIP3    H228394   1.025   5.657  12.851 -1.2232 -2.3234  2.7357
 2327TIP3   OH228395   1.220   2.461  17.358 -0.0426  0.1580 -0.1909
 2327TIP3    H128396   1.219   2.556  17.372 -3.7520  0.0998  1.4284
 2327TIP3    H228397   1.275   2.427  17.429  0.3473  1.0618 -0.0486
 2328TIP3   OH228398   4.692   2.715   6.565  0.6287  0.3553  0.2231
 2328TIP3    H128399   4.774   2.764   6.559  0.2241  0.8894 -1.6165
 2328TIP3    H228400   4.626   2.776   6.532  0.0006 -1.1401 -1.3870
 2329TIP3   OH228401   1.660   5.954   5.970  0.2609 -0.4283  0.5664
 2329TIP3    H128402   1.693   6.010   6.040  0.6223  1.1968 -0.8466
 2329TIP3    H228403   1.606   6.012   5.916  1.4762 -1.1477 -1.5419
 2330TIP3   OH228404   6.737   4.345   1.818  0.1807  0.1777  0.2287
 2330TIP3    H128405   6.644   4.327   1.832  0.6564 -1.5730  1.6250
 2330TIP3    H228406   6.773   4.261   1.790  1.0527  1.3101 -2.3665
 2331TIP3   OH228407   5.270   0.336  15.108  0.4301  0.0665 -0.6016
 2331TIP3    H128408   5.190   0.285  15.115  0.6564 -0.3568 -1.0229
 2331TIP3    H228409   5.244   0.416  15.061 -0.1391  0.8360  0.9557
 2332TIP3   OH228410   5.347   3.903   1.105  0.2889  0.1693  0.1973
 2332TIP3    H128411   5.402   3.956   1.048  3.1120 -1.4439  1.2295
 2332TIP3    H228412   5.359   3.941   1.193 -0.4060 -0.1275  0.4318
 2333TIP3   OH228413   2.083   6.612   5.379 -0.0140 -0.3013  0.4099
 2333TIP3    H128414   2.045   6.695   5.406  0.1606 -0.5541  1.4575
 2333TIP3    H228415   2.085   6.559   5.459  0.0410 -1.2504 -0.2057
 2334TIP3   OH228416   0.718   0.446   5.873 -0.7103 -0.0166  0.3516
 2334TIP3    H128417   0.763   0.380   5.927 -1.0044  0.7756  1.5996
 2334TIP3    H228418   0.628   0.414   5.867 -0.2771 -1.0586 -1.2670
 2335TIP3   OH228419   1.125   2.970   2.347  0.2496  0.0999 -0.3773
 2335TIP3    H128420   1.054   3.005   2.292  0.0453  0.4555  0.1097
 2335TIP3    H228421   1.081   2.917   2.413  0.5428 -0.8893 -0.9523
 2336TIP3   OH228422   1.899   4.688   0.545  0.5696 -0.2235 -0.8210
 2336TIP3    H128423   1.875   4.749   0.475 -1.2062 -0.8649 -0.8180
 2336TIP3    H228424   1.966   4.734   0.595  0.3420  1.1072 -1.6869
 2337TIP3   OH228425   2.357   4.464   5.917  0.3262 -0.1705 -0.0633
 2337TIP3    H128426   2.433   4.490   5.865  0.0711  1.3120  0.2413
 2337TIP3    H228427   2.297   4.425   5.854  0.9083 -0.4031 -0.4868
 2338TIP3   OH228428   3.182   3.129   4.356 -0.8030 -0.2293 -0.4368
 2338TIP3    H128429   3.149   3.041   4.338 -0.1015 -0.1923 -2.0248
 2338TIP3    H228430   3.125   3.187   4.305 -1.1441  0.2348  0.4531
 2339TIP3   OH228431   4.691   3.184   3.670 -0.0323 -0.4472 -0.0953
 2339TIP3    H128432   4.617   3.242   3.652 -0.2103 -0.9117 -0.9298
 2339TIP3    H228433   4.726   3.214   3.754 -0.0592  0.9239 -0.5548
 2340TIP3   OH228434   5.771   0.344   3.333 -0.2914 -0.2819  0.2953
 2340TIP3    H128435   5.791   0.363   3.242  2.0366  1.5083  1.0695
 2340TIP3    H228436   5.816   0.261   3.350  0.9221  0.3288  0.2389
 2341TIP3   OH228437   1.835   1.382   3.004  0.2796 -0.3738 -0.2912
 2341TIP3    H128438   1.777   1.453   2.975  1.5209  0.7934  0.0163
 2341TIP3    H228439   1.854   1.332   2.924 -1.4554 -1.0534 -0.3364
 2342TIP3   OH228440   3.318   3.551   1.231 -0.7275  0.0162  0.2277
 2342TIP3    H128441   3.267   3.564   1.151  0.7601 -0.4995 -0.8640
 2342TIP3    H228442   3.326   3.638   1.270  0.2573  0.6615 -1.3183
 2343TIP3   OH228443   4.954   1.588   5.686  0.6960  0.0996 -0.1896
 2343TIP3    H128444   5.016   1.621   5.621  0.0460  0.1365 -0.8037
 2343TIP3    H228445   4.954   1.655   5.755  4.1697 -1.6242  1.7676
 2344TIP3   OH228446   3.490   4.896   0.944 -0.0940  0.3442 -0.0439
 2344TIP3    H128447   3.500   4.817   0.998 -0.9059 -1.4019 -2.2961
 2344TIP3    H228448   3.471   4.966   1.007  1.5936 -1.0246  2.1204
 2345TIP3   OH228449   0.300   1.379  11.114  0.8613  0.2077 -0.3645
 2345TIP3    H128450   0.254   1.450  11.070  2.5587 -0.0459 -2.6996
 2345TIP3    H228451   0.247   1.301  11.094  0.6266  0.3605 -0.3503
 2346TIP3   OH228452   6.163   6.481  13.764 -0.0174 -0.1000  0.3276
 2346TIP3    H128453   6.150   6.473  13.670 -0.5593  2.3370  0.1373
 2346TIP3    H228454   6.112   6.409  13.802  0.1183 -1.0388 -1.2052
 2347TIP3   OH228455   2.557   1.061   3.301  0.4943 -0.1062 -0.5387
 2347TIP3    H128456   2.509   1.143   3.285 -0.4001  0.0282  2.2023
 2347TIP3    H228457   2.605   1.045   3.220 -1.9723  1.2901 -2.4350
 2348TIP3   OH228458   5.087   2.463  11.141 -0.1280  0.4894 -0.2491
 2348TIP3    H128459   5.099   2.422  11.055  2.0993  1.0186 -0.2582
 2348TIP3    H228460   5.053   2.393  11.196 -0.8597 -0.0751 -1.3736
 2349TIP3   OH228461   3.027   3.601  14.948  0.2294  0.2298 -0.0621
 2349TIP3    H128462   2.977   3.662  14.893  2.5470  2.8231  0.4647
 2349TIP3    H228463   3.088   3.559  14.888  0.9013  1.0147  0.0450
 2350TIP3   OH228464   3.251   2.970  13.099  0.5425  0.2489  0.5391
 2350TIP3    H128465   3.165   2.933  13.077  1.0244 -0.7458  0.2377
 2350TIP3    H228466   3.263   3.042  13.038 -0.6722  1.3126  1.5164
 2351TIP3   OH228467   1.392   4.617   0.780  0.3239 -0.6936 -0.3147
 2351TIP3    H128468   1.369   4.529   0.750  0.3901 -1.0903  0.7599
 2351TIP3    H228469   1.338   4.631   0.857 -0.9232  0.8857 -1.4190
 2352TIP3   OH228470   6.487   4.112  10.893  0.3559  0.3901 -0.2335
 2352TIP3    H128471   6.513   4.205  10.897  0.9945  0.2087  0.1056
 2352TIP3    H228472   6.409   4.107  10.947  0.3927  0.7092 -0.1446
 2353TIP3   OH228473   1.820   1.775  16.344  0.2359 -0.0000  0.0306
 2353TIP3    H128474   1.744   1.832  16.334  0.0570 -0.2378  0.0262
 2353TIP3    H228475   1.882   1.827  16.395  0.7843  0.8599 -1.4493
 2354TIP3   OH228476   5.597   1.248   2.621 -0.4295 -0.4010 -0.2980
 2354TIP3    H128477   5.618   1.226   2.530 -1.4455 -0.5815 -0.5066
 2354TIP3    H228478   5.573   1.340   2.618  1.5408  0.1620  0.1658
 2355TIP3   OH228479   1.889   5.499  13.730  0.3154  0.2730 -0.3778
 2355TIP3    H128480   1.848   5.542  13.805  0.0047 -0.2045 -0.2739
 2355TIP3    H228481   1.858   5.549  13.654 -0.1298  0.1641 -0.2673
 2356TIP3   OH228482   2.002   5.105  14.193  0.3156  0.2404 -0.9085
 2356TIP3    H128483   1.974   5.032  14.249  0.0153  0.9842 -0.0676
 2356TIP3    H228484   1.945   5.099  14.116  0.3625 -0.4696 -0.8922
 2357TIP3   OH228485   0.514   6.561  11.471 -0.1067  0.6426 -0.0408
 2357TIP3    H128486   0.493   6.645  11.432 -2.0364 -1.4335 -4.1399
 2357TIP3    H228487   0.593   6.531  11.427  0.7597  0.3634  1.6028
 2358TIP3   OH228488   2.895   0.197  17.253  0.1989  0.3636 -0.0637
 2358TIP3    H128489   2.933   0.125  17.203 -0.4342  0.1903 -0.3076
 2358TIP3    H228490   2.925   0.276  17.208 -1.3020  0.2008 -1.4704
 2359TIP3   OH228491   3.557   5.232   2.113  0.5550  0.1878 -0.5921
 2359TIP3    H128492   3.576   5.324   2.093 -0.1493  0.2956 -0.7639
 2359TIP3    H228493   3.512   5.235   2.197  0.5195 -0.0007 -0.6059
 2360TIP3   OH228494   4.668   0.265  11.575 -0.1403 -0.3392 -0.5808
 2360TIP3    H128495   4.656   0.199  11.507 -0.7951 -0.8013 -0.0321
 2360TIP3    H228496   4.736   0.229  11.632  1.2110  0.5421 -1.5621
 2361TIP3   OH228497   1.217   3.957   6.442  0.2745 -0.3215  0.3815
 2361TIP3    H128498   1.199   4.045   6.476 -0.8392  0.9868 -3.1203
 2361TIP3    H228499   1.132   3.914   6.441  0.2203 -0.2327 -0.7927
 2362TIP3   OH228500   2.041   4.626  10.967  0.5068 -0.1224  0.0431
 2362TIP3    H128501   1.970   4.604  11.027 -0.2761  0.0420 -0.7952
 2362TIP3    H228502   2.093   4.692  11.014 -0.4063  0.4093  0.3306
 2363TIP3   OH228503   0.169   5.649   1.404  0.7053  0.3536  0.3827
 2363TIP3    H128504   0.128   5.586   1.346 -1.4106  1.4102  0.6375
 2363TIP3    H228505   0.230   5.597   1.456  0.0329 -1.2296 -0.3476
 2364TIP3   OH228506   3.467   3.685   5.447 -0.0331 -0.0515 -0.2035
 2364TIP3    H128507   3.476   3.621   5.518 -0.8489 -0.0218 -0.0667
 2364TIP3    H228508   3.376   3.714   5.452  0.0924  0.4709 -0.8229
 2365TIP3   OH228509   4.806   5.726   0.559  0.2214 -0.1742  0.1825
 2365TIP3    H128510   4.795   5.631   0.552 -0.5112 -0.1441  0.7982
 2365TIP3    H228511   4.770   5.749   0.645  1.5709  0.5034  0.5914
 2366TIP3   OH228512   6.419   4.760  15.324 -0.1309 -0.3193  0.2422
 2366TIP3    H128513   6.324   4.749  15.322 -0.1029 -0.5412  0.1233
 2366TIP3    H228514   6.450   4.715  15.246  0.1286 -0.7837  0.6068
 2367TIP3   OH228515   4.346   4.131   1.874 -0.5348  0.6624  0.5912
 2367TIP3    H128516   4.438   4.116   1.853 -1.2261 -2.1566 -0.9185
 2367TIP3    H228517   4.344   4.134   1.969  1.0624  0.1889  0.6757
 2368TIP3   OH228518   6.708   5.148  13.250  0.0547  0.6013  0.3469
 2368TIP3    H128519   6.735   5.222  13.197 -1.0302  2.0592  1.7402
 2368TIP3    H228520   6.790   5.101  13.268  0.5770  0.6227 -1.6930
 2369TIP3   OH228521   1.136   6.144  16.134  0.1692 -0.0601 -0.2225
 2369TIP3    H128522   1.156   6.156  16.041 -0.1463 -0.2930 -0.3202
 2369TIP3    H228523   1.195   6.205  16.178  1.0741 -0.6980 -0.5125
 2370TIP3   OH228524   1.112   0.745  15.278  0.1196  0.5958  0.1923
 2370TIP3    H128525   1.080   0.664  15.237  0.4683  0.8733 -0.6425
 2370TIP3    H228526   1.103   0.811  15.210  0.6824  1.0788  0.5804
 2371TIP3   OH228527   3.343   5.271   1.101  0.7121 -0.0192  0.1215
 2371TIP3    H128528   3.286   5.328   1.051 -0.9524 -1.7651 -0.0781
 2371TIP3    H228529   3.294   5.250   1.180  1.9514  0.0915  0.9510
 2372TIP3   OH228530   6.212   1.305   2.296 -0.0283 -0.4220  0.2134
 2372TIP3    H128531   6.193   1.275   2.385 -2.9901 -0.4568 -0.3500
 2372TIP3    H228532   6.244   1.226   2.251 -2.4683 -1.4866  0.2177
 2373TIP3   OH228533   6.293   5.254  13.042  0.2699  0.8088  0.6157
 2373TIP3    H128534   6.263   5.326  13.097  0.1896  0.3269  1.2115
 2373TIP3    H228535   6.229   5.185  13.056  1.2837 -0.0031  1.4017
 2374TIP3   OH228536   5.146   4.393   0.996  0.0496 -0.6937  0.4871
 2374TIP3    H128537   5.084   4.361   1.061 -0.0221 -0.0749  0.7252
 2374TIP3    H228538   5.232   4.367   1.029  0.1591  0.9715  1.6554
 2375TIP3   OH228539   0.770   0.648  14.382  0.4017  0.1424 -0.3643
 2375TIP3    H128540   0.849   0.625  14.431 -1.4489 -0.4619  2.6361
 2375TIP3    H228541   0.754   0.572  14.326  0.5004 -0.9985  1.0809
 2376TIP3   OH228542   0.773   4.089   3.486 -0.0433  0.0502  0.5390
 2376TIP3    H128543   0.693   4.132   3.518  1.1188  2.1072  0.8545
 2376TIP3    H228544   0.832   4.161   3.465  0.8204 -1.3096 -2.2349
 2377TIP3   OH228545   1.581   1.557   2.489  0.5846  0.0864 -0.0566
 2377TIP3    H128546   1.638   1.498   2.439 -3.5148 -3.3942 -1.2328
 2377TIP3    H228547   1.565   1.511   2.571  0.2188  1.4255  0.6508
 2378TIP3   OH228548   0.210   4.232  14.259  0.1633 -0.1694 -0.0782
 2378TIP3    H128549   0.177   4.300  14.201  0.0729  0.1489  0.3424
 2378TIP3    H228550   0.149   4.231  14.332  0.3570 -0.4711  0.0825
 2379TIP3   OH228551   5.744   2.319  14.350  0.1819  0.5927  0.2008
 2379TIP3    H128552   5.722   2.240  14.400 -1.0941  0.0209 -1.1718
 2379TIP3    H228553   5.678   2.322  14.280  2.6451  0.5164 -2.3398
 2380TIP3   OH228554   2.092   0.523   0.584 -0.1788  0.5284  0.4039
 2380TIP3    H128555   2.009   0.476   0.587  0.3015 -0.3315  0.7216
 2380TIP3    H228556   2.087   0.577   0.506 -1.0037  0.4259  0.3816
 2381TIP3   OH228557   6.681   3.295   5.083 -0.0374 -0.8574  0.0878
 2381TIP3    H128558   6.674   3.201   5.099 -0.9171 -1.0870 -1.4684
 2381TIP3    H228559   6.621   3.335   5.146 -4.4495 -1.8144 -3.0418
 2382TIP3   OH228560   5.202   5.410  11.119 -0.4392  0.3587 -0.6071
 2382TIP3    H128561   5.297   5.395  11.115  0.3925  4.3064 -0.0947
 2382TIP3    H228562   5.181   5.402  11.212 -0.9570 -1.7626 -0.8591
 2383TIP3   OH228563   2.908   6.074   5.169  0.1341  0.3192  0.5237
 2383TIP3    H128564   2.906   6.166   5.198  0.9280  0.5383 -0.1023
 2383TIP3    H228565   2.995   6.062   5.132  0.8719 -1.3305  2.5967
 2384TIP3   OH228566   6.289   4.066  15.337 -0.6612 -0.6478  0.1770
 2384TIP3    H128567   6.292   4.091  15.244 -2.6157 -0.6863  0.0593
 2384TIP3    H228568   6.380   4.046  15.359 -0.1317 -0.5436 -1.7028
 2385TIP3   OH228569   4.808   3.948   4.575 -0.0305  0.1013 -0.0979
 2385TIP3    H128570   4.885   3.954   4.518 -0.5873  2.2494 -0.7133
 2385TIP3    H228571   4.826   4.011   4.645  0.1513 -1.7069  1.5646
 2386TIP3   OH228572   0.524   3.683   5.249  0.1417  0.3895 -0.1529
 2386TIP3    H128573   0.464   3.756   5.263  1.8754  2.0079 -0.6304
 2386TIP3    H228574   0.558   3.698   5.160  0.6814 -0.8889 -0.1759
 2387TIP3   OH228575   2.275   3.520  15.843  0.3910 -0.1426  0.5398
 2387TIP3    H128576   2.327   3.586  15.797 -0.2102  0.2683  0.4321
 2387TIP3    H228577   2.268   3.447  15.781  0.6540 -0.1143  0.4755
 2388TIP3   OH228578   2.085   4.869   0.340  0.4152  0.2794  0.5127
 2388TIP3    H128579   2.035   4.789   0.323  0.8175  0.1124  0.1013
 2388TIP3    H228580   2.038   4.937   0.290 -0.0584  0.3524  1.0461
 2389TIP3   OH228581   0.580   3.847  16.020  0.5512  0.0613 -0.1475
 2389TIP3    H128582   0.545   3.807  15.941 -0.3022  0.7654 -0.1462
 2389TIP3    H228583   0.622   3.775  16.067 -0.8867 -0.8410 -0.1667
 2390TIP3   OH228584   3.862   1.102  11.004 -0.0860  0.2250  0.0995
 2390TIP3    H128585   3.789   1.053  11.043 -0.0870  0.2083  0.0760
 2390TIP3    H228586   3.897   1.044  10.937 -1.5593  1.1856 -1.5662
 2391TIP3   OH228587   4.610   4.401   6.739  0.0774  0.5739 -0.2025
 2391TIP3    H128588   4.655   4.472   6.785 -0.3450  0.3278  0.6179
 2391TIP3    H228589   4.608   4.428   6.648  1.5386  0.7753 -0.1913
 2392TIP3   OH228590   5.496   2.299  11.727  0.2632  0.7674  0.3356
 2392TIP3    H128591   5.518   2.339  11.811  0.1277 -2.9794  2.3714
 2392TIP3    H228592   5.407   2.330  11.709  0.1735  1.4148  1.7429
 2393TIP3   OH228593   4.654   2.237  17.172  0.1782  0.2924  0.3015
 2393TIP3    H128594   4.634   2.148  17.201 -0.2526  0.0255 -0.7552
 2393TIP3    H228595   4.707   2.224  17.093 -1.8791  0.9183 -1.2580
 2394TIP3   OH228596   4.957   3.949   2.703 -0.1957 -0.6172 -0.4223
 2394TIP3    H128597   4.959   3.858   2.733  2.4663 -0.2173  0.9064
 2394TIP3    H228598   4.881   3.987   2.747 -0.6863 -1.9167 -0.1099
 2395TIP3   OH228599   4.917   3.443  17.321 -0.5917 -0.1793  0.2344
 2395TIP3    H128600   4.982   3.495  17.273  2.1770 -1.7313  2.0385
 2395TIP3    H228601   4.898   3.369  17.262 -1.0481  0.4488 -0.4352
 2396TIP3   OH228602   3.411   3.855  13.803  0.2756 -0.5080 -0.3683
 2396TIP3    H128603   3.456   3.907  13.871  0.8628 -0.0987 -1.0506
 2396TIP3    H228604   3.391   3.919  13.734 -1.6536 -0.6179  0.0309
 2397TIP3   OH228605   1.999   3.260  15.833 -0.4639 -0.2673  0.3910
 2397TIP3    H128606   2.086   3.278  15.798 -0.5146  0.6099  0.6778
 2397TIP3    H228607   2.014   3.213  15.915 -0.1803  1.0982  1.1604
 2398TIP3   OH228608   1.922   2.854   5.883 -0.2102 -0.5989  0.0992
 2398TIP3    H128609   2.014   2.830   5.882 -0.2270 -0.6322 -0.9654
 2398TIP3    H228610   1.917   2.936   5.835 -0.8404 -1.0288 -0.6061
 2399TIP3   OH228611   4.032   4.830   3.394 -0.0964 -0.1504 -0.1781
 2399TIP3    H128612   3.966   4.761   3.402  0.7700 -1.0459 -0.5897
 2399TIP3    H228613   4.096   4.810   3.462  0.4217 -0.0432 -0.6286
 2400TIP3   OH228614   5.486   2.794   1.305  0.2081 -0.3486 -0.0862
 2400TIP3    H128615   5.513   2.739   1.232  1.0455 -0.4877  0.3239
 2400TIP3    H228616   5.530   2.877   1.291 -0.9492  0.2033 -0.6301
 2401TIP3   OH228617   5.491   6.268  12.432 -0.9384 -0.4909  0.3924
 2401TIP3    H128618   5.423   6.297  12.370  0.4766  1.4676 -0.3513
 2401TIP3    H228619   5.477   6.323  12.509 -1.3134 -1.3815  0.9748
 2402TIP3   OH228620   2.052   1.112   0.287  0.3722 -0.0629  0.3674
 2402TIP3    H128621   2.146   1.112   0.308  0.5008  1.3363 -0.0987
 2402TIP3    H228622   2.020   1.195   0.321 -0.0818  0.7844 -1.9574
 2403TIP3   OH228623   2.253   6.343  16.032 -0.6312 -0.0842  0.2310
 2403TIP3    H128624   2.278   6.259  15.993 -2.3344 -1.4536  1.8551
 2403TIP3    H228625   2.160   6.331  16.056 -0.8277  2.1683  0.7772
 2404TIP3   OH228626   5.503   2.634  16.362 -0.0209  0.0131 -0.3363
 2404TIP3    H128627   5.563   2.689  16.312 -0.4234 -1.1998 -2.2404
 2404TIP3    H228628   5.556   2.600  16.434  1.1580  0.1775 -1.1070
 2405TIP3   OH228629   1.698   0.749  16.415  0.0905  0.3364  0.3888
 2405TIP3    H128630   1.657   0.713  16.494 -0.4367  0.5646  0.2266
 2405TIP3    H228631   1.624   0.781  16.362  0.5040  1.2263  0.3218
 2406TIP3   OH228632   5.995   6.306  15.769 -0.1597  0.1276  0.3566
 2406TIP3    H128633   5.963   6.331  15.855 -0.3328 -0.4795  0.4755
 2406TIP3    H228634   6.068   6.365  15.752  0.9544 -0.8166  1.6613
 2407TIP3   OH228635   0.510   1.948  14.705 -0.1677  0.0798  0.2329
 2407TIP3    H128636   0.598   1.976  14.678  0.8801 -1.7029  1.6090
 2407TIP3    H228637   0.515   1.853  14.708 -2.0462 -0.0429  0.7944
 2408TIP3   OH228638   0.004   4.261   3.642 -0.3136  0.3730  0.5054
 2408TIP3    H128639  -0.064   4.198   3.668 -0.0333 -0.4532 -0.6785
 2408TIP3    H228640  -0.036   4.310   3.570  0.2642  0.0072 -0.0729
 2409TIP3   OH228641   6.677   0.708  14.732 -0.1277  0.3562  0.0057
 2409TIP3    H128642   6.593   0.682  14.769 -1.3020 -0.6917 -3.1357
 2409TIP3    H228643   6.657   0.782  14.675  1.6711  2.1640  1.5606
 2410TIP3   OH228644   3.267   0.721   5.778  0.4302 -0.0292  0.1495
 2410TIP3    H128645   3.200   0.780   5.744  1.2745  0.5013 -0.6570
 2410TIP3    H228646   3.225   0.677   5.852 -0.8510  0.1584 -0.4373
 2411TIP3   OH228647   4.100   5.068  10.680 -0.1459 -0.1809 -0.3417
 2411TIP3    H128648   4.017   5.115  10.669  0.5040  2.0246  2.5943
 2411TIP3    H228649   4.163   5.118  10.628 -0.4061 -1.1992 -1.6807
 2412TIP3   OH228650   2.344   3.727  14.216 -0.1199 -0.1261  0.4465
 2412TIP3    H128651   2.286   3.677  14.274 -0.1296  0.4673  0.9566
 2412TIP3    H228652   2.336   3.684  14.131  1.2779 -2.1798  1.2564
 2413TIP3   OH228653   0.017   3.521   1.972 -0.5155  0.5820 -0.5508
 2413TIP3    H128654  -0.039   3.447   1.949 -1.4640  1.4323 -1.0483
 2413TIP3    H228655   0.081   3.484   2.033 -3.1417  0.0471  2.1749
 2414TIP3   OH228656   5.568   6.764   6.214 -0.3309 -1.1786  0.1225
 2414TIP3    H128657   5.629   6.813   6.268 -0.0118 -1.0522 -0.3446
 2414TIP3    H228658   5.483   6.777   6.256 -0.4947  0.9626 -0.7403
 2415TIP3   OH228659   1.703   5.699  12.852 -0.3870  0.1099  0.5791
 2415TIP3    H128660   1.756   5.701  12.772  0.7294 -1.0772  1.2450
 2415TIP3    H228661   1.719   5.612  12.888 -1.1799  0.4922  1.9020
 2416TIP3   OH228662   1.677   4.533   4.827 -0.2759 -0.4011 -0.4310
 2416TIP3    H128663   1.701   4.441   4.811  0.0953 -0.0118 -2.3856
 2416TIP3    H228664   1.759   4.581   4.817 -0.5399  0.1916  0.1895
 2417TIP3   OH228665   2.008   0.683   5.574 -0.1953  0.2075 -0.4441
 2417TIP3    H128666   1.950   0.727   5.512  0.5875 -0.2071 -1.4919
 2417TIP3    H228667   2.078   0.746   5.591 -0.6174  0.4764  0.3502
 2418TIP3   OH228668   5.388   4.942  15.052  0.0309 -0.1167  0.1255
 2418TIP3    H128669   5.406   4.871  15.114 -1.5844 -1.1034 -0.4760
 2418TIP3    H228670   5.423   4.912  14.969 -0.3981 -0.1047 -0.0662
 2419TIP3   OH228671   5.571   0.174  16.857 -0.2502 -0.5573 -0.1663
 2419TIP3    H128672   5.503   0.202  16.919 -1.0024 -1.4974 -0.5444
 2419TIP3    H228673   5.534   0.195  16.771  0.1954 -0.5359 -0.3520
 2420TIP3   OH228674   0.787   2.846   5.545  0.0648 -0.2586  0.6199
 2420TIP3    H128675   0.730   2.886   5.480  1.4570 -1.8627 -1.7329
 2420TIP3    H228676   0.729   2.788   5.594 -0.4404 -1.9674 -1.8077
 2421TIP3   OH228677   5.348   2.558  12.994  0.9546 -0.0681  0.3174
 2421TIP3    H128678   5.412   2.525  13.058  1.2828  1.5349  0.8570
 2421TIP3    H228679   5.268   2.508  13.013  0.9615  0.5301  2.1870
 2422TIP3   OH228680   0.203   5.328   2.028 -0.6008  0.1110  0.1145
 2422TIP3    H128681   0.270   5.396   2.022  0.8533 -1.2105  0.6973
 2422TIP3    H228682   0.169   5.337   2.117  1.8630 -1.8678  1.3815
 2423TIP3   OH228683   5.201   1.344   4.198 -0.2212  0.0710 -0.0608
 2423TIP3    H128684   5.199   1.284   4.123  3.5367  0.5041 -0.7137
 2423TIP3    H228685   5.251   1.296   4.264  1.5838  1.8325 -0.0688
 2424TIP3   OH228686   4.905   1.023   3.554 -0.0367 -0.0877  0.0263
 2424TIP3    H128687   4.970   0.989   3.616  0.6225  0.6856 -0.2255
 2424TIP3    H228688   4.894   0.953   3.490  1.3330  0.1587 -0.5080
 2425TIP3   OH228689   6.576   5.114  17.127 -0.1124  0.0032  0.5240
 2425TIP3    H128690   6.518   5.053  17.081  0.6487  1.2665 -2.3311
 2425TIP3    H228691   6.518   5.180  17.165 -0.6814 -0.1971  0.0070
 2426TIP3   OH228692   6.626   3.262  12.132  0.5141 -0.3461 -0.2556
 2426TIP3    H128693   6.633   3.355  12.154  0.2038 -0.8316  2.3005
 2426TIP3    H228694   6.636   3.217  12.216 -0.9154 -2.5514 -1.1634
 2427TIP3   OH228695   4.672   1.769   0.826 -0.1271  0.0841 -0.0109
 2427TIP3    H128696   4.661   1.675   0.813 -2.6815  0.5415 -2.0762
 2427TIP3    H228697   4.606   1.793   0.890 -0.4391  0.6360 -0.5242
 2428TIP3   OH228698   6.532   4.874  16.707 -0.3018 -0.7630 -0.4498
 2428TIP3    H128699   6.555   4.837  16.793  0.3680  0.8566  0.0949
 2428TIP3    H228700   6.533   4.798  16.648  1.0936 -1.6149  0.6071
 2429TIP3   OH228701   3.745   4.859  10.553  0.2088  0.0759 -0.2646
 2429TIP3    H128702   3.652   4.841  10.566 -0.0572  1.6292  0.1254
 2429TIP3    H228703   3.747   4.948  10.518  1.5638  0.1334 -0.0721
 2430TIP3   OH228704   6.012   1.054   0.900 -0.2075 -0.9547  0.0639
 2430TIP3    H128705   5.982   0.967   0.873 -3.5046  0.2972 -0.8239
 2430TIP3    H228706   5.939   1.090   0.950  0.7495  1.5821 -0.2040
 2431TIP3   OH228707   6.658   1.638  16.949  0.3854 -0.4056  0.2347
 2431TIP3    H128708   6.563   1.644  16.941  0.2752 -0.6452  1.2008
 2431TIP3    H228709   6.675   1.647  17.043  1.3271 -0.2391  0.0620
 2432TIP3   OH228710   3.472   0.785  13.368 -0.3159  0.1600  0.9681
 2432TIP3    H128711   3.527   0.854  13.330 -0.0202 -0.3871  0.3826
 2432TIP3    H228712   3.407   0.832  13.420 -0.7115  0.9583 -0.1882
 2433TIP3   OH228713   2.318   5.770  15.068  0.8022 -0.1744 -0.0529
 2433TIP3    H128714   2.252   5.829  15.033 -1.1936 -1.5305  1.1901
 2433TIP3    H228715   2.400   5.819  15.064 -0.8124  2.8773  1.3614
 2434TIP3   OH228716   2.440   6.073   2.202  0.0722 -0.1120  1.0366
 2434TIP3    H128717   2.423   5.980   2.209 -1.9230  0.1710  0.4905
 2434TIP3    H228718   2.379   6.114   2.263  0.7738  0.8547  1.1145
 2435TIP3   OH228719   2.367   5.753   4.209 -0.5534  0.5008  0.0714
 2435TIP3    H128720   2.429   5.794   4.149  0.6522  0.1934  1.0503
 2435TIP3    H228721   2.316   5.693   4.154  1.2407 -0.5767 -0.5023
 2436TIP3   OH228722   2.662   1.977   3.095  0.2945 -0.0112 -0.2290
 2436TIP3    H128723   2.647   1.894   3.141  0.5998  0.5338  0.9013
 2436TIP3    H228724   2.577   1.997   3.055 -0.6859  0.6016  2.0015
 2437TIP3   OH228725   0.040   2.244  13.711  0.0694 -0.2548  0.7602
 2437TIP3    H128726   0.021   2.170  13.654 -0.1029 -0.5266  1.1657
 2437TIP3    H228727   0.131   2.230  13.738  0.4943  0.4354 -0.2761
 2438TIP3   OH228728   5.947   3.752  15.224  0.2145 -0.1247 -0.0865
 2438TIP3    H128729   5.961   3.722  15.134  1.0400 -1.3507  0.4301
 2438TIP3    H228730   5.907   3.677  15.268 -0.8347  0.7017  0.4213
 2439TIP3   OH228731   1.522   6.127   5.812  0.1900 -0.1301  0.0828
 2439TIP3    H128732   1.445   6.180   5.793  0.5655  0.2854 -0.2929
 2439TIP3    H228733   1.580   6.141   5.737  1.1629  0.5478  0.9375
 2440TIP3   OH228734   1.375   1.938   1.779 -0.4342 -0.4337 -0.2926
 2440TIP3    H128735   1.392   1.850   1.813  2.2488  0.9725  2.5546
 2440TIP3    H228736   1.454   1.960   1.729 -0.6296  0.6600 -0.1447
 2441TIP3   OH228737   1.224   5.005   5.710  0.0565 -0.1779  0.6269
 2441TIP3    H128738   1.265   5.000   5.796 -0.3085 -0.9305  0.7671
 2441TIP3    H228739   1.204   4.914   5.688  0.9283 -0.1073 -0.6262
 2442TIP3   OH228740   4.608   3.644   6.404 -0.1424  0.4353 -0.1239
 2442TIP3    H128741   4.520   3.662   6.371  0.3483  0.5469 -1.4514
 2442TIP3    H228742   4.603   3.556   6.440 -0.7212  0.2905 -0.5436
 2443TIP3   OH228743   4.031   1.505   1.342 -0.3051  0.3083 -0.0618
 2443TIP3    H128744   3.966   1.558   1.388  0.5160  1.8196 -0.5878
 2443TIP3    H228745   4.111   1.517   1.393 -0.2148 -0.9087  0.1272
 2444TIP3   OH228746   4.449   3.841   2.400 -0.5001 -0.3201  0.0423
 2444TIP3    H128747   4.354   3.846   2.408 -0.5030 -1.0017  0.5861
 2444TIP3    H228748   4.476   3.928   2.371 -1.2479  0.0044  0.2982
 2445TIP3   OH228749   0.472   4.092   4.738 -0.1863  0.1424 -0.4786
 2445TIP3    H128750   0.483   4.187   4.746 -1.0480  0.1913  0.3252
 2445TIP3    H228751   0.466   4.061   4.828  2.2472 -0.9950 -0.6177
 2446TIP3   OH228752   2.290   0.961  14.113 -0.3401  0.0917  0.6344
 2446TIP3    H128753   2.308   0.929  14.201  0.0078  2.4025  1.4698
 2446TIP3    H228754   2.376   0.984  14.078  0.1714 -4.6005 -2.0704
 2447TIP3   OH228755   6.198   0.867  12.198  0.0324  0.2762  0.4649
 2447TIP3    H128756   6.219   0.796  12.138 -2.1562 -0.5402  0.5649
 2447TIP3    H228757   6.281   0.914  12.211  0.6557  0.3263 -2.9276
 2448TIP3   OH228758   4.732   1.019  13.913 -0.1332 -0.5478  0.1959
 2448TIP3    H128759   4.735   0.967  13.832  0.3203 -0.3250  0.0639
 2448TIP3    H228760   4.713   1.108  13.883  1.2149 -0.2323  0.2107
 2449TIP3   OH228761   1.261   2.149  16.093  0.4212  0.3748  0.5461
 2449TIP3    H128762   1.202   2.223  16.101 -1.0179 -0.6534 -0.0765
 2449TIP3    H228763   1.348   2.188  16.086 -0.4068  2.0787 -1.1245
 2450TIP3   OH228764   3.680   3.465   2.980 -0.0882  0.2601 -0.0845
 2450TIP3    H128765   3.664   3.470   2.885 -2.2244 -0.2876  0.1829
 2450TIP3    H228766   3.683   3.556   3.009  0.9272  0.4373 -0.7176
 2451TIP3   OH228767   1.402   3.473   4.473 -0.0516  0.5778  0.5479
 2451TIP3    H128768   1.436   3.404   4.417 -3.2881 -1.2513  0.5610
 2451TIP3    H228769   1.366   3.537   4.412 -1.4566 -0.2576  0.4473
 2452TIP3   OH228770   3.202   6.663   4.487  0.4385  0.4799  0.4730
 2452TIP3    H128771   3.293   6.668   4.515 -0.0075  4.3813  1.8004
 2452TIP3    H228772   3.203   6.691   4.396  0.6138  0.1085  0.3613
 2453TIP3   OH228773   6.464   0.989   2.833  0.2785 -0.1310  0.1401
 2453TIP3    H128774   6.493   1.079   2.849  0.6305 -0.0508 -0.8650
 2453TIP3    H228775   6.379   0.982   2.876  0.2206  0.7042  0.1659
 2454TIP3   OH228776   3.289   4.000   3.961 -0.4599 -0.2224 -0.5514
 2454TIP3    H128777   3.232   3.926   3.939 -0.4434 -1.1582  2.1219
 2454TIP3    H228778   3.228   4.072   3.978 -0.9079 -1.0158  1.5553
 2455TIP3   OH228779   0.699   1.605   4.084  0.0854 -0.1282  0.1650
 2455TIP3    H128780   0.747   1.685   4.063 -0.0987  0.1416  0.7584
 2455TIP3    H228781   0.749   1.535   4.042  0.4356  0.2597 -0.0680
 2456TIP3   OH228782   6.140   6.653  14.399 -0.9621  0.4475  0.2742
 2456TIP3    H128783   6.046   6.643  14.387 -0.9123  0.3252 -0.0196
 2456TIP3    H228784   6.166   6.576  14.450 -1.4820  1.9119  2.9307
 2457TIP3   OH228785   5.323   1.569   5.852  0.5295  0.0768  0.1600
 2457TIP3    H128786   5.319   1.662   5.829  0.4910  0.1413  0.4197
 2457TIP3    H228787   5.416   1.549   5.857  0.6155  0.7332  2.5503
 2458TIP3   OH228788   0.473   2.670   4.339 -0.6284  0.6608  0.6031
 2458TIP3    H128789   0.437   2.707   4.258 -0.6854  0.1450  0.3880
 2458TIP3    H228790   0.396   2.643   4.389 -0.5621  0.1054  0.4075
 2459TIP3   OH228791   1.088   2.486   1.686 -0.0113 -0.3029 -0.3943
 2459TIP3    H128792   1.010   2.447   1.725 -0.2672 -1.0424 -1.5686
 2459TIP3    H228793   1.118   2.551   1.749 -1.6779  0.1083 -0.0010
 2460TIP3   OH228794   5.347   5.610   5.355  0.1124 -0.7497  0.8816
 2460TIP3    H128795   5.386   5.698   5.353  0.6149 -0.9650  1.0456
 2460TIP3    H228796   5.337   5.590   5.448  0.2007 -0.9521  0.8483
 2461TIP3   OH228797   0.552   0.593  11.343  0.3759  0.3517  0.4589
 2461TIP3    H128798   0.577   0.657  11.277 -0.0224 -0.4040 -0.4377
 2461TIP3    H228799   0.631   0.541  11.357 -0.2636 -1.2518 -1.4787
 2462TIP3   OH228800   4.659   1.044   4.962 -0.5072  0.2989  0.4168
 2462TIP3    H128801   4.585   1.057   4.902 -1.6860 -0.6052  1.5950
 2462TIP3    H228802   4.618   1.012   5.043  1.2506 -1.0256  0.8428
 2463TIP3   OH228803   6.641   1.592  16.663  0.2638 -0.0094  0.3304
 2463TIP3    H128804   6.664   1.509  16.621  0.9990  0.5857 -0.4915
 2463TIP3    H228805   6.641   1.573  16.757 -2.1371 -1.5621  0.0931
 2464TIP3   OH228806   3.649   0.826   3.181 -0.2807  0.1549 -0.3609
 2464TIP3    H128807   3.709   0.807   3.108  2.5431  1.4074  1.4492
 2464TIP3    H228808   3.593   0.749   3.187  1.9170 -1.6674 -1.4895
 2465TIP3   OH228809   1.128   4.455   0.155  0.1729  0.7832  0.1696
 2465TIP3    H128810   1.127   4.363   0.129 -1.4375  0.8567 -0.1491
 2465TIP3    H228811   1.165   4.455   0.243  1.6556  0.0390 -0.4179
 2466TIP3   OH228812   5.782   0.130   4.130 -0.3376  0.0579 -0.0697
 2466TIP3    H128813   5.788   0.040   4.099 -1.3559  0.1714 -0.6498
 2466TIP3    H228814   5.722   0.127   4.204 -1.6381  0.4509 -1.0553
 2467TIP3   OH228815   5.118   1.290   2.914  0.2590  0.1855 -0.1841
 2467TIP3    H128816   5.145   1.202   2.939 -1.6594 -0.1877  0.7662
 2467TIP3    H228817   5.094   1.282   2.821 -2.2505 -0.9788  0.4722
 2468TIP3   OH228818   2.064   3.278  17.359  0.3623 -0.1052 -0.4501
 2468TIP3    H128819   2.060   3.364  17.400 -2.9331 -1.2428  2.0484
 2468TIP3    H228820   2.030   3.291  17.271 -0.9807  1.0220  0.2059
 2469TIP3   OH228821   1.526   4.574   6.222 -0.0062  0.1522 -0.1930
 2469TIP3    H128822   1.586   4.575   6.147  0.5855  0.5938  0.2772
 2469TIP3    H228823   1.515   4.665   6.246  3.3382 -0.0644  2.9798
 2470TIP3   OH228824   1.885   0.819   0.914  0.0309  0.2068 -0.1402
 2470TIP3    H128825   1.930   0.889   0.869  0.3445 -0.6354 -1.1709
 2470TIP3    H228826   1.855   0.760   0.845 -2.5572  0.6512  0.4951
 2471TIP3   OH228827   2.410   0.208   2.868 -0.3253 -0.7404  0.2122
 2471TIP3    H128828   2.421   0.170   2.955 -0.4807  0.0867  0.6109
 2471TIP3    H228829   2.315   0.223   2.861 -0.2523 -0.2917  0.1367
 2472TIP3   OH228830   6.683   5.502  12.302 -0.2901 -0.4307  0.1815
 2472TIP3    H128831   6.702   5.570  12.367 -1.0097  3.6202 -3.3934
 2472TIP3    H228832   6.767   5.485  12.259 -0.6326  0.5989 -0.9401
 2473TIP3   OH228833   6.635   5.939   6.647 -0.0187  0.0874 -0.4298
 2473TIP3    H128834   6.650   6.033   6.652 -0.0528  0.2048 -2.0883
 2473TIP3    H228835   6.540   5.931   6.633 -0.0360 -0.2078 -0.1583
 2474TIP3   OH228836   3.112   6.276  13.808  0.0671  0.1120 -0.1875
 2474TIP3    H128837   3.181   6.323  13.762  1.3149 -0.0744  1.3864
 2474TIP3    H228838   3.032   6.323  13.786  0.4945 -0.2837 -2.8960
 2475TIP3   OH228839   0.341   3.042   0.119 -0.2566  0.2306  0.2120
 2475TIP3    H128840   0.355   3.118   0.063 -0.6974  0.9809  1.1014
 2475TIP3    H228841   0.261   3.001   0.085 -0.6361  0.7977  0.4163
 2476TIP3   OH228842   0.437   1.063  15.413  0.3897  0.0292  0.0313
 2476TIP3    H128843   0.495   1.015  15.354  0.7177  0.8313 -0.3131
 2476TIP3    H228844   0.382   1.115  15.354  2.1263  2.4760  0.4406
 2477TIP3   OH228845   1.382   1.745  13.642 -0.0018 -0.3052 -0.1760
 2477TIP3    H128846   1.381   1.825  13.694 -0.1127  0.2769 -1.0474
 2477TIP3    H228847   1.291   1.717  13.639  0.2373 -1.3578  1.4395
 2478TIP3   OH228848   2.518   1.164  16.337  0.1214  0.2898  0.2668
 2478TIP3    H128849   2.478   1.206  16.260  0.8463  1.9070  0.7332
 2478TIP3    H228850   2.507   1.070  16.321 -1.4187  0.6274 -0.9035
 2479TIP3   OH228851   1.414   0.887   0.116 -0.4890  0.5102 -0.2582
 2479TIP3    H128852   1.501   0.847   0.109 -0.9504 -0.2165 -3.1170
 2479TIP3    H228853   1.429   0.981   0.101 -0.1543  0.4060 -0.6018
 2480TIP3   OH228854   5.272   2.429   6.522 -0.0474 -0.4275  0.0006
 2480TIP3    H128855   5.210   2.501   6.510 -0.0015  0.1281  2.5482
 2480TIP3    H228856   5.358   2.470   6.516  0.0016 -0.5304 -0.0002
 2481TIP3   OH228857   2.749   5.499   1.131 -0.5613  0.5288  0.2813
 2481TIP3    H128858   2.782   5.522   1.044 -0.3908  2.3480  0.7868
 2481TIP3    H228859   2.763   5.405   1.137 -0.5626  0.3591 -1.6494
 2482TIP3   OH228860   4.268   4.656  13.333  0.0176  0.4479 -0.4120
 2482TIP3    H128861   4.288   4.701  13.252  0.6370  2.7701  0.9465
 2482TIP3    H228862   4.207   4.714  13.379 -0.9899 -1.2023  0.4559
 2483TIP3   OH228863   2.973   0.154   2.809  0.2745  0.0769  0.6025
 2483TIP3    H128864   2.980   0.157   2.904  1.4620 -0.3494  0.5472
 2483TIP3    H228865   2.928   0.072   2.790  3.3763 -1.8285  0.7199
 2484TIP3   OH228866   1.074   5.196   5.023 -0.3484 -0.1915  0.3973
 2484TIP3    H128867   1.145   5.229   5.077 -1.0850  0.2726  1.0925
 2484TIP3    H228868   1.045   5.116   5.066  0.7228 -1.2198 -0.7036
 2485TIP3   OH228869   3.244   3.789   1.364  0.1181  0.5236 -0.5264
 2485TIP3    H128870   3.153   3.763   1.381  0.6820 -0.5043  1.2847
 2485TIP3    H228871   3.273   3.828   1.447  1.5803  0.0432 -0.7813
 2486TIP3   OH228872   2.282   1.510   3.215  0.1009 -0.2538 -0.0537
 2486TIP3    H128873   2.236   1.594   3.215  1.6316  0.6239 -0.6818
 2486TIP3    H228874   2.348   1.519   3.284  0.2061 -1.0010 -0.0464
 2487TIP3   OH228875   3.614   1.639   4.484  0.0713  0.3866 -0.1783
 2487TIP3    H128876   3.655   1.558   4.454  1.1490  1.2880 -1.3114
 2487TIP3    H228877   3.538   1.650   4.428 -0.9819 -0.5946  1.0100
 2488TIP3   OH228878   5.252   4.815  13.232 -0.1978 -0.1003  0.0156
 2488TIP3    H128879   5.259   4.729  13.274 -0.4768 -1.7724 -3.0776
 2488TIP3    H228880   5.185   4.861  13.284 -0.4946 -1.9620  1.4084
 2489TIP3   OH228881   3.175   5.016  13.176 -0.2011 -0.8144  0.6188
 2489TIP3    H128882   3.202   4.945  13.118 -0.8270  0.1738 -0.9245
 2489TIP3    H228883   3.184   5.096  13.123 -4.7155 -0.2363  0.3961
 2490TIP3   OH228884   3.962   4.426  12.221  0.4090 -0.5195 -0.0285
 2490TIP3    H128885   3.997   4.394  12.138 -1.0585  1.6064 -1.5685
 2490TIP3    H228886   3.871   4.396  12.221  0.3989 -0.5044  0.8228
 2491TIP3   OH228887   0.358   0.814   4.264 -0.4166  0.2413 -0.0168
 2491TIP3    H128888   0.376   0.907   4.283 -0.5657  0.4312 -0.7988
 2491TIP3    H228889   0.403   0.797   4.181 -0.1107 -0.4813  0.2871
 2492TIP3   OH228890   1.487   0.263   4.429 -0.4505  0.1903 -0.1774
 2492TIP3    H128891   1.443   0.179   4.417 -1.1529  0.4017  0.7930
 2492TIP3    H228892   1.490   0.275   4.524 -1.6163  1.8893 -0.3076
 2493TIP3   OH228893   5.680   1.570   4.849 -0.5456  0.0661  0.0646
 2493TIP3    H128894   5.664   1.656   4.888 -0.8422  0.2764 -0.5191
 2493TIP3    H228895   5.703   1.589   4.758  0.0381 -0.4320  0.1050
 2494TIP3   OH228896   0.028   2.249  10.934  1.1286  0.1755 -0.6053
 2494TIP3    H128897   0.075   2.183  10.984  1.4840  0.2226 -0.8711
 2494TIP3    H228898  -0.064   2.222  10.938  1.1276  0.2897  0.2344
 2495TIP3   OH228899   6.289   3.081  14.498 -0.0419 -0.7673  0.1119
 2495TIP3    H128900   6.330   2.995  14.493 -0.6056 -1.0971  1.0832
 2495TIP3    H228901   6.276   3.097  14.591 -1.0993 -0.1837 -0.1219
 2496TIP3   OH228902   2.711   2.283   3.735  0.0677  0.2556  0.3328
 2496TIP3    H128903   2.653   2.330   3.796 -0.1837  1.8927 -1.0965
 2496TIP3    H228904   2.683   2.192   3.741 -2.8402  0.9931 -0.4229
 2497TIP3   OH228905   2.739   5.709  15.895  0.1704  0.3781  0.4378
 2497TIP3    H128906   2.675   5.665  15.952 -1.3386 -0.0506 -1.5008
 2497TIP3    H228907   2.781   5.638  15.847  0.2505  0.8347 -0.1716
 2498TIP3   OH228908   6.384   2.326   4.499  0.0635  0.3558  0.3943
 2498TIP3    H128909   6.347   2.391   4.439 -0.4129 -1.5873 -1.5557
 2498TIP3    H228910   6.318   2.315   4.567 -1.8241 -1.0148 -1.5220
 2499TIP3   OH228911   4.544   1.597  16.923  0.2453  0.0449 -0.2293
 2499TIP3    H128912   4.539   1.655  16.847 -0.2736 -0.4004 -0.5466
 2499TIP3    H228913   4.635   1.568  16.926  0.2294 -0.0688 -0.7831
 2500TIP3   OH228914   5.388   1.682  16.288 -0.4411 -0.3033  0.2714
 2500TIP3    H128915   5.414   1.633  16.209  0.0509 -1.1629  0.9436
 2500TIP3    H228916   5.462   1.741  16.304  0.0905 -1.0949  0.8469
 2501TIP3   OH228917   3.779   2.268  16.548 -0.5597  0.2672 -0.1366
 2501TIP3    H128918   3.820   2.185  16.572  1.7003  1.3418  0.0565
 2501TIP3    H228919   3.756   2.309  16.631 -0.3599  0.4406 -0.1654
 2502TIP3   OH228920   0.572   1.864  12.224 -0.0227 -0.0073  0.0544
 2502TIP3    H128921   0.642   1.811  12.185 -0.7094 -0.2941 -0.8079
 2502TIP3    H228922   0.501   1.802  12.240 -0.0068  0.2359  1.1534
 2503TIP3   OH228923   4.116   3.379  16.571  0.4979 -0.5858  0.1558
 2503TIP3    H128924   4.204   3.414  16.583  0.5614 -0.8134  0.3570
 2503TIP3    H228925   4.112   3.303  16.629  0.0336 -0.3439  0.4455
 2504TIP3   OH228926   4.729   6.246  13.444  0.6530 -0.3638  0.2185
 2504TIP3    H128927   4.664   6.280  13.505  0.5654  1.4838 -0.8361
 2504TIP3    H228928   4.688   6.254  13.358  2.2736  0.9724 -0.4823
 2505TIP3   OH228929   3.554   6.342   3.515  0.6750  0.0053  0.5279
 2505TIP3    H128930   3.601   6.262   3.490  0.4323 -0.5821  1.8700
 2505TIP3    H228931   3.466   6.312   3.538  0.1991  0.8437 -0.1141
 2506TIP3   OH228932   5.586   4.394   2.871 -0.3378  0.0569 -0.6485
 2506TIP3    H128933   5.592   4.471   2.929 -1.9581 -0.7092  0.6229
 2506TIP3    H228934   5.647   4.331   2.910  1.0856  0.6780 -1.7630
 2507TIP3   OH228935   0.580   5.361   2.121  0.9018 -0.4637  0.2649
 2507TIP3    H128936   0.506   5.416   2.143 -0.6302 -2.2920 -0.0828
 2507TIP3    H228937   0.637   5.365   2.198  0.6297  1.2240  0.4049
 2508TIP3   OH228938   6.136   0.339   3.588 -0.0241 -0.0540  0.5042
 2508TIP3    H128939   6.150   0.289   3.669  0.3720  0.8607  1.0194
 2508TIP3    H228940   6.209   0.314   3.532 -1.5054 -2.4359 -0.5177
 2509TIP3   OH228941   1.390   0.006   4.107  0.3907 -0.2596  0.2824
 2509TIP3    H128942   1.377  -0.056   4.179 -0.3557  2.0444  2.2506
 2509TIP3    H228943   1.485   0.015   4.100  0.4992 -1.3074  0.2029
 2510TIP3   OH228944   3.803   4.982   1.736 -0.3967 -0.1019 -0.0122
 2510TIP3    H128945   3.709   4.965   1.727 -0.2284 -2.5207  1.7828
 2510TIP3    H228946   3.817   4.986   1.831  0.9810  2.7668 -0.2401
 2511TIP3   OH228947   4.999   4.230   2.945  0.2726  0.3009  0.5275
 2511TIP3    H128948   5.051   4.226   2.865 -0.7869  2.7191 -0.3749
 2511TIP3    H228949   5.064   4.225   3.015  1.4502  0.3556 -0.5121
 2512TIP3   OH228950   4.488   4.448  12.873  0.2268  0.1718  0.1407
 2512TIP3    H128951   4.504   4.392  12.798 -0.2963 -0.0745  0.2119
 2512TIP3    H228952   4.393   4.458  12.877  0.2750  0.5341  0.5114
 2513TIP3   OH228953   1.874   2.440   0.704  0.1909  0.4253  0.6457
 2513TIP3    H128954   1.944   2.455   0.640 -0.1244 -0.6389  0.0173
 2513TIP3    H228955   1.793   2.455   0.655 -0.0589 -0.5943  0.7081
 2514TIP3   OH228956   4.272   1.715  12.924 -0.0956 -0.1680  0.0120
 2514TIP3    H128957   4.242   1.624  12.922 -0.3009 -0.0957 -0.4677
 2514TIP3    H228958   4.201   1.763  12.881 -0.4400  0.3545  1.1309
 2515TIP3   OH228959   3.417   0.062   5.331 -0.0305 -0.0847  0.3200
 2515TIP3    H128960   3.491   0.103   5.377  0.8956  0.1768 -1.3250
 2515TIP3    H228961   3.345   0.124   5.343  1.2306  1.9793 -1.7652
 2516TIP3   OH228962   2.758   2.376   6.138  0.8419 -0.0576  0.2925
 2516TIP3    H128963   2.701   2.326   6.197  1.0302 -0.4473  0.1417
 2516TIP3    H228964   2.713   2.460   6.128 -0.3668 -0.8005 -0.8350
 2517TIP3   OH228965   6.019   0.841  11.381 -0.0480  0.2952  0.5169
 2517TIP3    H128966   5.966   0.789  11.441  0.5445 -0.2441  0.5784
 2517TIP3    H228967   6.108   0.835  11.416  0.2256  0.3461 -0.1572
 2518TIP3   OH228968   4.804   2.179   1.346 -0.0245 -0.2024  0.1641
 2518TIP3    H128969   4.708   2.188   1.348 -0.1688 -1.6401  0.5386
 2518TIP3    H228970   4.836   2.269   1.351 -1.3519  0.2733  0.5863
 2519TIP3   OH228971   6.422   2.578   6.072  0.2313 -0.0657 -0.0274
 2519TIP3    H128972   6.442   2.519   5.999 -0.1481 -0.8148  0.4551
 2519TIP3    H228973   6.503   2.582   6.123  1.0473  1.7999 -1.3612
 2520TIP3   OH228974   6.697   2.055   3.295 -0.1988  0.6106 -0.3783
 2520TIP3    H128975   6.622   2.023   3.245 -0.3035  2.3581 -1.4037
 2520TIP3    H228976   6.668   2.053   3.386 -1.3993  1.0217 -0.7432
 2521TIP3   OH228977   3.551   2.199  13.047  0.1415 -0.4795  0.3448
 2521TIP3    H128978   3.504   2.260  13.104 -0.9938 -0.3305 -0.7024
 2521TIP3    H228979   3.536   2.113  13.085 -0.5001 -0.3691  0.3478
 2522TIP3   OH228980   2.041   5.449   6.419  0.3987  0.6935  0.3579
 2522TIP3    H128981   1.990   5.469   6.497  1.2528  1.3685  0.7668
 2522TIP3    H228982   2.048   5.353   6.418  0.3509  0.6768  1.0957
 2523TIP3   OH228983   1.943   1.851  13.464 -0.1640 -0.3369 -0.2208
 2523TIP3    H128984   1.962   1.939  13.433  3.4152 -0.9078 -0.0820
 2523TIP3    H228985   1.992   1.843  13.546 -1.5667 -2.0275  0.5279
 2524TIP3   OH228986   2.483   5.786  12.259 -0.4231  0.3347 -0.0107
 2524TIP3    H128987   2.569   5.825  12.278 -0.5736  0.6494  0.0200
 2524TIP3    H228988   2.440   5.849  12.202  0.0324 -0.6087 -1.4628
 2525TIP3   OH228989   5.505   3.125  11.002  0.1062 -0.4950 -0.0569
 2525TIP3    H128990   5.521   3.039  10.964 -0.5230 -1.6090  2.0221
 2525TIP3    H228991   5.447   3.168  10.939  0.4994 -1.5550 -1.1867
 2526TIP3   OH228992   2.982   0.334   4.341  0.3873  0.1376 -0.2090
 2526TIP3    H128993   3.076   0.340   4.322  0.5458 -0.5351  0.3018
 2526TIP3    H228994   2.954   0.424   4.354  1.1574  0.2818  0.5291
 2527TIP3   OH228995   2.681   0.141  12.285  0.2008 -0.3911 -0.7506
 2527TIP3    H128996   2.701   0.149  12.192  0.3005  2.3545 -0.5619
 2527TIP3    H228997   2.598   0.188  12.297  0.6411  0.0905  0.6695
 2528TIP3   OH228998   6.758   0.994   5.505  0.6006 -0.4233 -0.4271
 2528TIP3    H128999   6.820   0.980   5.577 -1.4185 -0.1316  1.4945
 2528TIP3    H229000   6.720   0.908   5.489  0.4321 -0.3289 -0.5368
 2529TIP3   OH229001   2.464   1.249   5.238  0.7103 -0.1477  0.1661
 2529TIP3    H129002   2.384   1.287   5.201 -0.6332  1.6808  4.3569
 2529TIP3    H229003   2.534   1.305   5.207 -0.2938  1.1929  0.2502
 2530TIP3   OH229004   3.522   1.624  12.382 -0.3238 -0.2016 -0.8582
 2530TIP3    H129005   3.522   1.529  12.393  2.2421 -0.2475 -0.6799
 2530TIP3    H229006   3.509   1.658  12.471  2.7438 -0.4788 -0.2095
 2531TIP3   OH229007   3.119   6.374  14.487  0.4758 -0.1809  0.1010
 2531TIP3    H129008   3.175   6.414  14.553 -0.1494  0.8358  0.0342
 2531TIP3    H229009   3.084   6.296  14.529  0.7538 -0.0043  0.6655
 2532TIP3   OH229010   0.565   3.644  13.487 -0.2682 -0.0212  0.1462
 2532TIP3    H129011   0.548   3.552  13.505 -0.5553 -0.4642 -2.0868
 2532TIP3    H229012   0.628   3.671  13.553  0.3445 -2.0112  0.4199
 2533TIP3   OH229013   4.313   5.558   5.635  0.0482 -0.7019 -0.0845
 2533TIP3    H129014   4.265   5.598   5.707  0.2131 -1.3522  0.3982
 2533TIP3    H229015   4.310   5.464   5.654  0.6976 -0.8209 -0.5563
 2534TIP3   OH229016   6.107   6.198   5.489 -0.0385 -0.2532 -0.2129
 2534TIP3    H129017   6.163   6.126   5.460 -0.1920 -1.4377  2.1972
 2534TIP3    H229018   6.018   6.163   5.482 -0.4213  0.9247 -2.1192
 2535TIP3   OH229019   4.522   1.252  14.591 -1.5138 -0.1172  0.7709
 2535TIP3    H129020   4.601   1.299  14.563 -1.6052 -0.2407  0.3104
 2535TIP3    H229021   4.455   1.278  14.529 -1.2754 -1.7785 -0.2278
 2536TIP3   OH229022   2.740   5.315   4.915 -0.6949 -0.1145 -0.2088
 2536TIP3    H129023   2.706   5.334   4.827  0.3109  0.8246 -0.4208
 2536TIP3    H229024   2.676   5.352   4.975  0.1581  2.1430 -0.6045
 2537TIP3   OH229025   0.547   2.261   4.900 -0.4956 -0.7073 -0.1320
 2537TIP3    H129026   0.566   2.273   4.993 -0.3761  0.2194 -0.2737
 2537TIP3    H229027   0.629   2.226   4.863 -0.1184  0.1663 -0.1288
 2538TIP3   OH229028   0.831   4.117   1.153 -0.2167 -0.1927 -0.0004
 2538TIP3    H129029   0.927   4.114   1.157 -0.2428 -0.7834  0.3027
 2538TIP3    H229030   0.811   4.209   1.134  0.4957 -0.5467 -2.9250
 2539TIP3   OH229031   4.404   5.747   4.817  0.0594  0.0333 -0.0788
 2539TIP3    H129032   4.384   5.830   4.774 -2.5230 -0.0677  0.8020
 2539TIP3    H229033   4.476   5.767   4.877 -0.1005  1.4761 -0.3465
 2540TIP3   OH229034   5.786   5.746   3.384 -0.4681  0.2360 -0.3393
 2540TIP3    H129035   5.790   5.712   3.473 -0.4088  0.4505 -0.2586
 2540TIP3    H229036   5.807   5.671   3.328  1.2659  0.4958 -0.0931
 2541TIP3   OH229037   0.274   5.515  13.905 -0.3819 -0.1701 -0.6775
 2541TIP3    H129038   0.178   5.520  13.908 -0.5625 -2.5161  1.5560
 2541TIP3    H229039   0.292   5.456  13.832 -0.3928  2.4408 -2.9037
 2542TIP3   OH229040   4.176   4.094  16.362 -0.2201  0.0574 -0.1108
 2542TIP3    H129041   4.090   4.064  16.330 -0.0575 -0.0704 -0.4313
 2542TIP3    H229042   4.163   4.106  16.456 -0.2646 -1.1584  0.0595
 2543TIP3   OH229043   0.255   2.569  13.158 -0.3433 -0.0884 -0.0144
 2543TIP3    H129044   0.346   2.576  13.188  0.4661  0.6192 -2.4233
 2543TIP3    H229045   0.208   2.535  13.235  1.6001  1.1560  1.8596
 2544TIP3   OH229046   4.350   3.867  11.641 -0.4055  0.0924  0.0964
 2544TIP3    H129047   4.280   3.802  11.636 -1.5452  1.3431 -1.2885
 2544TIP3    H229048   4.329   3.930  11.572  1.4581  1.1524  0.4203
 2545TIP3   OH229049   6.362   5.626   1.852  0.0458 -0.1254  0.0424
 2545TIP3    H129050   6.447   5.610   1.811  0.8843  0.7463  1.3645
 2545TIP3    H229051   6.338   5.542   1.893  0.4961 -0.2421  0.0660
 2546TIP3   OH229052   4.152   5.144  13.896 -0.0804  0.7023  0.6236
 2546TIP3    H129053   4.129   5.183  13.980 -0.5576  2.5459 -0.3154
 2546TIP3    H229054   4.192   5.215  13.847 -1.5879  0.2028 -1.4270
 2547TIP3   OH229055   2.507   6.236   6.086 -0.4841  0.3865 -0.1095
 2547TIP3    H129056   2.521   6.286   6.167 -0.1468 -0.1598  0.1690
 2547TIP3    H229057   2.475   6.151   6.116  1.1384 -0.3729 -0.4648
 2548TIP3   OH229058   4.771   0.304   1.642  0.1112  0.2432 -0.0388
 2548TIP3    H129059   4.846   0.258   1.604 -0.3273 -0.2681 -0.2947
 2548TIP3    H229060   4.721   0.336   1.567 -0.1379  0.2430  0.1255
 2549TIP3   OH229061   3.750   1.197   4.976  0.1216 -0.1068  0.0345
 2549TIP3    H129062   3.805   1.170   4.903 -0.3706 -0.2059 -0.3027
 2549TIP3    H229063   3.673   1.236   4.936 -1.2392 -2.2041  0.4072
 2550TIP3   OH229064   5.463   5.095  14.414 -0.0009 -0.0727  0.1431
 2550TIP3    H129065   5.448   5.041  14.337 -0.5295 -1.5087  1.1986
 2550TIP3    H229066   5.386   5.079  14.469  0.5302  0.6403  1.1199
 2551TIP3   OH229067   3.870   3.430  12.313  0.5525 -0.2730 -0.3723
 2551TIP3    H129068   3.823   3.436  12.230  0.4735 -1.3937 -0.4141
 2551TIP3    H229069   3.843   3.347  12.351  1.7432 -0.4835  0.0679
 2552TIP3   OH229070   0.178   2.859   6.754  0.4459 -0.1925  0.0682
 2552TIP3    H129071   0.123   2.915   6.700 -1.2135 -0.6713  1.2042
 2552TIP3    H229072   0.254   2.914   6.775 -1.8003  2.3227  2.4212
 2553TIP3   OH229073   3.992   1.719  15.027  0.1322 -0.0091  0.0817
 2553TIP3    H129074   3.985   1.793  14.966  0.5708  2.6228  2.9748
 2553TIP3    H229075   4.061   1.744  15.088 -1.0872 -1.8647  2.4100
 2554TIP3   OH229076   4.288   5.248   2.300  0.0915 -0.1174  0.0818
 2554TIP3    H129077   4.382   5.261   2.290 -0.1335  0.7972 -1.1267
 2554TIP3    H229078   4.274   5.245   2.394  1.3716 -0.6942  0.2819
 2555TIP3   OH229079   4.760   6.065  16.703  0.1877  0.3513  0.0830
 2555TIP3    H129080   4.780   6.141  16.649 -0.0820  0.6796  0.4391
 2555TIP3    H229081   4.716   6.004  16.644 -1.6760  1.4031  0.2909
 2556TIP3   OH229082   2.319   6.546   3.210  0.7591 -0.0809 -0.2867
 2556TIP3    H129083   2.228   6.563   3.235  0.2925 -0.2273 -1.7971
 2556TIP3    H229084   2.329   6.451   3.223  0.5028 -0.1659 -0.6830
 2557TIP3   OH229085   3.631   6.321   5.561 -0.2239  0.2397  0.5934
 2557TIP3    H129086   3.538   6.312   5.538  0.0515  1.8039 -1.5232
 2557TIP3    H229087   3.676   6.312   5.477  1.6216 -1.0184  1.6619
 2558TIP3   OH229088   0.140   6.766  11.035 -0.2537 -0.1066  0.0390
 2558TIP3    H129089   0.159   6.801  10.948  1.1939  0.5235  0.5737
 2558TIP3    H229090   0.145   6.842  11.093 -0.7137 -0.6016  0.7472
 2559TIP3   OH229091   0.766   6.334   4.721  0.4511  0.3918  0.0355
 2559TIP3    H129092   0.797   6.376   4.641  0.9549  1.8285  0.9526
 2559TIP3    H229093   0.673   6.357   4.726 -0.1768 -1.5357 -1.2179
 2560TIP3   OH229094   5.642   1.566   3.782  0.0802 -0.0404  0.5843
 2560TIP3    H129095   5.638   1.593   3.690  0.1448 -0.6971  0.3861
 2560TIP3    H229096   5.734   1.544   3.796  0.3195  1.2266  1.1528
 2561TIP3   OH229097   1.906   6.206  14.090 -0.1775 -0.7887 -0.0239
 2561TIP3    H129098   1.944   6.280  14.138 -3.1609  2.4018 -2.1407
 2561TIP3    H229099   1.979   6.170  14.040  1.6687 -0.2897  2.1306
 2562TIP3   OH229100   5.728   3.728   4.851 -0.1816  0.5078 -0.0858
 2562TIP3    H129101   5.784   3.805   4.840 -1.7616  1.7627  0.3083
 2562TIP3    H229102   5.690   3.714   4.764  2.0310 -1.4888 -0.8590
 2563TIP3   OH229103   2.213   4.231  14.171  0.3609 -0.1620  0.3253
 2563TIP3    H129104   2.130   4.242  14.124  0.2202 -0.8166  0.4174
 2563TIP3    H229105   2.236   4.139  14.158  0.2661 -0.3807  1.6187
 2564TIP3   OH229106   4.872   5.889  13.022 -0.1515 -0.2494 -0.1048
 2564TIP3    H129107   4.849   5.981  13.007 -1.6806 -0.4441  0.8196
 2564TIP3    H229108   4.919   5.890  13.105 -2.0772 -0.4952  1.0585
 2565TIP3   OH229109   5.686   3.681   4.073 -0.0938 -0.4999  0.1721
 2565TIP3    H129110   5.735   3.720   4.145 -1.0942  0.4118  0.3777
 2565TIP3    H229111   5.700   3.587   4.082  0.2780 -0.3540  1.1985
 2566TIP3   OH229112   1.876   3.933   0.173  0.0577  0.7228  0.3346
 2566TIP3    H129113   1.944   3.988   0.212  0.3666  1.0941 -0.6977
 2566TIP3    H229114   1.836   3.888   0.248  2.5384 -0.8230  0.8721
 2567TIP3   OH229115   2.878   2.343   1.749 -0.1397  0.0755  0.2174
 2567TIP3    H129116   2.797   2.291   1.749  1.3963 -2.5297 -0.7097
 2567TIP3    H229117   2.921   2.320   1.832  1.1601 -1.2632 -0.7771
 2568TIP3   OH229118   4.091   5.125  12.257 -0.1054 -0.5046  0.1660
 2568TIP3    H129119   4.152   5.180  12.208 -1.3116  0.3873 -0.3794
 2568TIP3    H229120   4.093   5.160  12.346 -2.4780  2.0147 -0.5995
 2569TIP3   OH229121   3.966   0.554   4.677 -0.1385 -0.4311 -0.0850
 2569TIP3    H129122   3.879   0.584   4.651 -0.8845 -1.7869  0.7049
 2569TIP3    H229123   3.967   0.461   4.651  0.2033 -1.0292  1.8926
 2570TIP3   OH229124   3.490   2.297   2.831  0.2432  0.6630  0.4546
 2570TIP3    H129125   3.418   2.343   2.875 -0.7598  1.0793 -1.4958
 2570TIP3    H229126   3.483   2.206   2.863 -1.6966  0.5093 -0.2830
 2571TIP3   OH229127   4.429   3.660  12.064  0.0630  0.6916  0.2528
 2571TIP3    H129128   4.442   3.631  12.154 -2.6870 -0.6485  0.3339
 2571TIP3    H229129   4.377   3.590  12.024 -1.0715  2.4652 -1.5864
 2572TIP3   OH229130   1.006   4.132   6.364 -0.2251  0.0850 -0.3195
 2572TIP3    H129131   0.941   4.177   6.309 -0.0717 -0.1914 -0.7352
 2572TIP3    H229132   0.973   4.043   6.371 -1.4834  0.6410  1.9987
 2573TIP3   OH229133   1.704   6.068  13.961  0.3537  0.0234 -0.4217
 2573TIP3    H129134   1.773   6.115  14.007 -0.2242 -1.4030  2.0930
 2573TIP3    H229135   1.724   6.081  13.868  2.1962  2.1866  0.1827
 2574TIP3   OH229136   4.640   6.548   1.594  0.7403 -0.0004 -0.1153
 2574TIP3    H129137   4.593   6.560   1.676 -1.1673 -1.7959 -0.8635
 2574TIP3    H229138   4.631   6.455   1.575 -0.4277  0.6316 -3.2003
 2575TIP3   OH229139   6.484   4.550  16.892 -0.0308  0.0439 -0.5593
 2575TIP3    H129140   6.445   4.601  16.963  1.1332 -0.5916  0.5739
 2575TIP3    H229141   6.410   4.524  16.838 -0.8219  1.5285 -0.2395
 2576TIP3   OH229142   0.073   2.325  16.401  0.7322  0.6566  0.4551
 2576TIP3    H129143   0.096   2.371  16.321  0.4070 -0.2938 -0.2045
 2576TIP3    H229144  -0.015   2.355  16.422  0.4727  0.2525 -0.0416
 2577TIP3   OH229145   1.034   3.136  14.264 -0.1815 -0.0048 -0.4998
 2577TIP3    H129146   0.983   3.192  14.206 -0.2176 -3.0547 -3.7762
 2577TIP3    H229147   1.125   3.154  14.241  0.0263  1.1535  1.0514
 2578TIP3   OH229148   1.827   4.817   1.481 -0.0937 -0.4530 -0.4279
 2578TIP3    H129149   1.735   4.843   1.474  0.0819 -0.1154 -1.7983
 2578TIP3    H229150   1.826   4.745   1.545 -1.4074 -0.8987 -0.8965
 2579TIP3   OH229151   4.354   5.300  12.296 -0.2462 -0.0787  0.1140
 2579TIP3    H129152   4.447   5.308  12.276 -0.3777  1.6013  0.0275
 2579TIP3    H229153   4.312   5.285  12.212 -0.3387  2.4005 -0.3514
 2580TIP3   OH229154   6.361   5.120   2.680  0.2667  0.2918  0.1597
 2580TIP3    H129155   6.343   5.080   2.595  0.2673  0.3864  0.1150
 2580TIP3    H229156   6.456   5.118   2.689  0.2870  0.5588  0.0235
 2581TIP3   OH229157   0.802   2.245   3.414  0.0873  0.1908  0.3719
 2581TIP3    H129158   0.831   2.228   3.324 -0.8052 -0.6564  0.2191
 2581TIP3    H229159   0.846   2.326   3.439  2.1680 -0.7639  0.0014
 2582TIP3   OH229160   2.739   2.187  16.234  0.1198 -0.1810 -0.5125
 2582TIP3    H129161   2.745   2.112  16.175 -0.4029 -0.9803  0.4364
 2582TIP3    H229162   2.649   2.185  16.268  0.5106  0.0426  0.5851
 2583TIP3   OH229163   4.863   5.179  11.611 -0.8210 -0.1434 -0.0820
 2583TIP3    H129164   4.786   5.182  11.667 -0.3890 -2.1710  0.6917
 2583TIP3    H229165   4.834   5.131  11.533 -0.5880 -0.0936 -0.2008
 2584TIP3   OH229166   6.035   6.387   5.198  0.6804  0.1131  0.0849
 2584TIP3    H129167   6.078   6.386   5.112  0.9703 -2.0300  0.1960
 2584TIP3    H229168   6.087   6.327   5.252 -1.4865 -1.3664  0.6906
 2585TIP3   OH229169   1.847   4.150   1.009 -0.0534  0.5856  0.1619
 2585TIP3    H129170   1.863   4.065   1.049  1.0972  0.3314 -0.8048
 2585TIP3    H229171   1.900   4.211   1.060 -0.3415  0.6240  0.4204
 2586TIP3   OH229172   3.974   4.353  16.415  0.1374 -0.2336  0.1704
 2586TIP3    H129173   3.903   4.385  16.358 -1.1550 -2.0796  0.6651
 2586TIP3    H229174   4.054   4.372  16.366 -0.8025  0.2304 -1.2553
 2587TIP3   OH229175   3.955   2.608   5.186 -0.0223 -0.3839 -0.0219
 2587TIP3    H129176   4.028   2.569   5.235  0.5601  1.0249  0.2711
 2587TIP3    H229177   3.978   2.700   5.177 -2.5586  0.5489  1.6375
 2588TIP3   OH229178   5.302   0.609  11.824  0.3082 -0.3339  0.1454
 2588TIP3    H129179   5.218   0.601  11.868 -0.2398  0.4480 -0.7216
 2588TIP3    H229180   5.361   0.643  11.891 -0.1991 -0.3719  0.6178
 2589TIP3   OH229181   0.282   5.647  13.051 -0.0577 -0.0654 -0.3920
 2589TIP3    H129182   0.266   5.568  13.001  1.3364 -1.0483  0.6375
 2589TIP3    H229183   0.361   5.684  13.012  1.0879 -0.8838  1.0719
 2590TIP3   OH229184   4.250   2.242   3.200  0.4993 -0.3262 -0.1826
 2590TIP3    H129185   4.195   2.197   3.135  0.4730  0.2652 -0.5743
 2590TIP3    H229186   4.189   2.267   3.269 -0.0783  1.8247 -1.3832
 2591TIP3   OH229187   6.577   3.756  15.979 -0.2134  0.4470  0.2587
 2591TIP3    H129188   6.536   3.801  16.053  0.1472  0.9432  0.1590
 2591TIP3    H229189   6.648   3.814  15.951 -1.9479  1.5762 -2.1639
 2592TIP3   OH229190   5.029   2.409   3.264  0.2336 -0.2354 -0.1325
 2592TIP3    H129191   5.034   2.457   3.347  1.6617  2.0345 -1.4036
 2592TIP3    H229192   4.937   2.386   3.256 -0.8899  3.4265  0.1035
 2593TIP3   OH229193   3.430   1.078  12.319  0.0608  0.4667 -0.1695
 2593TIP3    H129194   3.355   1.019  12.319  0.4025 -0.0446  1.7237
 2593TIP3    H229195   3.502   1.025  12.353  0.9992  1.2774 -0.8488
 2594TIP3   OH229196   5.981   1.930   3.886  0.5588  0.0493 -0.8425
 2594TIP3    H129197   5.933   1.975   3.816  0.8292  0.5620 -0.7030
 2594TIP3    H229198   6.064   1.977   3.892 -0.1985  1.2231  1.1059
 2595TIP3   OH229199   2.607   3.764   2.409 -0.3557  0.3963  0.3464
 2595TIP3    H129200   2.686   3.775   2.463  1.1091 -1.6770 -1.1924
 2595TIP3    H229201   2.620   3.823   2.335  0.6987 -1.2242 -0.8186
 2596TIP3   OH229202   1.489   2.176  14.405 -0.0993  0.2390 -0.3042
 2596TIP3    H129203   1.564   2.236  14.399  1.8034 -1.9700 -0.1134
 2596TIP3    H229204   1.439   2.193  14.325  1.7882  0.3377 -1.5207
 2597TIP3   OH229205   3.337   0.840  16.914 -0.5575  0.1165  0.5809
 2597TIP3    H129206   3.328   0.896  16.837 -0.5272 -1.4039 -0.5608
 2597TIP3    H229207   3.250   0.840  16.954 -0.5963  0.8434  0.5167
 2598TIP3   OH229208   2.478   1.169   0.240 -1.0977 -0.6708 -0.2676
 2598TIP3    H129209   2.415   1.170   0.313 -0.5180 -0.7328  0.2385
 2598TIP3    H229210   2.563   1.154   0.282 -0.4913  1.1892 -0.7428
 2599TIP3   OH229211   1.071   4.890   4.386  0.2122  0.2279  0.1985
 2599TIP3    H129212   0.992   4.943   4.373  0.0246 -0.2629 -0.7369
 2599TIP3    H229213   1.048   4.803   4.354  0.5444 -0.4332  1.6472
 2600TIP3   OH229214   5.079   5.636  14.020  0.0184  0.4732 -0.5248
 2600TIP3    H129215   5.053   5.577  14.091 -2.7970  0.6271 -1.3145
 2600TIP3    H229216   5.140   5.584  13.967  0.5954 -0.3337  0.8554
 2601TIP3   OH229217   4.548   4.575  16.621 -0.4869  0.0592  0.3277
 2601TIP3    H129218   4.533   4.666  16.647  0.2109  0.6430 -1.2186
 2601TIP3    H229219   4.634   4.575  16.579 -2.4068 -0.1944 -4.2316
 2602TIP3   OH229220   2.162   2.034  17.227  0.1902 -0.2935  0.1309
 2602TIP3    H129221   2.122   2.025  17.313 -0.8068 -0.4302 -0.3319
 2602TIP3    H229222   2.195   2.124  17.225 -1.6319  0.4165 -0.0857
 2603TIP3   OH229223   1.041   4.010  11.198 -0.4929  0.5304 -0.2793
 2603TIP3    H129224   1.092   3.942  11.155 -1.6933 -1.1775  0.8150
 2603TIP3    H229225   1.009   4.065  11.127 -1.9059 -1.8130 -1.5904
 2604TIP3   OH229226   4.464   4.211  16.355 -0.1258 -0.5153  0.4063
 2604TIP3    H129227   4.527   4.196  16.284  0.0219  0.0887  0.3977
 2604TIP3    H229228   4.518   4.237  16.430 -0.3835  0.6600  0.2171
 2605TIP3   OH229229   0.850   0.908   5.760  0.2742 -0.5841  0.7150
 2605TIP3    H129230   0.809   0.849   5.823  1.0729 -2.9324 -0.8651
 2605TIP3    H229231   0.790   0.983   5.755 -1.3987 -1.7742  1.9078
 2606TIP3   OH229232   2.961   1.410   4.974 -0.1643  0.0771  0.5585
 2606TIP3    H129233   2.961   1.468   5.050  1.1985  0.4566  0.2923
 2606TIP3    H229234   2.923   1.462   4.903 -1.1553 -0.1787  0.8738
 2607TIP3   OH229235   3.293   5.468   2.905 -0.6546  0.3168 -0.0651
 2607TIP3    H129236   3.262   5.444   2.992 -0.8804  0.8725  0.0076
 2607TIP3    H229237   3.285   5.563   2.901  0.0450  0.3703 -0.4317
 2608TIP3   OH229238   0.243   0.657  14.626  0.2816  0.0807 -0.3498
 2608TIP3    H129239   0.282   0.679  14.542 -0.4519 -0.2650 -0.7961
 2608TIP3    H229240   0.225   0.741  14.668  1.5186  0.2415 -0.1164
 2609TIP3   OH229241   5.129   4.652   0.944 -0.0952  1.1080 -0.0723
 2609TIP3    H129242   5.048   4.671   0.897 -0.4035 -0.8864 -0.4397
 2609TIP3    H229243   5.121   4.560   0.968  2.3192  0.6820 -0.6582
 2610TIP3   OH229244   4.019   5.525  16.001 -0.0756  0.2542 -0.4974
 2610TIP3    H129245   4.002   5.534  15.907 -0.3421  1.2745 -0.3646
 2610TIP3    H229246   3.941   5.561  16.042 -0.8706 -2.0469  0.1369
 2611TIP3   OH229247   0.945   4.969   3.266  0.3031  0.0698  0.2389
 2611TIP3    H129248   0.958   5.029   3.339  1.5554 -1.3247  1.2192
 2611TIP3    H229249   1.005   4.896   3.284  0.6459 -0.3217 -2.1677
 2612TIP3   OH229250   3.935   0.492  15.934 -0.5547  0.0901 -0.6932
 2612TIP3    H129251   3.970   0.403  15.928  0.1937  0.0526  2.3860
 2612TIP3    H229252   4.008   0.549  15.908 -0.7240 -0.1502 -1.7180
 2613TIP3   OH229253   6.082   6.404   0.446 -0.0901  0.1989  0.2325
 2613TIP3    H129254   6.129   6.375   0.524 -0.5719 -0.3399  0.3258
 2613TIP3    H229255   6.114   6.346   0.376 -0.5174 -0.0832  0.2694
 2614TIP3   OH229256   6.714   0.657  13.291  0.3603  0.9166  0.2167
 2614TIP3    H129257   6.697   0.632  13.382  0.4931  0.5564  0.1440
 2614TIP3    H229258   6.726   0.574  13.245 -2.4788  0.9324 -0.7076
 2615TIP3   OH229259   6.384   0.162   0.209  0.1965  0.3089 -0.7411
 2615TIP3    H129260   6.305   0.135   0.255  0.2030  1.6711  0.1400
 2615TIP3    H229261   6.449   0.095   0.231 -0.4234 -0.2641 -0.6329
 2616TIP3   OH229262   1.214   6.572   1.155 -0.3838 -0.3222 -0.1055
 2616TIP3    H129263   1.158   6.554   1.080  0.1353 -0.1149 -0.5523
 2616TIP3    H229264   1.303   6.569   1.120 -0.1850  1.1124  0.2117
 2617TIP3   OH229265   3.011   1.054   1.695  0.2028  0.2556  0.2047
 2617TIP3    H129266   2.953   1.078   1.622  0.6527  0.5686 -0.0528
 2617TIP3    H229267   3.097   1.046   1.655  0.0557 -2.0797  0.2118
 2618TIP3   OH229268   5.339   5.908  11.621 -0.2681 -0.4483 -0.3276
 2618TIP3    H129269   5.382   5.993  11.617  0.5162 -0.8833 -1.8090
 2618TIP3    H229270   5.252   5.923  11.583 -0.6558 -0.0299  0.6955
 2619TIP3   OH229271   0.707   4.058   6.278  0.1024 -0.1022  0.6236
 2619TIP3    H129272   0.774   4.003   6.239 -0.3979 -0.4296  0.2093
 2619TIP3    H229273   0.676   4.010   6.354  0.3903  0.0856  0.8603
 2620TIP3   OH229274   5.930   6.265  11.514 -0.1789  0.2305  0.1876
 2620TIP3    H129275   6.022   6.289  11.524  0.0820 -0.1107 -1.2084
 2620TIP3    H229276   5.932   6.172  11.493 -0.7207  0.5459 -1.3867
 2621TIP3   OH229277   1.882   0.883   1.745 -0.4656 -0.6143  0.0286
 2621TIP3    H129278   1.855   0.971   1.719 -0.1886 -1.2488 -2.6138
 2621TIP3    H229279   1.853   0.876   1.836 -1.5265  1.7773 -0.0395
 2622TIP3   OH229280   3.907   4.170   0.664 -0.3119 -0.7850  0.0888
 2622TIP3    H129281   3.872   4.227   0.595 -0.2425 -0.6905  0.1313
 2622TIP3    H229282   3.858   4.088   0.655  0.3515 -1.1142 -0.6971
 2623TIP3   OH229283   0.778   2.554   5.382 -0.0619  0.3053 -0.1310
 2623TIP3    H129284   0.694   2.577   5.343 -0.1412 -2.3077 -1.7332
 2623TIP3    H229285   0.763   2.469   5.423  1.5340  0.3211  0.5680
 2624TIP3   OH229286   2.931   5.540   4.324 -0.4867 -0.0924 -0.5769
 2624TIP3    H129287   2.930   5.463   4.267 -0.1150 -0.6507  0.1577
 2624TIP3    H229288   3.000   5.522   4.387  0.2419  1.2607 -0.9411
 2625TIP3   OH229289   3.255   1.798   3.999  0.3895 -0.2587  0.0233
 2625TIP3    H129290   3.214   1.752   4.073 -0.1445  1.0119  0.5492
 2625TIP3    H229291   3.279   1.883   4.035  0.5311  0.2155 -1.1615
 2626TIP3   OH229292   0.882   4.616  14.761  0.8955  0.5382 -0.2424
 2626TIP3    H129293   0.869   4.651  14.849 -1.6555  0.2870 -0.4241
 2626TIP3    H229294   0.868   4.522  14.769  2.3036  0.2748 -0.6601
 2627TIP3   OH229295   0.291   4.560   2.488  0.1890 -0.0059  0.4694
 2627TIP3    H129296   0.242   4.558   2.406  1.8851  1.5830 -0.6757
 2627TIP3    H229297   0.224   4.560   2.556 -1.3069 -0.2805 -0.9459
 2628TIP3   OH229298   5.143   3.751   1.987  0.0621 -0.4295  0.3879
 2628TIP3    H129299   5.188   3.835   1.978  1.1806 -1.0009  0.4169
 2628TIP3    H229300   5.070   3.769   2.046  0.5729  0.4148  0.7893
 2629TIP3   OH229301   1.100   0.425   2.873 -0.0473  0.1551 -0.0772
 2629TIP3    H129302   1.098   0.404   2.967  0.7879 -1.4578 -0.3792
 2629TIP3    H229303   1.134   0.345   2.832 -0.7436  0.7116 -1.7975
 2630TIP3   OH229304   4.571   4.362  13.848  0.7236 -0.3257  0.3933
 2630TIP3    H129305   4.612   4.277  13.832 -1.5322 -1.7505  1.7277
 2630TIP3    H229306   4.477   4.345  13.841  0.2287  2.5828 -1.5830
 2631TIP3   OH229307   4.122   0.808  15.750  0.0243  0.5788  0.1130
 2631TIP3    H129308   4.064   0.844  15.817  0.3538  1.2569  0.0394
 2631TIP3    H229309   4.198   0.865  15.751  0.7661 -0.3914  0.3116
 2632TIP3   OH229310   0.233   0.750   1.538 -0.2943  0.7011  0.0616
 2632TIP3    H129311   0.290   0.682   1.503 -0.2602  0.3473  0.7957
 2632TIP3    H229312   0.168   0.764   1.469  0.0587  0.3576 -0.3428
 2633TIP3   OH229313   0.195   5.757  14.570  0.2901  0.2663 -0.5830
 2633TIP3    H129314   0.150   5.740  14.487  0.4394  1.1841 -0.8651
 2633TIP3    H229315   0.243   5.677  14.589 -1.1641 -0.6019 -0.4682
 2634TIP3   OH229316   1.320   1.524   2.087 -0.2890  0.1739  0.2357
 2634TIP3    H129317   1.247   1.468   2.060  1.1099 -1.0508 -1.1856
 2634TIP3    H229318   1.377   1.467   2.137 -0.6596  1.3451  2.1187
 2635TIP3   OH229319   6.189   0.269  15.153  0.0859  0.7220 -0.2433
 2635TIP3    H129320   6.154   0.320  15.226 -0.4490  0.2891 -0.1908
 2635TIP3    H229321   6.124   0.200  15.139  1.3787 -0.6733  0.4701
 2636TIP3   OH229322   3.361   3.189   1.600 -0.0792 -0.2132 -0.3977
 2636TIP3    H129323   3.418   3.151   1.533 -0.5850 -1.5705 -0.1044
 2636TIP3    H229324   3.278   3.204   1.554  1.1173  4.2387 -1.5448
 2637TIP3   OH229325   3.753   4.144  11.332  0.8142 -0.0116 -0.1440
 2637TIP3    H129326   3.833   4.107  11.371 -0.1197  0.6547  2.6128
 2637TIP3    H229327   3.682   4.112  11.387 -0.6373  1.1023 -1.2698
 2638TIP3   OH229328   6.549   2.412  12.348  0.5541 -0.3847 -0.0459
 2638TIP3    H129329   6.537   2.469  12.424 -0.5210  0.2196 -0.6541
 2638TIP3    H229330   6.557   2.472  12.274 -1.1941 -0.9889 -0.7857
 2639TIP3   OH229331   0.233   4.244   3.131  0.9164  0.1320  0.0423
 2639TIP3    H129332   0.256   4.242   3.038 -0.1550  2.7108 -0.3876
 2639TIP3    H229333   0.317   4.247   3.177  1.5101  1.6131 -1.0482
 2640TIP3   OH229334   1.755   0.074  17.242  0.4059 -0.1151  0.5408
 2640TIP3    H129335   1.747   0.142  17.309 -0.4211  0.2949  0.0421
 2640TIP3    H229336   1.765   0.122  17.160  1.2560 -0.6124  0.3484
 2641TIP3   OH229337   2.840   0.021   3.834  0.1859 -0.3875  0.7783
 2641TIP3    H129338   2.832   0.093   3.770  2.5881  0.3696  1.2269
 2641TIP3    H229339   2.856  -0.057   3.780 -1.5316 -0.4577  0.3256
 2642TIP3   OH229340   5.663   2.682  16.841  0.7743  0.3637 -0.3521
 2642TIP3    H129341   5.707   2.600  16.863  0.2831 -0.5643 -2.5311
 2642TIP3    H229342   5.643   2.722  16.926  0.0126 -2.3025  0.8297
 2643TIP3   OH229343   6.552   4.519  11.255  0.2630  0.5836 -0.4450
 2643TIP3    H129344   6.608   4.449  11.223  1.5701  1.9112 -1.2080
 2643TIP3    H229345   6.464   4.496  11.225  1.0620  0.5893 -3.0857
 2644TIP3   OH229346   0.643   4.681  15.876 -0.0665 -0.2757 -0.1960
 2644TIP3    H129347   0.732   4.709  15.854 -0.3819  1.1724  0.2355
 2644TIP3    H229348   0.587   4.743  15.829 -0.7877  0.9393  2.1033
 2645TIP3   OH229349   5.467   6.681   5.248 -0.3419  0.2076  0.0141
 2645TIP3    H129350   5.562   6.688   5.260  0.0622 -1.6239 -1.6190
 2645TIP3    H229351   5.444   6.758   5.195 -0.0905  1.5085  1.7099
 2646TIP3   OH229352   6.456   4.286  12.341  0.5226  0.0952  0.5158
 2646TIP3    H129353   6.395   4.235  12.288  0.0764  0.9219  0.2135
 2646TIP3    H229354   6.404   4.314  12.417  0.7012  0.2746  0.5716
 2647TIP3   OH229355   6.437   6.665   3.161  0.5592 -0.2112  0.0254
 2647TIP3    H129356   6.353   6.629   3.130 -0.4706  1.4364  0.7907
 2647TIP3    H229357   6.453   6.619   3.243  0.5876 -0.7732 -0.2873
 2648TIP3   OH229358   2.928   1.999   2.964 -0.1176  0.3967  0.0281
 2648TIP3    H129359   2.956   1.912   2.991  1.7211  1.4568  1.8150
 2648TIP3    H229360   2.834   2.002   2.987  0.0748 -0.7046  1.0921
 2649TIP3   OH229361   6.490   4.701   1.749  0.4032  0.0683  0.3082
 2649TIP3    H129362   6.575   4.681   1.711  0.4224  1.5703 -0.4799
 2649TIP3    H229363   6.501   4.683   1.843  1.0920 -1.2553  0.0093
 2650TIP3   OH229364   2.746   2.036  14.389 -0.5507  0.3414 -0.0599
 2650TIP3    H129365   2.752   2.128  14.415 -0.4425 -0.0559  1.4014
 2650TIP3    H229366   2.813   2.026  14.321  2.2887  0.4446  2.5297
 2651TIP3   OH229367   1.698   6.624  10.852  0.9433  0.4440 -0.0447
 2651TIP3    H129368   1.674   6.707  10.894 -1.2544 -0.3530  0.4236
 2651TIP3    H229369   1.678   6.638  10.759  0.5790  0.4572  0.0331
 2652TIP3   OH229370   5.027   1.392   3.544  0.1143  0.9529  0.3160
 2652TIP3    H129371   5.079   1.313   3.562  0.1927  1.1740  1.0989
 2652TIP3    H229372   5.090   1.453   3.504  0.3036  0.9918  0.6723
 2653TIP3   OH229373   6.371   4.348  11.135  0.6283 -0.1768 -0.3952
 2653TIP3    H129374   6.336   4.266  11.101  0.4829 -0.5202  0.5587
 2653TIP3    H229375   6.370   4.408  11.060  1.0041 -1.1217 -1.1678
 2654TIP3   OH229376   1.979   5.972  15.124 -0.0623  0.2396  0.6302
 2654TIP3    H129377   1.903   6.030  15.125  0.0932  0.6033  3.8144
 2654TIP3    H229378   2.039   6.012  15.187  1.8603 -1.1858 -0.2198
 2655TIP3   OH229379   0.005   3.598   3.886 -0.1060 -0.5616 -0.0827
 2655TIP3    H129380   0.094   3.605   3.852 -0.0542  1.0879  0.2918
 2655TIP3    H229381   0.002   3.513   3.929  0.7863 -1.3194 -1.4725
 2656TIP3   OH229382   2.494   4.894   6.202 -0.3297 -0.9429  0.3192
 2656TIP3    H129383   2.544   4.896   6.284 -0.7036 -0.3556  0.5381
 2656TIP3    H229384   2.403   4.887   6.230 -0.3828 -2.2421 -0.0812
 2657TIP3   OH229385   5.458   3.684  11.843 -0.4994  0.1875 -0.7658
 2657TIP3    H129386   5.501   3.718  11.764  0.9204 -0.0585 -0.1231
 2657TIP3    H229387   5.451   3.590  11.828  0.6490  0.0011 -0.2142
 2658TIP3   OH229388   2.137   5.864   6.362 -0.3462  0.4544 -0.0330
 2658TIP3    H129389   2.153   5.928   6.431  1.2766  0.8134 -0.6831
 2658TIP3    H229390   2.048   5.883   6.331 -0.2716  1.7214  0.4799
 2659TIP3   OH229391   0.445   2.613   4.790 -0.1615  0.7211  0.0650
 2659TIP3    H129392   0.376   2.550   4.813  2.0112 -1.9406 -0.1369
 2659TIP3    H229393   0.468   2.590   4.700  0.6785  1.8894 -0.0329
 2660TIP3   OH229394   5.404   5.669  13.774 -0.4837 -0.5391 -0.6703
 2660TIP3    H129395   5.482   5.619  13.749 -1.0021 -2.0758  0.5924
 2660TIP3    H229396   5.408   5.674  13.869 -1.9403 -0.6879 -0.5734
 2661TIP3   OH229397   4.517   4.328   2.823 -0.0860  0.5961  0.6390
 2661TIP3    H129398   4.540   4.386   2.895 -1.0651  1.5786  0.1858
 2661TIP3    H229399   4.456   4.265   2.861 -0.5643  1.0848  0.6788
 2662TIP3   OH229400   1.039   3.842   1.166  0.5526  0.0868 -0.2461
 2662TIP3    H129401   1.064   3.902   1.236 -0.5100  0.0511  0.1786
 2662TIP3    H229402   1.036   3.756   1.208  1.4897 -0.1936 -0.7192
 2663TIP3   OH229403   2.923   0.229  16.944  0.0830  0.2709  0.2219
 2663TIP3    H129404   2.995   0.248  16.883 -0.3688  1.7531  0.1057
 2663TIP3    H229405   2.961   0.168  17.008  1.0391 -0.0276 -0.6015
 2664TIP3   OH229406   1.523   5.731  15.416 -0.0541  0.3283 -0.3903
 2664TIP3    H129407   1.512   5.821  15.447  0.7464  0.2534  0.1287
 2664TIP3    H229408   1.602   5.699  15.460 -1.4868 -1.3646  1.1338
 2665TIP3   OH229409   2.286   4.143  17.079 -0.1731  0.3174  0.1503
 2665TIP3    H129410   2.351   4.206  17.045 -0.2290 -0.1475 -0.8455
 2665TIP3    H229411   2.215   4.145  17.015 -0.7968  0.2292  0.8251
 2666TIP3   OH229412   1.320   1.054  11.472  0.2711  0.2922 -0.1186
 2666TIP3    H129413   1.407   1.072  11.436 -0.1798  1.5403 -0.6372
 2666TIP3    H229414   1.267   1.033  11.396 -0.9794  4.0828 -0.4737
 2667TIP3   OH229415   6.183   4.224  11.829 -0.0077  0.2946  0.1264
 2667TIP3    H129416   6.105   4.170  11.843  0.2591  0.0148  0.5553
 2667TIP3    H229417   6.250   4.185  11.885  0.7037 -0.0162 -0.9028
 2668TIP3   OH229418   1.010   4.798  12.300 -0.3302  0.4370  0.4710
 2668TIP3    H129419   1.037   4.708  12.280 -0.9451 -0.0257  1.5695
 2668TIP3    H229420   0.968   4.829  12.220  1.6758  0.4956 -0.6107
 2669TIP3   OH229421   3.400   4.287  14.310 -0.4750 -0.3618  0.1272
 2669TIP3    H129422   3.305   4.297  14.311 -0.5233 -0.8129  1.0073
 2669TIP3    H229423   3.432   4.357  14.367 -0.2380  0.1203 -0.5876
 2670TIP3   OH229424   2.537   6.753  14.919  0.4750  0.4276  0.0364
 2670TIP3    H129425   2.447   6.776  14.895  1.0819  2.0023 -0.9766
 2670TIP3    H229426   2.566   6.825  14.975  1.8908  1.3608 -1.7534
 2671TIP3   OH229427   2.204   3.464   3.920 -0.3088  0.0147  0.3098
 2671TIP3    H129428   2.173   3.396   3.859 -1.2619 -0.0729  0.8614
 2671TIP3    H229429   2.261   3.520   3.867  1.0626 -1.5939 -0.0026
 2672TIP3   OH229430   1.017   0.901  17.326 -0.3708  0.0982 -0.2702
 2672TIP3    H129431   1.064   0.961  17.383  1.7143 -1.0090 -0.7247
 2672TIP3    H229432   0.986   0.955  17.254 -3.0250  1.5224  1.7409
 2673TIP3   OH229433   3.150   2.226   2.256 -0.3659 -0.7209  0.2118
 2673TIP3    H129434   3.171   2.319   2.264 -0.1587 -0.7688  0.2188
 2673TIP3    H229435   3.205   2.184   2.322  0.8568 -1.0506 -0.9802
 2674TIP3   OH229436   3.855   2.228   1.540 -0.6498  0.3975 -0.3103
 2674TIP3    H129437   3.946   2.239   1.565 -1.2176  2.9668  1.0046
 2674TIP3    H229438   3.829   2.313   1.504 -2.7797  0.1291  0.3925
 2675TIP3   OH229439   0.434   4.114  14.142 -0.3372 -0.3009 -0.4043
 2675TIP3    H129440   0.439   4.147  14.053 -0.7238 -0.8600 -0.6357
 2675TIP3    H229441   0.364   4.165  14.183  0.7283  0.9227  0.0158
 2676TIP3   OH229442   3.290   4.876   4.307 -1.2783  0.0715  0.4221
 2676TIP3    H129443   3.313   4.953   4.255  0.0495  0.6593  1.8131
 2676TIP3    H229444   3.348   4.807   4.274 -0.5594  0.3991  0.9573
 2677TIP3   OH229445   1.810   4.503  16.321  0.5235  0.3206  0.5006
 2677TIP3    H129446   1.772   4.460  16.397  0.4390 -0.8396 -0.1794
 2677TIP3    H229447   1.782   4.595  16.328 -1.0101 -0.1525  0.8882
 2678TIP3   OH229448   2.564   1.717   4.665 -0.6019 -0.1565  0.1925
 2678TIP3    H129449   2.597   1.654   4.601 -1.3243  0.6179 -0.9732
 2678TIP3    H229450   2.528   1.788   4.613 -2.1738  0.0239  1.4256
 2679TIP3   OH229451   2.278   5.339   3.003  0.2106  0.3095 -0.2368
 2679TIP3    H129452   2.318   5.368   3.085 -2.0806 -0.1690  1.1181
 2679TIP3    H229453   2.325   5.259   2.981 -0.4039 -0.6349  1.6957
 2680TIP3   OH229454   3.289   5.420  16.607 -0.3542 -0.0913 -0.3130
 2680TIP3    H129455   3.215   5.466  16.646 -0.7488 -0.9879 -0.0076
 2680TIP3    H229456   3.334   5.379  16.681  0.1044 -0.0610 -0.5674
 2681TIP3   OH229457   1.906   2.067   0.639  0.1912  0.1630  0.1216
 2681TIP3    H129458   1.924   2.103   0.552  1.4866  2.3143  1.1874
 2681TIP3    H229459   1.859   2.136   0.685 -0.3440 -0.8744  1.2030
 2682TIP3   OH229460   4.981   5.595   4.248  0.0791 -0.2188  0.3453
 2682TIP3    H129461   5.070   5.624   4.228 -0.4572  1.0234 -0.3675
 2682TIP3    H229462   4.978   5.504   4.220  1.2057 -0.3714  0.6758
 2683TIP3   OH229463   2.058   0.916  13.660  0.6447  0.2585  0.6225
 2683TIP3    H129464   2.026   1.007  13.664 -2.2293 -0.6473  0.6909
 2683TIP3    H229465   2.113   0.906  13.737  1.1989  1.9879  0.4973
 2684TIP3   OH229466   6.223   2.447  12.633  0.2711  0.4614  0.3578
 2684TIP3    H129467   6.130   2.425  12.627  0.5489 -0.9285  0.8550
 2684TIP3    H229468   6.226   2.542  12.615 -1.0435  0.2355 -1.3984
 2685TIP3   OH229469   2.713   5.391  12.849 -0.1321 -0.2168 -0.2153
 2685TIP3    H129470   2.779   5.405  12.781 -0.8606 -0.1377 -0.9211
 2685TIP3    H229471   2.639   5.353  12.802 -0.5296 -0.4441  0.5934
 2686TIP3   OH229472   0.414   5.292   4.219 -0.0000  0.3715  0.3111
 2686TIP3    H129473   0.412   5.285   4.123  0.9814  0.5600  0.2654
 2686TIP3    H229474   0.325   5.318   4.243 -0.5304 -0.6491 -0.4626
 2687TIP3   OH229475   0.237   2.937  14.040 -0.2120  0.1707 -0.4639
 2687TIP3    H129476   0.321   2.948  14.085 -0.0031 -0.4480 -0.6881
 2687TIP3    H229477   0.201   2.856  14.077 -1.0090  0.7727  0.0877
 2688TIP3   OH229478   1.211   2.804   0.758 -0.1672 -0.0531 -0.5002
 2688TIP3    H129479   1.163   2.808   0.675  1.3898 -0.2332 -1.4544
 2688TIP3    H229480   1.206   2.712   0.784 -0.9405  0.0657 -0.1995
 2689TIP3   OH229481   2.193   5.954   4.251  0.3924 -0.3001  0.0785
 2689TIP3    H129482   2.262   5.891   4.270 -0.0715 -0.7943  0.1487
 2689TIP3    H229483   2.121   5.901   4.218 -0.0970  0.1701  0.3869
 2690TIP3   OH229484   1.026   0.973  13.031 -0.3443  0.2995 -0.2602
 2690TIP3    H129485   1.040   0.893  12.982 -2.0502 -0.7413  0.8436
 2690TIP3    H229486   1.078   1.039  12.985  1.6222 -1.5303 -0.8247
 2691TIP3   OH229487   4.336   3.546   4.576 -0.0982  0.0622 -0.4027
 2691TIP3    H129488   4.391   3.582   4.645 -1.1893 -0.5183  0.8061
 2691TIP3    H229489   4.262   3.606   4.570  0.2684  0.4296 -1.4991
 2692TIP3   OH229490   3.698   1.477  13.914  0.3076  0.5925 -0.4140
 2692TIP3    H129491   3.695   1.384  13.890  0.1811  0.4788  0.0159
 2692TIP3    H229492   3.653   1.522  13.843 -2.2035  0.0310  0.7043
 2693TIP3   OH229493   5.839   0.412  14.041 -0.0726  0.6485  0.1544
 2693TIP3    H129494   5.901   0.345  14.070 -0.0231  0.6737  0.1077
 2693TIP3    H229495   5.894   0.479  14.000 -0.1171  0.7394  0.2435
 2694TIP3   OH229496   5.443   6.476  12.599 -0.5653  0.5007 -0.4927
 2694TIP3    H129497   5.435   6.465  12.694 -1.8511 -1.2931 -0.7560
 2694TIP3    H229498   5.529   6.517  12.587  1.1249 -2.1550  1.2977
 2695TIP3   OH229499   5.578   3.243  16.572 -0.4142  0.4416  0.5254
 2695TIP3    H129500   5.667   3.207  16.571 -0.9540 -1.0326 -1.9611
 2695TIP3    H229501   5.591   3.338  16.580  1.3686  0.2529  0.3101
 2696TIP3   OH229502   3.392   6.351   4.172  0.3419  0.4802  0.0312
 2696TIP3    H129503   3.320   6.404   4.137 -2.4541 -1.3552  2.4709
 2696TIP3    H229504   3.423   6.399   4.248 -1.8066 -0.8820  1.9021
 2697TIP3   OH229505   0.429   6.542   3.892 -0.2293  0.3556  0.2259
 2697TIP3    H129506   0.453   6.529   3.801 -0.1873  1.0865  0.1332
 2697TIP3    H229507   0.458   6.630   3.913 -1.8072  0.8580  0.4305
 2698TIP3   OH229508   6.450   1.935   4.374 -0.4156 -0.5859 -0.4906
 2698TIP3    H129509   6.532   1.889   4.354  0.3059  1.1775 -1.8468
 2698TIP3    H229510   6.462   1.967   4.463 -0.7431 -2.5204  0.3070
 2699TIP3   OH229511   0.050   5.277  14.087 -0.5782 -0.0709 -0.5717
 2699TIP3    H129512   0.127   5.241  14.132  1.9178  0.9371 -3.5911
 2699TIP3    H229513   0.045   5.226  14.006 -1.9773  1.1049 -1.2620
 2700TIP3   OH229514   3.079   0.764  12.878 -0.0092  0.8204  0.3691
 2700TIP3    H129515   3.120   0.850  12.884 -2.0264  1.8293  0.4651
 2700TIP3    H229516   3.090   0.737  12.787  1.8430  0.5055  0.6496
 2701TIP3   OH229517   1.697   1.271   1.186 -0.2550  0.1166 -0.5158
 2701TIP3    H129518   1.649   1.333   1.131  0.8914 -0.1371 -1.8489
 2701TIP3    H229519   1.784   1.267   1.147  0.9668  0.7369  1.9619
 2702TIP3   OH229520   5.114   0.476   4.956  0.2666 -0.1358  0.4439
 2702TIP3    H129521   5.204   0.486   4.923  0.6908 -1.4782  1.1436
 2702TIP3    H229522   5.124   0.429   5.038 -0.9071  1.7115  1.7234
 2703TIP3   OH229523   5.629   5.027   2.965 -0.2604 -0.1492 -0.0128
 2703TIP3    H129524   5.583   5.011   3.047 -2.0627  0.2610 -0.8876
 2703TIP3    H229525   5.608   5.118   2.942  0.6573 -0.0809 -0.6704
 2704TIP3   OH229526   5.413   2.262   0.733  0.2048  0.3396 -0.1958
 2704TIP3    H129527   5.384   2.190   0.788 -0.1739  1.0039  0.5008
 2704TIP3    H229528   5.444   2.221   0.653 -1.4865 -0.5094 -0.4620
 2705TIP3   OH229529   5.153   2.772   0.575  0.5261 -0.2687 -0.3871
 2705TIP3    H129530   5.195   2.696   0.535  0.5890 -1.5938  1.9684
 2705TIP3    H229531   5.176   2.766   0.668  0.0672  2.3563 -0.0144
 2706TIP3   OH229532   3.542   1.818   3.220 -0.3568 -0.1540  0.4439
 2706TIP3    H129533   3.542   1.722   3.216 -0.7965 -0.2577  2.1395
 2706TIP3    H229534   3.606   1.845   3.155  0.1087 -1.6260  0.2572
 2707TIP3   OH229535   3.058   4.630   6.564  0.1325  0.1976  0.3946
 2707TIP3    H129536   3.096   4.544   6.543 -1.6147 -0.5023 -0.0636
 2707TIP3    H229537   3.076   4.684   6.487  0.1124 -0.1550  0.1386
 2708TIP3   OH229538   3.499   6.523  11.772 -0.4903 -0.0663 -0.4170
 2708TIP3    H129539   3.461   6.490  11.690  0.2131 -1.2336 -0.2933
 2708TIP3    H229540   3.526   6.444  11.819  0.9857  0.6736  0.0251
 2709TIP3   OH229541   3.349   3.594   1.979 -0.8851 -0.5731  0.3394
 2709TIP3    H129542   3.307   3.612   1.895 -0.2343 -0.2022  0.0859
 2709TIP3    H229543   3.276   3.587   2.041 -1.3365 -0.2331 -0.1422
 2710TIP3   OH229544   5.373   4.700  12.044 -0.6005  0.7610  0.2676
 2710TIP3    H129545   5.398   4.762  12.112 -1.1547  0.0300  1.1750
 2710TIP3    H229546   5.399   4.615  12.079 -0.6871  0.3923 -0.5437
 2711TIP3   OH229547   3.207   5.406   2.278 -0.2401  0.7375  0.2879
 2711TIP3    H129548   3.167   5.319   2.269 -0.9277  1.0865 -0.0483
 2711TIP3    H229549   3.293   5.388   2.318  1.8066 -0.6156 -4.0663
 2712TIP3   OH229550   1.299   0.472  16.395 -0.1555 -0.3957  0.1199
 2712TIP3    H129551   1.286   0.565  16.377  1.2313 -0.3704 -1.0029
 2712TIP3    H229552   1.213   0.432  16.381 -0.7646  0.7068  0.6187
 2713TIP3   OH229553   3.264   4.925   1.308  0.0443 -0.4466 -0.4707
 2713TIP3    H129554   3.245   5.015   1.334  0.1885 -0.4564 -0.3257
 2713TIP3    H229555   3.345   4.932   1.257  1.1792 -0.7121  1.1909
 2714TIP3   OH229556   3.300   2.074  11.467 -0.1000  0.0707 -0.7237
 2714TIP3    H129557   3.347   2.089  11.386 -0.4893 -0.2601 -1.0156
 2714TIP3    H229558   3.213   2.111  11.452 -0.8784 -1.8042 -1.2396
 2715TIP3   OH229559   6.304   6.697   6.286  0.2847  0.8226  0.2203
 2715TIP3    H129560   6.386   6.720   6.330 -0.2143  3.5373 -0.1399
 2715TIP3    H229561   6.250   6.659   6.355  1.7222 -0.8363  0.5065
 2716TIP3   OH229562   2.293   2.907  11.225  0.3098  0.3028  0.4585
 2716TIP3    H129563   2.277   3.000  11.211  1.2309  0.5585  1.0023
 2716TIP3    H229564   2.211   2.874  11.262 -1.0780  0.2425 -2.3756
 2717TIP3   OH229565   4.451   0.720   3.782 -0.1261 -0.2069 -0.5204
 2717TIP3    H129566   4.378   0.689   3.729 -1.6308  1.0544  0.7124
 2717TIP3    H229567   4.489   0.792   3.732 -1.6527  1.0981  0.1350
 2718TIP3   OH229568   0.892   5.060  15.264  0.2610  0.2542  0.3520
 2718TIP3    H129569   0.878   5.025  15.176 -0.2212  3.2409 -0.8717
 2718TIP3    H229570   0.810   5.043  15.310  0.1671 -0.4844 -0.0813
 2719TIP3   OH229571   4.919   0.451   1.364 -0.1629 -0.1440 -0.6375
 2719TIP3    H129572   4.871   0.420   1.287  1.2648 -0.0004 -1.6192
 2719TIP3    H229573   4.895   0.543   1.372 -1.9912 -0.6552  0.4265
 2720TIP3   OH229574   3.994   2.701   4.003  0.3795 -0.4665  0.4948
 2720TIP3    H129575   4.000   2.671   3.913 -1.8945  1.2916 -0.3463
 2720TIP3    H229576   4.066   2.763   4.013 -1.4991  2.3028 -1.5082
 2721TIP3   OH229577   0.325   5.598   1.112  0.1503  1.0024  0.7523
 2721TIP3    H129578   0.364   5.524   1.159  0.3927 -0.6785 -1.8543
 2721TIP3    H229579   0.399   5.651   1.083  0.5921 -1.0726 -2.4239
 2722TIP3   OH229580   3.819   6.317  13.078 -0.0229  0.0286 -0.0606
 2722TIP3    H129581   3.775   6.345  12.998  1.5733 -0.7676 -1.2755
 2722TIP3    H229582   3.863   6.396  13.110 -0.3155  0.2522 -0.2009
 2723TIP3   OH229583   0.128   1.986   1.860  0.1304  0.0773 -0.0579
 2723TIP3    H129584   0.066   2.006   1.791 -0.5755 -1.4590  0.0906
 2723TIP3    H229585   0.145   2.070   1.903 -1.3718  0.6195 -0.4854
 2724TIP3   OH229586   3.283   0.046   2.935 -0.0461  0.0936  0.4571
 2724TIP3    H129587   3.365   0.038   2.984  0.1025  0.0727  0.2063
 2724TIP3    H229588   3.227  -0.024   2.970  0.6540 -1.0348 -0.5628
 2725TIP3   OH229589   3.852   4.628  16.334  0.8044 -0.0529  0.0265
 2725TIP3    H129590   3.856   4.589  16.247 -0.3410  1.7508 -0.8973
 2725TIP3    H229591   3.851   4.722  16.318  1.2519  0.3401  2.0409
 2726TIP3   OH229592   3.906   2.075   4.250  0.0516  0.2828  1.3113
 2726TIP3    H129593   3.848   2.151   4.246 -1.8559 -1.1386  0.6662
 2726TIP3    H229594   3.901   2.045   4.341  0.6339  0.7569  1.5112
 2727TIP3   OH229595   1.097   5.012   0.156  0.2936 -0.0375 -0.0164
 2727TIP3    H129596   1.119   5.044   0.068 -2.1978 -3.1231 -2.0272
 2727TIP3    H229597   1.164   4.947   0.176 -0.3245 -0.9221 -0.7220
 2728TIP3   OH229598   3.165   2.149   1.287  0.4475  0.2087  0.4540
 2728TIP3    H129599   3.091   2.209   1.298  0.2213  0.6436 -2.4563
 2728TIP3    H229600   3.241   2.199   1.314 -0.2246 -0.2960  3.6553
 2729TIP3   OH229601   6.361   0.354  12.257 -0.2340  0.6244  0.3433
 2729TIP3    H129602   6.351   0.286  12.323 -1.4025 -1.3985 -1.7537
 2729TIP3    H229603   6.341   0.436  12.303  1.1718 -0.3807  2.9493
 2730TIP3   OH229604   2.509   4.262   1.661  0.0670 -0.2781  0.1176
 2730TIP3    H129605   2.478   4.342   1.619 -1.8387 -1.7327 -1.3887
 2730TIP3    H229606   2.561   4.218   1.594  0.0858 -0.8844  0.5246
 2731TIP3   OH229607   3.929   2.372  16.930 -0.0162 -0.3214 -0.6329
 2731TIP3    H129608   4.011   2.421  16.925 -0.5363  0.5291 -0.9970
 2731TIP3    H229609   3.905   2.375  17.023 -0.0871  0.1813 -0.6678
 2732TIP3   OH229610   4.797   0.482   2.422 -0.1693  0.1524  0.2998
 2732TIP3    H129611   4.867   0.524   2.472  0.2021 -1.9345  1.6515
 2732TIP3    H229612   4.720   0.489   2.479  0.4045 -2.8124  1.5979
 2733TIP3   OH229613   2.053   0.360  12.437 -0.0324  0.3968 -0.4201
 2733TIP3    H129614   2.037   0.398  12.523 -0.8680  0.1445 -0.4520
 2733TIP3    H229615   1.998   0.281  12.435  0.3588  0.1273 -0.9932
 2734TIP3   OH229616   0.935   1.235  11.330  0.3253  0.2938 -0.2172
 2734TIP3    H129617   1.027   1.262  11.334 -0.6953  4.2431  0.0833
 2734TIP3    H229618   0.896   1.293  11.265 -2.5709  0.8785  1.8585
 2735TIP3   OH229619   5.986   5.110   2.519 -0.0806 -0.0796 -0.5185
 2735TIP3    H129620   5.938   5.116   2.436 -1.0096  2.4359  0.1139
 2735TIP3    H229621   5.957   5.027   2.557 -1.5938 -0.0810 -1.5671
 2736TIP3   OH229622   0.455   4.210   6.274  1.0866  0.0015 -0.3311
 2736TIP3    H129623   0.458   4.263   6.354 -1.6728  2.7323 -1.8201
 2736TIP3    H229624   0.482   4.270   6.205  0.4481 -1.3475 -1.8138
 2737TIP3   OH229625   2.082   5.415  12.884  0.2637 -0.3617 -0.3425
 2737TIP3    H129626   2.049   5.328  12.862  2.2868 -0.7889 -1.9402
 2737TIP3    H229627   2.071   5.466  12.804  1.8433 -0.0385 -0.3799
 2738TIP3   OH229628   2.937   4.829  13.986  0.1547 -0.1373  0.7291
 2738TIP3    H129629   2.941   4.751  13.931  2.5121  0.4929 -0.1202
 2738TIP3    H229630   2.904   4.897  13.928  0.3754 -0.0024  0.7573
 2739TIP3   OH229631   6.712   1.753  13.573  0.1977  0.5039 -0.2355
 2739TIP3    H129632   6.722   1.742  13.479  0.6562 -0.0530 -0.1238
 2739TIP3    H229633   6.724   1.665  13.609 -1.6142  0.4003  0.2080
 2740TIP3   OH229634   6.469   5.973  15.646  0.2846 -0.1743  0.4958
 2740TIP3    H129635   6.474   5.995  15.552 -0.1773  0.4541  0.6099
 2740TIP3    H229636   6.512   5.888  15.653  0.5566 -0.1100 -0.2498
 2741TIP3   OH229637   2.391   4.267  13.830  0.1437  0.3933 -0.3102
 2741TIP3    H129638   2.454   4.224  13.889 -0.3750 -0.5634 -0.4277
 2741TIP3    H229639   2.310   4.218  13.843 -0.7302  1.9323  0.2169
 2742TIP3   OH229640   4.885   6.728   2.367  0.3070  0.3692  1.0625
 2742TIP3    H129641   4.923   6.785   2.299 -0.6689  0.3761  0.5106
 2742TIP3    H229642   4.868   6.646   2.322  0.1071  0.2102  1.4309
 2743TIP3   OH229643   2.651   5.955  15.748  0.0803 -0.0895  0.3047
 2743TIP3    H129644   2.714   6.014  15.788  0.5440 -0.2964 -0.1125
 2743TIP3    H229645   2.704   5.895  15.695 -0.5602  0.6766 -1.2682
 2744TIP3   OH229646   3.364   4.120  14.667 -0.2938 -0.5189 -0.1101
 2744TIP3    H129647   3.449   4.162  14.678 -0.4123 -0.0203 -1.0209
 2744TIP3    H229648   3.321   4.131  14.752 -0.2669  1.1084 -0.2796
 2745TIP3   OH229649   3.111   2.925  15.654  0.1581 -0.6261  0.1785
 2745TIP3    H129650   3.131   2.859  15.588  0.2338 -1.7845  1.3282
 2745TIP3    H229651   3.082   3.002  15.603  0.0718 -1.5266 -1.1821
 2746TIP3   OH229652   2.376   5.907   5.491  0.5035  0.1824 -0.3561
 2746TIP3    H129653   2.325   5.956   5.426 -0.8923 -1.1441 -0.3438
 2746TIP3    H229654   2.367   5.957   5.571 -0.1052  0.4125 -0.5578
 2747TIP3   OH229655   5.206   1.822  15.082  0.1576  0.5138  0.6165
 2747TIP3    H129656   5.203   1.742  15.135  1.4243  0.2511  0.3203
 2747TIP3    H229657   5.132   1.874  15.113 -0.4120 -0.5672  1.1440
 2748TIP3   OH229658   4.853   6.768   3.598 -0.4523 -0.1298  0.4785
 2748TIP3    H129659   4.936   6.810   3.623 -0.3893  0.5356 -0.7386
 2748TIP3    H229660   4.801   6.769   3.678  0.7819 -0.7486  1.3297
 2749TIP3   OH229661   4.897   0.264  13.329  0.1832  0.5891  0.6140
 2749TIP3    H129662   4.911   0.344  13.278  0.3788  0.1839  0.0223
 2749TIP3    H229663   4.867   0.295  13.414  0.6576  1.3109  0.5272
 2750TIP3   OH229664   1.021   0.585  17.049  0.3545 -0.4066 -0.0803
 2750TIP3    H129665   1.037   0.565  16.957 -1.6563  0.3797 -0.6485
 2750TIP3    H229666   1.091   0.646  17.073  1.1151 -0.9072 -0.9526
 2751TIP3   OH229667   1.302   5.657  11.593  0.5470  0.3662 -0.4595
 2751TIP3    H129668   1.236   5.588  11.595  0.9952 -0.0648 -0.1075
 2751TIP3    H229669   1.252   5.738  11.592  0.0121  0.0405 -0.7627
 2752TIP3   OH229670   3.891   4.563   1.138 -0.1865 -0.3401  0.0464
 2752TIP3    H129671   3.901   4.496   1.206 -0.0052 -0.3008  0.0583
 2752TIP3    H229672   3.952   4.538   1.070 -0.2954 -0.3217 -0.0590
 2753TIP3   OH229673   2.138   2.716  13.318 -0.3751  0.0998 -0.0014
 2753TIP3    H129674   2.167   2.641  13.370  1.1314 -0.4122 -1.5009
 2753TIP3    H229675   2.190   2.789  13.351  1.5817 -0.4879 -1.5706
 2754TIP3   OH229676   4.098   4.116   3.359  0.3321 -0.3527  0.2475
 2754TIP3    H129677   4.144   4.172   3.421  0.5041 -1.7691  1.4457
 2754TIP3    H229678   4.167   4.061   3.321 -0.0694 -0.9460  0.3772
 2755TIP3   OH229679   5.134   1.583   4.992  0.1144 -0.8523 -0.8578
 2755TIP3    H129680   5.218   1.573   5.037 -0.1670 -1.5084 -0.4651
 2755TIP3    H229681   5.141   1.527   4.915  0.3587 -0.2207 -1.3036
 2756TIP3   OH229682   5.012   0.238   3.835 -0.3406  0.2818 -0.0689
 2756TIP3    H129683   5.054   0.161   3.797 -0.7142 -0.3423  0.7473
 2756TIP3    H229684   5.082   0.303   3.841 -0.1040  0.1346 -1.0916
 2757TIP3   OH229685   6.023   4.278  15.077  0.2039 -0.3146  0.6501
 2757TIP3    H129686   5.953   4.335  15.045  1.3592  1.0465  0.4253
 2757TIP3    H229687   5.995   4.190  15.054 -3.0136 -0.2309  3.4724
 2758TIP3   OH229688   5.174   1.259  12.852 -0.3261  0.9558  0.1852
 2758TIP3    H129689   5.099   1.271  12.910 -1.8452 -0.8043 -1.3233
 2758TIP3    H229690   5.165   1.171  12.818  1.9237  1.0373 -0.8248
 2759TIP3   OH229691   6.020   0.308   1.449 -0.1039  0.1155  0.1611
 2759TIP3    H129692   6.090   0.368   1.425  2.8366 -1.7537  3.1330
 2759TIP3    H229693   5.999   0.261   1.369  2.2471  0.5902 -0.8080
 2760TIP3   OH229694   1.541   4.400   0.929 -0.8178  0.1682  0.1399
 2760TIP3    H129695   1.570   4.470   0.871 -0.6396  1.1026  1.3051
 2760TIP3    H229696   1.477   4.351   0.878 -0.5423  0.8487 -0.8921
 2761TIP3   OH229697   3.990   0.597  16.596 -0.0941 -0.9246  0.1089
 2761TIP3    H129698   3.959   0.525  16.650 -1.0163 -0.0559  0.7685
 2761TIP3    H229699   4.057   0.640  16.649 -0.8328 -0.2138  0.4802
 2762TIP3   OH229700   5.013   3.147   1.830 -0.1993  0.2782  0.0675
 2762TIP3    H129701   4.942   3.206   1.856  0.0636  1.1538 -1.1235
 2762TIP3    H229702   5.083   3.205   1.802  0.7298 -0.5919  0.5207
 2763TIP3   OH229703   0.182   3.693  16.872 -0.3045  0.1588 -0.3514
 2763TIP3    H129704   0.133   3.759  16.824 -2.4804 -0.7097  0.5439
 2763TIP3    H229705   0.227   3.642  16.804  0.0213  1.4546 -1.1440
 2764TIP3   OH229706   6.063   0.511   0.416  0.0341  0.1030 -0.0223
 2764TIP3    H129707   5.971   0.494   0.397  0.2274 -0.6022 -0.3561
 2764TIP3    H229708   6.104   0.523   0.331  0.6349 -1.6655 -0.0190
 2765TIP3   OH229709   5.875   0.719   3.144  0.3441 -0.0506 -0.4034
 2765TIP3    H129710   5.812   0.782   3.110 -0.0970 -0.4196 -0.2874
 2765TIP3    H229711   5.956   0.737   3.096 -0.3156 -0.6817 -1.8150
 2766TIP3   OH229712   5.089   3.791   5.238 -0.4279  0.2642 -0.4455
 2766TIP3    H129713   5.172   3.776   5.193 -0.0369 -2.1822  0.9146
 2766TIP3    H229714   5.066   3.881   5.215  1.2067  0.1445 -3.0379
 2767TIP3   OH229715   2.508   2.678   5.210 -0.3230  0.9041  0.4033
 2767TIP3    H129716   2.428   2.627   5.221  0.0122  0.7629  2.5499
 2767TIP3    H229717   2.479   2.769   5.217 -0.4337  0.9059 -0.0038
 2768TIP3   OH229718   3.669   0.442  14.141 -0.1146 -0.3573 -0.4742
 2768TIP3    H129719   3.605   0.372  14.128 -0.4486 -0.2935  0.6797
 2768TIP3    H229720   3.737   0.403  14.195 -0.1135  0.0830 -0.1440
 2769TIP3   OH229721   2.449   6.617   0.943  0.0302  0.4408  0.1455
 2769TIP3    H129722   2.544   6.617   0.933 -0.1453  2.0735 -2.6823
 2769TIP3    H229723   2.416   6.603   0.854 -2.3925 -0.0887  1.0592
 2770TIP3   OH229724   1.523   1.025   6.392  0.1513  0.3502 -0.8797
 2770TIP3    H129725   1.575   1.092   6.436 -1.3034  0.3216  1.0226
 2770TIP3    H229726   1.581   0.949   6.385  1.1827  1.1526 -1.2477
 2771TIP3   OH229727   4.823   6.023   6.565 -0.6484 -0.2077 -0.3254
 2771TIP3    H129728   4.910   6.005   6.600  0.8225  0.7671 -3.1442
 2771TIP3    H229729   4.767   5.955   6.602  1.0679 -0.3182  2.2910
 2772TIP3   OH229730   6.750   4.743   5.462 -0.1052  0.2027 -0.2208
 2772TIP3    H129731   6.801   4.820   5.437 -2.8231  2.1697 -0.1086
 2772TIP3    H229732   6.678   4.778   5.516 -0.9159 -2.5424  0.6314
 2773TIP3   OH229733   1.919   2.373  15.899 -0.4180  0.9427  0.5100
 2773TIP3    H129734   1.954   2.341  15.816  0.5204 -1.8672  1.8749
 2773TIP3    H229735   1.929   2.468  15.894  0.8878  0.7557 -2.0192
 2774TIP3   OH229736   0.149   0.480  15.048  0.1388 -0.0584  0.1586
 2774TIP3    H129737   0.158   0.389  15.020 -0.7256 -0.0233 -0.2544
 2774TIP3    H229738   0.176   0.532  14.973  0.7110  0.0394  0.4213
 2775TIP3   OH229739   5.053   3.927  12.815 -0.0745 -0.4973 -0.0506
 2775TIP3    H129740   5.018   3.848  12.773  0.9172 -1.3703  0.7189
 2775TIP3    H229741   5.148   3.919  12.808  0.2152 -1.1510  3.0518
 2776TIP3   OH229742   3.996   6.034   3.844 -0.3520  0.3212  0.0534
 2776TIP3    H129743   3.949   6.084   3.911 -1.5782 -0.2666 -0.3322
 2776TIP3    H229744   3.936   5.964   3.820  1.0240 -0.8850  0.0210
 2777TIP3   OH229745   1.747   0.143  13.202  0.4007 -0.0684  0.6083
 2777TIP3    H129746   1.757   0.231  13.239 -0.2978  0.8786 -1.2917
 2777TIP3    H229747   1.726   0.158  13.110  2.6104 -2.2998 -0.3650
 2778TIP3   OH229748   6.671   3.482  14.771 -0.3255 -0.0614  1.0702
 2778TIP3    H129749   6.706   3.549  14.829  0.5597  0.4597 -0.0317
 2778TIP3    H229750   6.643   3.530  14.693 -0.0868 -0.9149  0.4451
 2779TIP3   OH229751   0.822   5.793   3.110  0.0663 -0.3858 -0.2823
 2779TIP3    H129752   0.886   5.815   3.177 -1.1955  1.1541  0.4802
 2779TIP3    H229753   0.858   5.832   3.030 -0.6667  2.0000  0.4706
 2780TIP3   OH229754   1.951   6.682  15.749  0.0241 -0.2409 -0.0038
 2780TIP3    H129755   2.022   6.726  15.795 -0.4973  0.9433 -0.2982
 2780TIP3    H229756   1.912   6.624  15.815  0.4516  0.0450  0.5081
 2781TIP3   OH229757   3.874   0.658   2.777 -0.3441 -0.0356 -0.1148
 2781TIP3    H129758   3.835   0.642   2.692 -0.0558  2.0127 -0.6774
 2781TIP3    H229759   3.863   0.575   2.824  1.0639 -1.8577 -2.7161
 2782TIP3   OH229760   5.020   4.390   2.571  0.1957  0.0848 -0.3195
 2782TIP3    H129761   4.993   4.445   2.498 -0.6490  2.8796  1.9427
 2782TIP3    H229762   4.943   4.337   2.591 -1.1944  2.5367  1.2623
 2783TIP3   OH229763   2.717   3.053   3.939  0.1086  0.2806 -0.3054
 2783TIP3    H129764   2.649   3.007   3.988 -0.2913 -0.5198 -1.5647
 2783TIP3    H229765   2.672   3.088   3.862  0.8170  1.1222 -0.3577
 2784TIP3   OH229766   3.685   0.657  16.938  0.1071 -0.1285  0.2366
 2784TIP3    H129767   3.624   0.584  16.922 -0.1185  0.0478  0.2823
 2784TIP3    H229768   3.686   0.705  16.855  0.9342 -0.6793 -0.0770
 2785TIP3   OH229769   0.397   3.090  15.063 -0.6949 -0.2647  0.3633
 2785TIP3    H129770   0.336   3.124  14.997 -1.2671  1.4173  1.6965
 2785TIP3    H229771   0.355   3.108  15.147  1.1304 -0.0952  1.2884
 2786TIP3   OH229772   1.584   4.104   5.614  0.3199  0.4290 -0.4886
 2786TIP3    H129773   1.668   4.068   5.642  0.3980  0.5987 -0.5038
 2786TIP3    H229774   1.582   4.192   5.651  0.7672  0.9483 -1.6401
 2787TIP3   OH229775   5.427   3.681   4.165 -0.0170  0.2551  0.4841
 2787TIP3    H129776   5.393   3.608   4.113 -0.1177  0.4972  0.2055
 2787TIP3    H229777   5.512   3.700   4.127 -0.8722  1.6755 -0.8700
 2788TIP3   OH229778   0.186   1.695   4.785 -0.1131 -0.4832  0.2928
 2788TIP3    H129779   0.180   1.717   4.878  1.1957 -0.7516  0.4523
 2788TIP3    H229780   0.166   1.777   4.740  0.0286 -0.1529  0.8234
 2789TIP3   OH229781   1.953   6.038  12.812 -0.3227  0.0380 -0.0031
 2789TIP3    H129782   2.017   6.035  12.883 -0.3717  0.0866  0.0433
 2789TIP3    H229783   1.970   5.959  12.761  0.1156  0.3038 -0.2859
 2790TIP3   OH229784   1.472   6.286   2.338 -0.6717 -0.2983 -0.3378
 2790TIP3    H129785   1.439   6.237   2.413 -2.4906  0.0540 -0.8705
 2790TIP3    H229786   1.511   6.365   2.376  0.6979 -1.2840  0.3878
 2791TIP3   OH229787   3.679   2.717   2.154 -0.7386  0.0624  0.2091
 2791TIP3    H129788   3.675   2.638   2.208 -0.2531 -2.5093 -3.1738
 2791TIP3    H229789   3.752   2.701   2.094 -2.0031  2.0463 -2.0375
 2792TIP3   OH229790   1.513   2.524  16.330 -0.4546  0.4437  0.3619
 2792TIP3    H129791   1.549   2.560  16.411 -1.5721 -0.0634  1.1076
 2792TIP3    H229792   1.575   2.456  16.305  0.6303  1.5284  0.0141
 2793TIP3   OH229793   0.821   3.606  16.625 -0.1299  0.0721 -0.4485
 2793TIP3    H129794   0.877   3.681  16.604 -1.4699  1.3192  0.1922
 2793TIP3    H229795   0.882   3.534  16.640  1.3731  1.5572  1.0482
 2794TIP3   OH229796   0.009   5.417   3.007  0.3447 -0.0113 -0.1595
 2794TIP3    H129797   0.059   5.338   2.988  0.5753  0.2561 -0.7158
 2794TIP3    H229798  -0.080   5.396   2.981 -0.1037 -0.8946  1.9421
 2795TIP3   OH229799   2.862   5.186  12.696 -0.2227  0.1609 -0.5634
 2795TIP3    H129800   2.950   5.219  12.711  1.0385 -2.2503 -1.9610
 2795TIP3    H229801   2.825   5.245  12.630  0.8451  0.4720 -0.9005
 2796TIP3   OH229802   1.733   5.506  16.923  0.0252  0.1326  0.6616
 2796TIP3    H129803   1.688   5.452  16.987  0.0757 -0.4792  0.1863
 2796TIP3    H229804   1.747   5.590  16.968  0.5200 -0.4517  1.6251
 2797TIP3   OH229805   0.997   5.290   1.592  0.0585 -0.2500  0.1419
 2797TIP3    H129806   1.004   5.376   1.551 -0.6114 -0.6876 -0.9443
 2797TIP3    H229807   1.068   5.239   1.552 -0.9428 -0.8425 -0.9371
 2798TIP3   OH229808   3.852   3.158  11.427  0.0718 -0.4297  0.0535
 2798TIP3    H129809   3.934   3.182  11.385  0.4856  1.4620  1.7993
 2798TIP3    H229810   3.784   3.194  11.370  0.6289  2.3254  1.0200
 2799TIP3   OH229811   1.619   2.007   1.251 -0.7865  0.2095  0.2294
 2799TIP3    H129812   1.533   2.040   1.278 -0.5361 -0.9591  2.7900
 2799TIP3    H229813   1.672   2.010   1.331  1.0792 -0.6558 -0.8948
 2800TIP3   OH229814   3.481   0.369  12.084 -0.1165 -0.8365 -0.1388
 2800TIP3    H129815   3.407   0.373  12.024 -1.2004  0.7250  1.2308
 2800TIP3    H229816   3.551   0.417  12.039 -0.7602 -0.0883 -0.3602
 2801TIP3   OH229817   5.008   4.675  12.003  0.2732  0.4862 -0.0434
 2801TIP3    H129818   4.938   4.610  12.001 -1.0444  1.8578 -1.7699
 2801TIP3    H229819   5.083   4.632  11.963  0.6768 -1.2000  2.3410
 2802TIP3   OH229820   3.285   4.720  16.881  0.6679 -0.7447 -0.1995
 2802TIP3    H129821   3.191   4.723  16.893  0.8440 -0.6255  1.3082
 2802TIP3    H229822   3.304   4.629  16.859  0.2864 -0.9403  0.2765
 2803TIP3   OH229823   3.750   3.077   3.544 -0.5855  0.3156 -0.3496
 2803TIP3    H129824   3.828   3.047   3.591  0.6728  2.2664 -1.0586
 2803TIP3    H229825   3.751   3.172   3.554 -1.5780  0.5875 -2.3389
 2804TIP3   OH229826   0.042   2.539   0.257  0.6107 -0.3967 -0.5054
 2804TIP3    H129827  -0.014   2.593   0.201  0.5318 -1.2000 -1.2361
 2804TIP3    H229828  -0.004   2.536   0.341  0.7247  0.8197 -0.3829
 2805TIP3   OH229829   6.025   4.640   4.566 -0.0167  0.0457  0.0251
 2805TIP3    H129830   6.046   4.655   4.474 -2.0391 -1.6166 -0.7789
 2805TIP3    H229831   5.952   4.699   4.584 -0.6464 -0.7632  0.1158
 2806TIP3   OH229832   2.129   6.678   3.591  0.1128  0.1325 -0.2243
 2806TIP3    H129833   2.149   6.736   3.518 -1.0731  1.4043  0.4156
 2806TIP3    H229834   2.043   6.641   3.570  0.2564 -0.3495  0.0106
 2807TIP3   OH229835   0.077   1.244   2.023 -0.6722  0.3396 -0.3767
 2807TIP3    H129836   0.069   1.238   2.118 -1.1004  0.8109 -0.3804
 2807TIP3    H229837   0.092   1.154   1.995 -1.8563 -0.0021  0.0188
 2808TIP3   OH229838   5.633   4.337  14.580  0.3402  0.0614  0.6170
 2808TIP3    H129839   5.662   4.316  14.669  1.1615 -0.5004  0.2340
 2808TIP3    H229840   5.633   4.432  14.577 -1.2886  0.1365  1.7133
 2809TIP3   OH229841   1.902   0.201  14.772 -0.2287  0.4206 -0.1877
 2809TIP3    H129842   1.992   0.189  14.741  0.3395  0.7064  1.2871
 2809TIP3    H229843   1.910   0.216  14.866 -1.8196  0.5590 -0.0396
 2810TIP3   OH229844   2.822   3.146   4.159 -0.6760  0.0232  0.3581
 2810TIP3    H129845   2.780   3.115   4.079 -1.3416  0.5103  0.5100
 2810TIP3    H229846   2.823   3.070   4.217 -0.1613 -0.3430 -0.1113
 2811TIP3   OH229847   2.775   2.264  11.755  0.2316  0.0064 -0.4438
 2811TIP3    H129848   2.778   2.329  11.685  2.9781 -0.1597 -0.5853
 2811TIP3    H229849   2.789   2.180  11.710 -1.6754 -0.5533 -0.0732
 2812TIP3   OH229850   4.277   5.693   3.283 -0.1521  0.4255 -0.0955
 2812TIP3    H129851   4.261   5.611   3.331 -0.6038 -0.5835 -1.8472
 2812TIP3    H229852   4.322   5.665   3.203  2.2684  2.2422  0.5168
 2813TIP3   OH229853   6.381   1.459  12.479 -0.5297 -0.1385  0.3169
 2813TIP3    H129854   6.360   1.552  12.475 -1.4479 -0.2704  1.3630
 2813TIP3    H229855   6.389   1.431  12.388 -0.7044  0.8577 -0.0111
 2814TIP3   OH229856   4.471   1.628   4.815  0.0044  0.0260  0.5148
 2814TIP3    H129857   4.465   1.687   4.740  0.0650  0.1178  0.5822
 2814TIP3    H229858   4.396   1.568   4.804 -0.3894  0.4664  0.7472
 2815TIP3   OH229859   4.508   1.355   6.050  0.1743 -0.0827  0.0835
 2815TIP3    H129860   4.510   1.432   6.107 -0.9679  0.1200 -0.1313
 2815TIP3    H229861   4.428   1.365   5.998 -0.0168 -1.4334  0.0751
 2816TIP3   OH229862   0.414   6.504   2.076 -0.2594  0.6761 -0.3467
 2816TIP3    H129863   0.395   6.508   1.982 -1.6023  1.4060 -0.0793
 2816TIP3    H229864   0.456   6.420   2.089 -0.4028  0.4060 -1.5516
 2817TIP3   OH229865   2.428   5.011  12.634  0.3520 -0.3187 -0.1109
 2817TIP3    H129866   2.443   5.026  12.728 -0.2690 -0.1856 -0.0311
 2817TIP3    H229867   2.514   4.988  12.600  0.8227  0.8143  0.2700
 2818TIP3   OH229868   3.783   0.631   5.759 -0.6840  0.1399 -0.1542
 2818TIP3    H129869   3.688   0.645   5.753 -0.6889 -0.2766 -1.4573
 2818TIP3    H229870   3.808   0.603   5.671  0.4117 -1.2230  0.5517
 2819TIP3   OH229871   1.278   1.552  11.159  0.5958  0.0409  0.1274
 2819TIP3    H129872   1.256   1.572  11.068  0.8388  0.7206  0.2130
 2819TIP3    H229873   1.252   1.630  11.207 -0.6241 -0.7603  0.8209
 2820TIP3   OH229874   5.082   3.419   1.827  0.0164  0.1211 -0.3879
 2820TIP3    H129875   5.052   3.506   1.801  1.1556  0.6316 -0.0635
 2820TIP3    H229876   5.044   3.406   1.914 -1.5694 -0.4528 -1.1274
 2821TIP3   OH229877   2.571   1.992   4.194  0.0898  0.5541 -0.1258
 2821TIP3    H129878   2.507   1.920   4.196 -0.7627  1.2898 -0.4120
 2821TIP3    H229879   2.592   2.008   4.285  0.3076 -0.0752 -0.0583
 2822TIP3   OH229880   5.942   2.330  10.982  0.5379 -0.4032 -0.2733
 2822TIP3    H129881   5.896   2.246  10.980 -0.3573 -0.1128  2.8793
 2822TIP3    H229882   5.907   2.378  10.907 -1.2424 -1.7219 -0.3411
 2823TIP3   OH229883   2.902   6.257   3.424  0.0373  0.1951 -0.5335
 2823TIP3    H129884   2.924   6.165   3.435 -1.0431  0.2381  3.3781
 2823TIP3    H229885   2.808   6.262   3.441 -0.1268  1.9608 -1.6429
 2824TIP3   OH229886   0.431   4.565  13.452 -0.2724  0.8709  0.0043
 2824TIP3    H129887   0.481   4.483  13.451 -2.0402 -0.2681  0.1958
 2824TIP3    H229888   0.362   4.551  13.386  0.9770  3.3003 -2.0033
 2825TIP3   OH229889   4.609   5.101  16.736  0.4930 -0.2797 -0.4862
 2825TIP3    H129890   4.637   5.152  16.660  1.5992  3.1892  1.9927
 2825TIP3    H229891   4.524   5.139  16.760 -1.0926 -3.0363 -1.2944
 2826TIP3   OH229892   4.640   1.022  17.334  0.0059 -0.4394 -0.1533
 2826TIP3    H129893   4.714   1.064  17.290  0.7293  0.5667  1.8750
 2826TIP3    H229894   4.659   0.929  17.329  2.1835 -0.1714  1.4827
 2827TIP3   OH229895   1.500   0.711  10.776  0.1307  0.3703  0.0805
 2827TIP3    H129896   1.481   0.796  10.735 -1.3028 -0.9285 -2.1570
 2827TIP3    H229897   1.417   0.663  10.772  1.3875 -1.8889 -0.6225
 2828TIP3   OH229898   0.050   0.769   1.886  0.0347  0.2559  0.1811
 2828TIP3    H129899  -0.008   0.808   1.952  0.4038 -1.8478  1.8509
 2828TIP3    H229900   0.119   0.834   1.874 -1.1974  1.6253  0.2007
 2829TIP3   OH229901   2.022   5.622   3.605  0.0205  0.3606 -0.1907
 2829TIP3    H129902   2.029   5.546   3.548  1.0919  1.3151 -1.3779
 2829TIP3    H229903   1.980   5.588   3.684  0.9875 -1.5912 -0.4450
 2830TIP3   OH229904   3.118   5.723  10.685  0.4791  0.0466  0.0039
 2830TIP3    H129905   3.035   5.758  10.716  0.7013 -0.8345  1.7027
 2830TIP3    H229906   3.101   5.696  10.595 -1.6277 -1.8220  0.8794
 2831TIP3   OH229907   0.801   3.754  12.249 -0.2105  0.0767  0.3622
 2831TIP3    H129908   0.891   3.786  12.245 -0.2513  0.1483  0.0015
 2831TIP3    H229909   0.771   3.755  12.158 -1.0992  1.5135  0.6474
 2832TIP3   OH229910   4.211   2.636  17.232  0.2898  0.0430  0.4995
 2832TIP3    H129911   4.164   2.585  17.166  2.9969 -0.9633 -0.7976
 2832TIP3    H229912   4.145   2.696  17.267 -2.9475 -3.7202  1.5862
 2833TIP3   OH229913   1.581   4.241  17.239 -0.1911 -0.1305  0.1456
 2833TIP3    H129914   1.492   4.247  17.273  0.3838  0.1134  1.7183
 2833TIP3    H229915   1.629   4.308  17.289  0.5084  0.9861 -1.9247
 2834TIP3   OH229916   0.314   4.248  15.112  0.6452 -0.0531 -0.1635
 2834TIP3    H129917   0.286   4.163  15.078 -0.0753  0.6089 -1.2793
 2834TIP3    H229918   0.357   4.290  15.038  0.8298  0.6259  0.3266
 2835TIP3   OH229919   4.977   0.182   0.128  0.1060  0.2342 -0.4207
 2835TIP3    H129920   5.016   0.127   0.060 -3.3963 -3.0520 -0.0787
 2835TIP3    H229921   5.028   0.162   0.206  1.0654  0.2056 -1.0300
 2836TIP3   OH229922   6.033   1.935  16.617 -0.9256 -0.0320 -0.0861
 2836TIP3    H129923   6.103   1.987  16.657 -1.7247  1.7713 -0.8992
 2836TIP3    H229924   5.956   1.955  16.670 -1.4724  0.4797 -1.0571
 2837TIP3   OH229925   3.487   2.104  15.104  0.2311  0.3657 -0.7205
 2837TIP3    H129926   3.457   2.045  15.034  2.4898  0.6985 -2.0661
 2837TIP3    H229927   3.534   2.048  15.165 -0.7511  0.2580 -0.0371
 2838TIP3   OH229928   3.945   3.378   4.955 -0.1193  0.6021  0.0190
 2838TIP3    H129929   4.014   3.445   4.956  1.0961 -0.6191  0.8666
 2838TIP3    H229930   3.864   3.428   4.955  0.7393  2.0914 -1.2499
 2839TIP3   OH229931   5.422   1.005  11.182 -0.2230  0.6043 -0.2652
 2839TIP3    H129932   5.375   1.037  11.105 -1.7490  0.0583  0.4117
 2839TIP3    H229933   5.412   0.910  11.178  0.9396  0.4663 -0.1602
 2840TIP3   OH229934   2.912   0.610  14.688 -0.3198 -0.2517 -0.3917
 2840TIP3    H129935   2.844   0.632  14.753  1.3581  0.3269  1.2550
 2840TIP3    H229936   2.864   0.569  14.616 -2.4926  0.7226  0.4101
 2841TIP3   OH229937   2.362   3.662  15.208  0.4678  0.3070  0.1449
 2841TIP3    H129938   2.387   3.692  15.120  0.3232 -1.4345 -0.5257
 2841TIP3    H229939   2.438   3.684  15.263  1.0573  0.3472 -0.6593
 2842TIP3   OH229940   6.202   0.592   0.185  0.0714  0.1734 -0.1767
 2842TIP3    H129941   6.276   0.583   0.245  1.4427 -4.3021 -2.1065
 2842TIP3    H229942   6.241   0.626   0.104 -0.7190  1.1134 -0.1786
 2843TIP3   OH229943   1.344   2.601   3.313  0.3543  0.2633 -0.0426
 2843TIP3    H129944   1.344   2.569   3.402 -0.3718 -0.2932 -0.2414
 2843TIP3    H229945   1.309   2.529   3.260 -1.2137  1.3026 -0.5029
 2844TIP3   OH229946   4.077   3.197   1.561  0.1446 -0.8715  0.4995
 2844TIP3    H129947   4.087   3.187   1.466 -1.0101 -0.4313  0.3171
 2844TIP3    H229948   4.164   3.223   1.592  0.3533 -0.3110 -0.5300
 2845TIP3   OH229949   5.017   5.283   0.973  0.1519 -0.1634  0.4267
 2845TIP3    H129950   5.101   5.327   0.969  0.1989 -0.3285 -0.6420
 2845TIP3    H229951   4.984   5.301   1.061  0.7897  0.8476  0.4671
 2846TIP3   OH229952   3.076   0.436  12.933 -0.9330 -0.7156 -0.0943
 2846TIP3    H129953   3.136   0.510  12.938 -2.8295  0.8364  3.0398
 2846TIP3    H229954   3.037   0.442  12.846  0.2224  0.9059 -0.5420
 2847TIP3   OH229955   5.664   6.365   4.284 -0.3887  0.0706  0.4702
 2847TIP3    H129956   5.696   6.320   4.206  0.3827 -3.4041  2.5962
 2847TIP3    H229957   5.742   6.381   4.337 -1.1540 -0.2723  1.7634
 2848TIP3   OH229958   5.733   5.281  15.554  0.8158  0.1123  0.0225
 2848TIP3    H129959   5.750   5.298  15.461 -0.3673  0.6264 -0.1213
 2848TIP3    H229960   5.682   5.200  15.554  1.0910 -0.0619  0.2513
 2849TIP3   OH229961   3.272   4.954   2.731  0.3682  0.6264  0.4965
 2849TIP3    H129962   3.222   4.913   2.659  1.0204 -0.0065  0.3891
 2849TIP3    H229963   3.344   4.998   2.687  0.8584  0.1038  0.7698
 2850TIP3   OH229964   2.879   1.262   0.955 -0.6802 -0.3849  0.0687
 2850TIP3    H129965   2.961   1.310   0.970 -1.0141  0.1642  0.1618
 2850TIP3    H229966   2.817   1.330   0.928 -1.1127 -0.7982  0.0254
 2851TIP3   OH229967   3.070   6.627  14.352  0.0461  0.1697 -0.3226
 2851TIP3    H129968   3.106   6.543  14.380  1.1778  0.7778  0.0955
 2851TIP3    H229969   3.144   6.687  14.354 -0.8227  1.2775 -0.2269
 2852TIP3   OH229970   5.842   2.070  15.966  0.4293 -0.0887 -0.3516
 2852TIP3    H129971   5.863   2.157  15.932 -1.9358  0.3630 -0.8144
 2852TIP3    H229972   5.837   2.014  15.888 -1.6741  0.2112 -0.4777
 2853TIP3   OH229973   3.081   1.594   1.918 -0.1346 -0.7291 -0.1628
 2853TIP3    H129974   3.067   1.508   1.878 -1.2035 -0.9809  0.6818
 2853TIP3    H229975   3.011   1.649   1.882  0.3423 -0.2955 -0.4434
 2854TIP3   OH229976   2.192   5.886  15.889 -0.0740  0.2664 -0.8463
 2854TIP3    H129977   2.275   5.841  15.879 -0.9116 -1.1424 -1.8580
 2854TIP3    H229978   2.190   5.912  15.981 -0.5688 -4.1302  0.6545
 2855TIP3   OH229979   3.851   5.825  15.464  0.1960  0.7373 -0.1681
 2855TIP3    H129980   3.935   5.870  15.474 -0.0816  1.8038 -2.0487
 2855TIP3    H229981   3.786   5.887  15.497  0.0304  0.5267 -0.0940
 2856TIP3   OH229982   4.646   3.548   2.648  0.2783 -0.7130  0.1025
 2856TIP3    H129983   4.695   3.610   2.702 -0.7134 -0.2355  0.4703
 2856TIP3    H229984   4.567   3.528   2.699  0.4197 -2.0243 -0.1601
 2857TIP3   OH229985   1.100   4.326   5.789  0.0091 -0.0949  0.3750
 2857TIP3    H129986   1.091   4.232   5.804  0.5322 -0.0843  0.7768
 2857TIP3    H229987   1.033   4.366   5.846  0.9559 -0.1398  1.5599
 2858TIP3   OH229988   2.315   3.666  12.772  0.2488 -0.2962 -0.5498
 2858TIP3    H129989   2.302   3.577  12.741 -0.7417  0.3101 -2.0299
 2858TIP3    H229990   2.408   3.684  12.756  0.1581 -0.6217 -1.5544
 2859TIP3   OH229991   0.182   3.888   1.702 -0.8729 -0.7174 -0.2574
 2859TIP3    H129992   0.267   3.929   1.716 -0.8195 -0.9242  0.0340
 2859TIP3    H229993   0.194   3.798   1.731 -1.9253 -0.0877  2.4000
 2860TIP3   OH229994   3.560   0.153  11.129  0.4517  0.5843  0.1817
 2860TIP3    H129995   3.538   0.062  11.109 -0.8590  1.0467 -0.5867
 2860TIP3    H229996   3.621   0.179  11.060 -0.1032  0.6375 -0.2962
 2861TIP3   OH229997   2.605   1.381   3.376  0.3884 -0.2637 -0.8283
 2861TIP3    H129998   2.616   1.387   3.471  1.9611  0.2590 -1.0186
 2861TIP3    H229999   2.558   1.461   3.352  2.3999  0.9911 -0.7824
 2862TIP3   OH230000   0.059   2.257  17.320  0.2878 -0.1306 -0.0421
 2862TIP3    H130001  -0.005   2.319  17.284  1.5216  1.1095 -0.1897
 2862TIP3    H230002   0.128   2.312  17.357  1.3437 -1.4248  0.0014
 2863TIP3   OH230003   2.365   5.860   2.844 -0.3400  0.5561  0.1593
 2863TIP3    H130004   2.392   5.846   2.753 -0.7366  2.1700 -0.2307
 2863TIP3    H230005   2.442   5.838   2.896  0.6306  1.7619 -0.7099
 2864TIP3   OH230006   0.011   6.301  14.302 -0.8721 -0.0615  0.2779
 2864TIP3    H130007  -0.080   6.286  14.329 -1.6090  1.3590 -1.2469
 2864TIP3    H230008   0.022   6.244  14.226 -1.1215  1.1125 -0.6687
 2865TIP3   OH230009   4.472   6.637   1.794  0.1121 -0.8031 -0.8374
 2865TIP3    H130010   4.480   6.586   1.875  0.1978 -0.0669 -0.3744
 2865TIP3    H230011   4.412   6.586   1.740  1.6948 -2.4031 -1.1917
 2866TIP3   OH230012   0.176   6.644   0.548 -0.1099  0.2534  0.1535
 2866TIP3    H130013   0.181   6.562   0.500 -0.4242 -0.3045  1.0442
 2866TIP3    H230014   0.083   6.668   0.546 -0.1586  0.1155  0.6498
 2867TIP3   OH230015   2.083   2.545  13.106 -0.5648  0.1546  0.0915
 2867TIP3    H130016   2.154   2.495  13.147 -0.5099  0.3896  0.2801
 2867TIP3    H230017   2.080   2.627  13.154 -0.7250  0.2937 -0.1533
 2868TIP3   OH230018   4.772   3.238  11.116 -0.1918  0.3152 -0.1678
 2868TIP3    H130019   4.679   3.231  11.139  0.1736 -1.9385  0.8308
 2868TIP3    H230020   4.775   3.225  11.022 -0.9057  0.8748 -0.2805
 2869TIP3   OH230021   6.273   5.992   5.385  0.1236  0.4491  0.1633
 2869TIP3    H130022   6.233   5.910   5.356 -0.7596  0.1057  2.1687
 2869TIP3    H230023   6.355   5.998   5.335 -0.5289 -0.8528 -1.1328
 2870TIP3   OH230024   4.043   1.641   5.180  0.6017 -0.0346 -0.0922
 2870TIP3    H130025   3.976   1.596   5.232  1.3434  0.2443  1.1392
 2870TIP3    H230026   4.098   1.570   5.146  0.9095 -0.1505  0.6372
 2871TIP3   OH230027   2.696   6.517   4.801  0.2354 -0.6084  0.7988
 2871TIP3    H130028   2.772   6.575   4.797 -0.2164 -0.0596 -0.8574
 2871TIP3    H230029   2.711   6.463   4.878  1.6427  0.3869  1.2690
 2872TIP3   OH230030   2.062   0.845   1.405 -0.0948 -0.4068  0.2061
 2872TIP3    H130031   2.014   0.820   1.484  0.3550  0.7563  0.8702
 2872TIP3    H230032   2.024   0.929   1.379  0.5259 -0.2335 -0.1573
 2873TIP3   OH230033   2.823   2.678  16.994 -0.1828 -0.2185  0.4647
 2873TIP3    H130034   2.769   2.656  17.070  1.4679 -0.6474  1.5527
 2873TIP3    H230035   2.862   2.762  17.016  0.2849 -0.3321  0.0806
 2874TIP3   OH230036   1.553   6.397  13.732 -0.1175 -0.4590 -0.4620
 2874TIP3    H130037   1.513   6.312  13.712 -1.3225  0.0237 -0.1681
 2874TIP3    H230038   1.620   6.408  13.665  0.0736 -1.6502 -0.4902
 2875TIP3   OH230039   0.439   0.864   1.218  0.1976 -0.1287 -0.8413
 2875TIP3    H130040   0.382   0.794   1.185 -0.3882 -0.7722  1.3994
 2875TIP3    H230041   0.421   0.938   1.159  0.2537 -1.5718 -2.7833
 2876TIP3   OH230042   0.173   3.999   6.605  0.4173  0.1075  0.5966
 2876TIP3    H130043   0.135   3.916   6.636  0.2204 -0.9317 -2.1105
 2876TIP3    H230044   0.259   3.974   6.570  0.0350  0.8712 -0.9620
 2877TIP3   OH230045   0.589   3.758   4.981 -0.1058 -0.3979  0.1796
 2877TIP3    H130046   0.658   3.731   4.920  0.0051  0.0824  0.0884
 2877TIP3    H230047   0.578   3.852   4.965 -0.4607 -0.3786  0.5165
 2878TIP3   OH230048   6.766   0.104   4.593  0.1764  0.8359  0.0700
 2878TIP3    H130049   6.705   0.107   4.519 -0.6867  0.5937  0.7461
 2878TIP3    H230050   6.825   0.032   4.573 -1.3313 -0.6154  0.5440
 2879TIP3   OH230051   2.255   2.444  15.783  0.5049  0.3950 -0.4562
 2879TIP3    H130052   2.163   2.465  15.767  0.1188 -0.4896  0.4694
 2879TIP3    H230053   2.289   2.521  15.829 -0.2799  0.0070  0.8317
 2880TIP3   OH230054   1.159   0.897   1.015  0.5376 -0.0255 -0.4780
 2880TIP3    H130055   1.212   0.883   1.093 -1.2505  0.1020  0.8325
 2880TIP3    H230056   1.104   0.973   1.036 -2.0452 -1.7144 -0.6195
 2881TIP3   OH230057   5.080   1.021   1.446  0.5612 -0.2657 -0.3366
 2881TIP3    H130058   5.037   1.078   1.383  0.5810 -0.4727 -0.5355
 2881TIP3    H230059   5.126   0.956   1.393  1.1599 -0.0194 -0.1287
 2882TIP3   OH230060   6.048   5.604   5.976 -0.4037  0.6839 -0.1130
 2882TIP3    H130061   6.064   5.637   5.888 -0.2844  0.3701 -0.2086
 2882TIP3    H230062   6.127   5.626   6.025 -0.1507  0.1732 -0.2842
 2883TIP3   OH230063   3.494   3.652  12.758 -0.3982  0.5358 -0.5261
 2883TIP3    H130064   3.568   3.706  12.731 -0.9345  2.7887  2.0838
 2883TIP3    H230065   3.417   3.694  12.721 -0.5512 -1.2040 -2.3570
 2884TIP3   OH230066   6.228   5.745   1.573  0.2684  0.2607  0.6863
 2884TIP3    H130067   6.304   5.742   1.515 -0.3127 -1.2449 -0.0464
 2884TIP3    H230068   6.254   5.693   1.648  0.1221  0.1295  0.6446
 2885TIP3   OH230069   0.518   0.154  14.150 -0.1169 -0.2503  0.2488
 2885TIP3    H130070   0.438   0.146  14.098 -0.4549  2.3880  0.1888
 2885TIP3    H230071   0.587   0.125  14.091 -0.8744 -1.0103 -0.2850
 2886TIP3   OH230072   0.131   3.581   1.737 -0.0429 -0.7155  0.1960
 2886TIP3    H130073   0.100   3.569   1.827  1.4016  1.9187  1.1528
 2886TIP3    H230074   0.195   3.511   1.723 -1.8548 -2.5016  0.3331
 2887TIP3   OH230075   5.494   6.369   2.609  0.0319 -0.3396  0.1918
 2887TIP3    H130076   5.421   6.402   2.661  0.3406  1.5370 -0.4870
 2887TIP3    H230077   5.571   6.385   2.663  0.2504  0.7078 -0.3967
 2888TIP3   OH230078   3.253   1.033   2.906  0.4357 -0.2809  0.6505
 2888TIP3    H130079   3.218   1.066   2.988 -2.5808 -2.7399  0.5567
 2888TIP3    H230080   3.226   1.097   2.841  0.2226  0.2008  1.2092
 2889TIP3   OH230081   6.288   1.356  16.557 -0.1418 -0.1874  0.5153
 2889TIP3    H130082   6.228   1.375  16.485  0.3507  1.7186  0.5548
 2889TIP3    H230083   6.338   1.280  16.527 -0.3393  0.2268 -0.9213
 2890TIP3   OH230084   3.050   0.957  16.019 -0.0764 -0.3438  0.7512
 2890TIP3    H130085   3.048   1.024  15.951 -0.5319  1.1456  2.1509
 2890TIP3    H230086   2.978   0.980  16.078  2.2915  0.5644  3.5972
 2891TIP3   OH230087   6.377   4.099  13.961  0.2704 -0.0735 -0.2005
 2891TIP3    H130088   6.426   4.175  13.993 -0.5117 -1.1179  4.1408
 2891TIP3    H230089   6.445   4.034  13.942  0.8028  0.7661 -1.3208
 2892TIP3   OH230090   2.990   3.366   6.350  0.3200 -0.1271  0.7457
 2892TIP3    H130091   3.044   3.349   6.427 -0.6223 -1.5279  1.1227
 2892TIP3    H230092   2.901   3.372   6.384 -0.2619 -1.9032 -0.3526
 2893TIP3   OH230093   0.102   2.439   2.027 -0.1778 -0.3903  0.0591
 2893TIP3    H130094   0.117   2.346   2.043  0.5506 -0.9585 -3.1062
 2893TIP3    H230095   0.152   2.458   1.948 -1.5823  2.3124 -0.3196
 2894TIP3   OH230096   3.339   5.631  16.428 -0.3397  0.2186 -0.0768
 2894TIP3    H130097   3.403   5.621  16.357 -0.8590 -0.9697 -0.4104
 2894TIP3    H230098   3.360   5.559  16.488  0.4528  1.5424  1.2855
 2895TIP3   OH230099   0.253   5.983   5.602  0.6420  0.4330 -0.8646
 2895TIP3    H130100   0.215   5.991   5.514  1.1099  0.5512 -1.0582
 2895TIP3    H230101   0.200   6.042   5.656 -0.3072 -0.4108 -0.8377
 2896TIP3   OH230102   5.763   4.418  11.247 -0.3017 -0.4858  0.2562
 2896TIP3    H130103   5.829   4.350  11.240  0.9638  0.7141  0.0636
 2896TIP3    H230104   5.717   4.415  11.163 -0.4576 -1.2753  0.3619
 2897TIP3   OH230105   4.606   0.073   0.751 -0.1544 -0.2437  0.4077
 2897TIP3    H130106   4.681   0.014   0.755  1.5436  1.7283 -0.4723
 2897TIP3    H230107   4.576   0.068   0.660 -0.9796 -0.8576  0.7019
 2898TIP3   OH230108   0.563   6.697  15.709  0.1120 -0.0449 -0.1445
 2898TIP3    H130109   0.602   6.659  15.630 -0.5854  1.0305 -1.0294
 2898TIP3    H230110   0.474   6.722  15.683  0.0668  0.8818  0.8099
 2899TIP3   OH230111   4.305   2.807   5.581  0.3447 -0.7307  0.0821
 2899TIP3    H130112   4.224   2.817   5.531  0.5001 -1.1332 -0.2581
 2899TIP3    H230113   4.302   2.716   5.612  0.7178 -0.7766 -0.0206
 2900TIP3   OH230114   1.608   3.112  11.760  0.1142  0.6732  0.5206
 2900TIP3    H130115   1.653   3.138  11.840  1.5104  0.7478 -0.2403
 2900TIP3    H230116   1.638   3.022  11.744 -0.5804  0.4645  0.3753
 2901TIP3   OH230117   3.716   2.684   3.902  0.5617 -0.2969 -0.3336
 2901TIP3    H130118   3.707   2.726   3.816 -1.0972 -0.5359 -0.3101
 2901TIP3    H230119   3.799   2.718   3.936 -0.8434  3.4236 -0.0793
 2902TIP3   OH230120   0.755   2.702   3.936 -0.1349  0.0928  0.5236
 2902TIP3    H130121   0.713   2.629   3.892 -0.5131  0.3997  0.3739
 2902TIP3    H230122   0.705   2.715   4.016  0.1403 -0.0286  0.7191
 2903TIP3   OH230123   2.370   6.152   3.792  0.5886 -0.4020 -0.1226
 2903TIP3    H130124   2.456   6.109   3.784  0.8596 -0.2670  1.5705
 2903TIP3    H230125   2.366   6.178   3.884 -0.1289  2.0344 -0.7724
 2904TIP3   OH230126   5.549   5.927   2.777  0.5459 -0.0802 -0.0340
 2904TIP3    H130127   5.630   5.902   2.822  0.0638  0.6327  1.2965
 2904TIP3    H230128   5.537   6.020   2.798 -0.2396  0.0113 -0.8179
 2905TIP3   OH230129   2.373   6.088  16.682  0.5172  0.4425 -0.1524
 2905TIP3    H130130   2.335   6.148  16.746 -1.0629  2.0828 -2.4477
 2905TIP3    H230131   2.301   6.031  16.656  1.0718 -0.0427 -0.6598
 2906TIP3   OH230132   5.321   4.515  15.757  0.8631 -0.3333 -0.1174
 2906TIP3    H130133   5.230   4.514  15.787  1.4963 -1.7765  2.0345
 2906TIP3    H230134   5.319   4.472  15.672 -0.6273  0.9491 -0.7762
 2907TIP3   OH230135   4.392   0.257  10.750 -0.2514 -0.0151 -0.4410
 2907TIP3    H130136   4.311   0.238  10.703 -1.1541  0.5314  0.8242
 2907TIP3    H230137   4.410   0.178  10.800  0.3690 -0.3772 -1.2362
 2908TIP3   OH230138   4.196   4.186  13.456 -0.4157 -0.8028 -0.3844
 2908TIP3    H130139   4.170   4.257  13.514 -0.5692 -2.6233  1.9290
 2908TIP3    H230140   4.128   4.183  13.389 -1.2601  0.1854  0.4013
 2909TIP3   OH230141   3.166   5.504  15.534 -0.6398 -0.0311  0.0982
 2909TIP3    H130142   3.151   5.515  15.628  0.6529 -1.9660  0.5840
 2909TIP3    H230143   3.189   5.412  15.523  0.6410  0.4372 -1.9155
 2910TIP3   OH230144   4.530   0.837  14.630  0.1349  0.5851  0.0512
 2910TIP3    H130145   4.514   0.867  14.540 -0.2508  1.5992  0.4488
 2910TIP3    H230146   4.444   0.811  14.662 -0.0927  2.1321  0.7910
 2911TIP3   OH230147   0.339   1.494  11.860 -0.2799 -0.1537  0.1907
 2911TIP3    H130148   0.291   1.418  11.828  1.9079 -2.2112  1.4843
 2911TIP3    H230149   0.395   1.460  11.929  1.7655  2.3870 -0.0525
 2912TIP3   OH230150   6.700   2.002   5.531  0.1271  0.4458 -0.6323
 2912TIP3    H130151   6.728   1.912   5.517 -0.2843  0.0858  0.8036
 2912TIP3    H230152   6.608   2.004   5.504  0.5400  0.8513 -2.1750
 2913TIP3   OH230153   6.094   5.628   1.250  0.0151 -0.0624  0.9062
 2913TIP3    H130154   6.079   5.688   1.324  0.4230  0.6435  0.4279
 2913TIP3    H230155   6.108   5.686   1.175  1.7684 -0.7097  0.6753
 2914TIP3   OH230156   5.826   1.173   5.598 -0.3425 -0.5189 -0.1900
 2914TIP3    H130157   5.857   1.236   5.532  0.1833 -0.1441  0.4051
 2914TIP3    H230158   5.862   1.206   5.681 -1.1269 -0.8993  0.3051
 2915TIP3   OH230159   5.374   6.247   0.271 -0.1830  0.2377  0.2601
 2915TIP3    H130160   5.356   6.160   0.234 -2.1005  0.2009  1.1376
 2915TIP3    H230161   5.368   6.306   0.196 -1.9243 -0.0774  0.1016
 2916TIP3   OH230162   4.545   0.137   5.738 -0.2925  0.7208 -0.3382
 2916TIP3    H130163   4.569   0.215   5.687  0.5669  1.2873  0.8791
 2916TIP3    H230164   4.558   0.065   5.677 -1.0652  1.5073 -1.4826
 2917TIP3   OH230165   3.348   4.025  13.130  0.3506  0.5153 -0.2674
 2917TIP3    H130166   3.323   3.940  13.093 -1.0056  0.2124  1.2242
 2917TIP3    H230167   3.442   4.030  13.116  0.2214 -0.4901 -1.8295
 2918TIP3   OH230168   3.369   0.501   1.439 -0.0079  0.4152  0.0312
 2918TIP3    H130169   3.332   0.504   1.527  1.0203  1.3156  0.4553
 2918TIP3    H230170   3.296   0.475   1.383 -0.6330 -0.3442  1.1679
 2919TIP3   OH230171   6.369   0.947  16.379  0.1439 -0.1764 -0.1923
 2919TIP3    H130172   6.464   0.933  16.387  0.0941  0.4919  2.3338
 2919TIP3    H230173   6.358   1.041  16.393 -0.8525 -0.1071 -1.3196
 2920TIP3   OH230174   4.058   4.840  12.573  0.5884 -0.0779  0.1990
 2920TIP3    H130175   4.073   4.751  12.542  0.2919  0.0644 -0.3542
 2920TIP3    H230176   3.988   4.832  12.638 -0.5165 -0.0565 -0.9501
 2921TIP3   OH230177   1.235   0.558  13.844 -0.6632 -0.2953 -0.1917
 2921TIP3    H130178   1.330   0.553  13.833 -0.8554 -0.6956 -2.0777
 2921TIP3    H230179   1.209   0.471  13.875 -0.4671 -0.3795 -0.2654
 2922TIP3   OH230180   2.948   0.960  16.843 -0.0133  0.4747  0.3189
 2922TIP3    H130181   2.910   0.888  16.893  0.9334  0.1272  0.5718
 2922TIP3    H230182   2.881   0.983  16.779 -0.3097 -0.6873  0.1838
 2923TIP3   OH230183   5.284   3.765  16.238  0.0402 -0.2915 -0.6073
 2923TIP3    H130184   5.314   3.817  16.313 -0.9945 -0.9493  0.2910
 2923TIP3    H230185   5.326   3.806  16.163 -0.4583  1.6447  0.0995
 2924TIP3   OH230186   0.554   4.439  11.874 -0.2788  0.7229  0.2882
 2924TIP3    H130187   0.591   4.424  11.962  2.2048  0.4638 -0.7164
 2924TIP3    H230188   0.529   4.352  11.844  1.2472  0.4098 -0.1863
 2925TIP3   OH230189   0.846   4.444   2.413 -0.6204 -0.2321  0.1133
 2925TIP3    H130190   0.811   4.382   2.477  0.2246 -0.6709  0.1743
 2925TIP3    H230191   0.798   4.425   2.332 -0.3606 -0.9982  0.1245
 2926TIP3   OH230192   4.017   2.219   2.073  0.0907  0.0288  0.0186
 2926TIP3    H130193   3.979   2.297   2.114 -1.2354  0.4887 -1.9543
 2926TIP3    H230194   3.942   2.164   2.049  0.9746 -1.6771  0.9466
 2927TIP3   OH230195   1.657   5.271  16.509  0.7323 -0.4945 -0.2938
 2927TIP3    H130196   1.632   5.184  16.541  0.3805  0.0604  0.9879
 2927TIP3    H230197   1.622   5.332  16.574  1.9864  0.5478 -0.5587
 2928TIP3   OH230198   2.085   4.019  16.573  0.1716  0.0435  0.2339
 2928TIP3    H130199   2.043   3.964  16.639 -0.9177  0.4224 -0.1284
 2928TIP3    H230200   2.074   3.971  16.491 -1.6775  1.2233 -0.2574
 2929TIP3   OH230201   3.074   6.468   3.334 -0.3085 -0.3093  0.2293
 2929TIP3    H130202   3.001   6.426   3.379 -0.5562  0.9144  1.0164
 2929TIP3    H230203   3.148   6.409   3.347 -0.6281 -0.4900  1.3485
 2930TIP3   OH230204   0.677   5.045  13.069 -0.2878  0.2430  0.4416
 2930TIP3    H130205   0.626   4.967  13.043  1.5771 -0.6710 -0.6981
 2930TIP3    H230206   0.663   5.106  12.997  0.1069  0.0386  0.1875
 2931TIP3   OH230207   0.371   6.446   1.526  1.0269  0.0390 -0.3583
 2931TIP3    H130208   0.458   6.424   1.492  0.6553 -0.4321 -1.0100
 2931TIP3    H230209   0.365   6.541   1.518  1.0640 -0.0355 -1.3246
 2932TIP3   OH230210   0.861   2.300  15.947 -0.0159 -0.3115  0.5382
 2932TIP3    H130211   0.914   2.225  15.918 -2.1519 -2.9229  2.7310
 2932TIP3    H230212   0.788   2.304  15.885  0.1685  0.0568  0.3433
 2933TIP3   OH230213   0.788   2.766   2.444 -0.3831  0.3121  0.8102
 2933TIP3    H130214   0.796   2.850   2.489  2.3114  0.9777 -0.7192
 2933TIP3    H230215   0.875   2.727   2.450 -1.2676 -1.8790  0.4776
 2934TIP3   OH230216   6.007   0.229  14.117  0.0340  0.4138  0.8173
 2934TIP3    H130217   6.028   0.136  14.113  0.6734  0.6119 -0.8722
 2934TIP3    H230218   6.089   0.274  14.097 -0.8784  1.2816 -1.2276
 2935TIP3   OH230219   0.604   2.181   2.177 -0.0630 -0.2126  0.3655
 2935TIP3    H130220   0.646   2.098   2.155  0.1502 -0.0566  0.1923
 2935TIP3    H230221   0.575   2.217   2.093 -0.7031 -0.4062  0.4986
 2936TIP3   OH230222   4.538   2.225  13.270  0.0864 -0.0783 -0.1660
 2936TIP3    H130223   4.515   2.311  13.234 -0.2102 -0.0212  0.1507
 2936TIP3    H230224   4.621   2.240  13.315 -0.1653  0.1417  0.2348
 2937TIP3   OH230225   4.777   4.481  10.854 -0.0884 -0.0124  0.3919
 2937TIP3    H130226   4.801   4.574  10.854 -1.4387  0.3524  0.6813
 2937TIP3    H230227   4.687   4.479  10.822 -1.9277 -0.6319  4.8269
 2938TIP3   OH230228   1.769   6.585   5.253 -0.0455  0.4959 -0.1174
 2938TIP3    H130229   1.703   6.543   5.199 -1.4118 -0.2863  2.0471
 2938TIP3    H230230   1.804   6.656   5.198 -1.3531 -0.2190 -1.9626
 2939TIP3   OH230231   0.648   5.811  14.917 -0.0160  0.1440 -0.2316
 2939TIP3    H130232   0.605   5.835  14.999  0.1347 -2.1995  0.6207
 2939TIP3    H230233   0.741   5.829  14.931 -0.1181  0.7352 -0.2975
 2940TIP3   OH230234   2.741   5.111  15.757 -0.0548  0.1881 -0.3202
 2940TIP3    H130235   2.675   5.174  15.728 -0.9697  0.3846  1.9572
 2940TIP3    H230236   2.758   5.134  15.848  1.7743 -1.0626 -0.2909
 2941TIP3   OH230237   5.825   4.727   3.095 -0.2583 -0.4353 -0.3076
 2941TIP3    H130238   5.898   4.732   3.156 -0.8803  0.2226  0.4097
 2941TIP3    H230239   5.847   4.791   3.026 -0.0312 -0.4483 -0.2481
 2942TIP3   OH230240   4.584   6.396  13.636  0.0792 -0.0376 -0.4765
 2942TIP3    H130241   4.611   6.459  13.703  0.5510 -0.0041 -0.6993
 2942TIP3    H230242   4.550   6.451  13.565 -2.0149 -0.0984  0.3853
 2943TIP3   OH230243   1.423   0.192   2.334  0.2755  0.4834 -0.2862
 2943TIP3    H130244   1.444   0.168   2.424 -0.0793 -2.4717 -0.8952
 2943TIP3    H230245   1.389   0.281   2.341 -1.8496 -0.3988  2.8258
 2944TIP3   OH230246   4.897   4.544  11.654 -0.3042 -0.0252  0.6843
 2944TIP3    H130247   4.833   4.573  11.719  0.4132  1.4852  0.7638
 2944TIP3    H230248   4.952   4.621  11.638 -0.6275 -0.2370 -1.9355
 2945TIP3   OH230249   1.865   1.514  16.419 -0.4386  0.4020 -0.7425
 2945TIP3    H130250   1.858   1.597  16.372 -2.3790 -0.1983 -1.6303
 2945TIP3    H230251   1.798   1.458  16.378  0.2607 -1.3246  0.3749
 2946TIP3   OH230252   5.109   2.539   1.178 -0.4203 -0.2517 -0.1941
 2946TIP3    H130253   5.157   2.620   1.193  0.1591 -0.3458 -1.4531
 2946TIP3    H230254   5.062   2.553   1.096 -1.8348 -0.5076  0.5386
 2947TIP3   OH230255   4.155   5.078  17.362 -0.0730  0.4209  0.3229
 2947TIP3    H130256   4.136   5.046  17.451  0.4864  0.1795  0.3578
 2947TIP3    H230257   4.072   5.069  17.315 -1.7978  4.6707  1.9995
 2948TIP3   OH230258   5.111   3.689  11.345 -0.7308 -0.4692  0.0511
 2948TIP3    H130259   5.106   3.741  11.265 -0.5597  0.2725  0.5161
 2948TIP3    H230260   5.122   3.753  11.415 -0.8984 -1.1080  0.6745
 2949TIP3   OH230261   6.111   3.572   0.026  0.0394 -0.0969 -0.0979
 2949TIP3    H130262   6.075   3.493   0.068  2.0689 -0.0559  1.9434
 2949TIP3    H230263   6.144   3.541  -0.058  0.7053 -1.4630  0.6144
 2950TIP3   OH230264   3.474   1.271   4.877 -0.2584  0.2664  0.2487
 2950TIP3    H130265   3.401   1.291   4.936 -0.2920  3.2550 -0.6658
 2950TIP3    H230266   3.432   1.248   4.794 -0.1655 -0.1680  0.3194
 2951TIP3   OH230267   2.998   2.501  11.289  0.5869 -0.6730  0.0616
 2951TIP3    H130268   2.983   2.544  11.373  0.1303  0.0790 -0.4006
 2951TIP3    H230269   3.084   2.459  11.298  1.4201  1.0110  0.2433
 2952TIP3   OH230270   1.698   5.909  17.173  0.8234 -0.7208 -0.1260
 2952TIP3    H130271   1.786   5.914  17.135  0.4269  0.4293 -0.9425
 2952TIP3    H230272   1.679   5.998  17.202  0.1854 -1.1033  0.6474
 2953TIP3   OH230273   5.510   1.372  10.662  0.3013 -0.5359  0.2304
 2953TIP3    H130274   5.500   1.466  10.646 -1.8562 -0.6754  0.4151
 2953TIP3    H230275   5.548   1.367  10.750  2.2685  0.1430 -0.5425
 2954TIP3   OH230276   5.785   1.906   0.659  0.0355  0.1499  0.3052
 2954TIP3    H130277   5.723   1.973   0.690  0.2611  1.3282 -1.6376
 2954TIP3    H230278   5.871   1.938   0.686  0.0008 -0.4211  1.1457
 2955TIP3   OH230279   0.003   6.384  12.815  0.2597  0.2376  0.0785
 2955TIP3    H130280  -0.079   6.358  12.773 -0.9267  1.8127  1.3070
 2955TIP3    H230281   0.018   6.474  12.785  1.4725  0.0382  0.0178
 2956TIP3   OH230282   0.172   3.764  13.055  0.2382 -0.1822 -0.0377
 2956TIP3    H130283   0.250   3.799  13.012  0.5330 -0.9700 -0.1717
 2956TIP3    H230284   0.113   3.742  12.983  0.3775 -0.6884 -0.0011
 2957TIP3   OH230285   0.651   2.293   2.760  0.2283  0.9325  0.6493
 2957TIP3    H130286   0.746   2.296   2.744  0.3057  0.8849  1.0870
 2957TIP3    H230287   0.630   2.199   2.758  0.3083  0.9029  1.2268
 2958TIP3   OH230288   2.394   4.210   3.686  0.1249 -0.4750  0.1969
 2958TIP3    H130289   2.388   4.289   3.740  1.6554 -0.0944 -0.1182
 2958TIP3    H230290   2.354   4.141   3.738 -1.2098  0.4894  0.4936
 2959TIP3   OH230291   5.923   4.324   4.851 -0.0881 -0.1593  0.1243
 2959TIP3    H130292   5.828   4.325   4.845 -0.1233 -0.9466  0.4080
 2959TIP3    H230293   5.943   4.256   4.915  0.6921 -0.8623 -0.8201
 2960TIP3   OH230294   1.132   4.150   1.094  0.1911 -0.3035  0.4369
 2960TIP3    H130295   1.199   4.105   1.042  0.6053 -1.5615  1.9612
 2960TIP3    H230296   1.147   4.119   1.184  0.8044  3.2807  1.7438
 2961TIP3   OH230297   3.917   4.110  16.254 -0.2869  0.1381  0.0349
 2961TIP3    H130298   3.940   4.182  16.313 -0.0385 -1.1141  1.5525
 2961TIP3    H230299   3.911   4.033  16.312 -1.9420 -0.8068 -1.2962
 2962TIP3   OH230300   0.397   1.037  16.742 -0.5109 -0.3616 -0.8168
 2962TIP3    H130301   0.421   1.108  16.801 -1.5622 -1.7496  1.3885
 2962TIP3    H230302   0.341   1.078  16.676 -0.5824  0.9711  0.0518
 2963TIP3   OH230303   3.690   6.449   3.755 -0.2005  0.4193 -0.6942
 2963TIP3    H130304   3.630   6.476   3.824 -0.8115 -0.7970 -0.7317
 2963TIP3    H230305   3.639   6.455   3.674  0.7202  2.5279 -1.1768
 2964TIP3   OH230306   5.043   4.894   4.679  0.5072 -0.1681 -0.7368
 2964TIP3    H130307   5.107   4.927   4.742  1.4827  0.0511 -1.8095
 2964TIP3    H230308   4.987   4.835   4.730  0.4983  0.9345  0.5891
 2965TIP3   OH230309   6.542   6.166   0.565  0.1066 -0.3576  0.3565
 2965TIP3    H130310   6.633   6.136   0.570  0.0630 -0.2664  2.0064
 2965TIP3    H230311   6.500   6.130   0.643 -1.2007 -0.0963 -0.1923
 2966TIP3   OH230312   4.418   1.187  16.783 -0.3533 -0.4516 -0.6523
 2966TIP3    H130313   4.376   1.201  16.698  0.0302  2.0422 -0.4966
 2966TIP3    H230314   4.505   1.154  16.762  0.0230  0.9030 -1.2910
 2967TIP3   OH230315   3.713   5.532   1.674 -0.7866  0.2593 -0.0638
 2967TIP3    H130316   3.676   5.462   1.619 -2.8974  0.1138  1.4135
 2967TIP3    H230317   3.682   5.613   1.634 -0.4266  0.2622 -0.3472
 2968TIP3   OH230318   4.913   1.285  16.094 -0.1266  0.1496 -0.1817
 2968TIP3    H130319   4.830   1.326  16.119 -0.9059 -1.4257 -0.0280
 2968TIP3    H230320   4.891   1.233  16.016  0.8339  0.1052 -0.4273
 2969TIP3   OH230321   4.799   5.713  16.791 -0.3903 -0.2070  0.2041
 2969TIP3    H130322   4.732   5.686  16.728 -0.6881 -1.1176  0.8896
 2969TIP3    H230323   4.751   5.757  16.861 -0.1296  0.2369  0.1074
 2970TIP3   OH230324   1.126   1.566  16.708 -0.7723 -0.0566  0.0576
 2970TIP3    H130325   1.212   1.540  16.675 -0.0825  1.7100  0.3596
 2970TIP3    H230326   1.101   1.495  16.768  1.2656  0.1903  1.3074
 2971TIP3   OH230327   0.874   3.061   6.056  0.5860 -0.1263  0.1754
 2971TIP3    H130328   0.795   3.036   6.104  0.6679  0.8259  0.8383
 2971TIP3    H230329   0.843   3.124   5.990  0.5585 -1.0013 -0.6630
 2972TIP3   OH230330   2.629   2.034   3.849  0.2066 -0.0815  0.0828
 2972TIP3    H130331   2.546   1.986   3.854  0.2762 -0.1106  1.1540
 2972TIP3    H230332   2.623   2.098   3.920  0.6659  0.6353 -0.5032
 2973TIP3   OH230333   3.903   3.909   3.390  0.0967 -0.1983 -0.1176
 2973TIP3    H130334   3.937   3.889   3.477 -0.6017 -0.9906 -0.0134
 2973TIP3    H230335   3.963   3.975   3.355  2.5282 -2.4238 -0.4791
 2974TIP3   OH230336   2.653   1.069  14.658  0.2302  0.0781  0.1299
 2974TIP3    H130337   2.588   1.005  14.688  0.5377 -0.0447  0.5425
 2974TIP3    H230338   2.601   1.134  14.610 -0.0471 -0.6144 -0.5312
 2975TIP3   OH230339   6.073   3.835  11.696  0.0852 -0.1572  0.1671
 2975TIP3    H130340   6.120   3.854  11.615  0.5386 -3.0702 -0.3671
 2975TIP3    H230341   6.034   3.919  11.721  0.9391  1.1170 -2.3743
 2976TIP3   OH230342   0.093   6.411  16.009  0.1424 -0.3663 -0.5379
 2976TIP3    H130343   0.127   6.328  15.977 -0.0797 -0.1631 -1.3394
 2976TIP3    H230344   0.155   6.476  15.976  0.2606 -0.2037  0.0005
 2977TIP3   OH230345   0.238   4.775  13.736  0.2551  0.4726 -0.2691
 2977TIP3    H130346   0.315   4.824  13.710  1.2988 -1.5410 -1.2634
 2977TIP3    H230347   0.171   4.800  13.673  0.6192  0.9861 -0.4528
 2978TIP3   OH230348   1.269   3.199  11.200  0.0987 -0.4719 -0.1841
 2978TIP3    H130349   1.279   3.109  11.233 -0.1403 -0.6998 -0.7220
 2978TIP3    H230350   1.195   3.235  11.248 -0.0481 -0.6958 -0.2419
 2979TIP3   OH230351   5.610   5.700   3.707 -0.6495  0.0769 -0.3081
 2979TIP3    H130352   5.644   5.642   3.639 -0.0612 -0.1289  0.1543
 2979TIP3    H230353   5.517   5.677   3.712 -0.4210 -0.8826 -0.0979
 2980TIP3   OH230354   4.775   2.344   3.270  0.1170  0.9429 -0.1897
 2980TIP3    H130355   4.747   2.383   3.187  0.5105 -0.5840 -1.0795
 2980TIP3    H230356   4.770   2.250   3.255  2.0409  0.6186  0.8870
 2981TIP3   OH230357   4.642   6.536  15.877  0.0313  0.2036 -0.1165
 2981TIP3    H130358   4.685   6.461  15.918  2.0703 -0.7583 -3.7074
 2981TIP3    H230359   4.580   6.497  15.816 -1.6885  1.5876  0.6504
 2982TIP3   OH230360   5.734   0.236   2.554  0.1760  0.2428  0.3173
 2982TIP3    H130361   5.822   0.206   2.576 -0.2505 -1.2280  0.0798
 2982TIP3    H230362   5.687   0.157   2.528 -0.3724  1.3769 -2.4757
 2983TIP3   OH230363   6.306   0.277  14.085  0.3190  0.9898  0.1303
 2983TIP3    H130364   6.400   0.266  14.068  0.4278  0.9508  0.7181
 2983TIP3    H230365   6.290   0.224  14.164 -0.3305  0.4587 -0.3479
 2984TIP3   OH230366   3.679   2.844  11.947 -0.0777 -0.0816  0.3174
 2984TIP3    H130367   3.700   2.782  11.876  0.9460 -0.0835  0.6010
 2984TIP3    H230368   3.734   2.815  12.020 -0.4729  0.4552  0.8301
 2985TIP3   OH230369   3.383   4.107  16.699  0.0043 -0.9453 -0.0792
 2985TIP3    H130370   3.439   4.182  16.718  0.4733 -0.3998 -3.1378
 2985TIP3    H230371   3.442   4.031  16.703  0.3190 -0.7224 -0.4894
 2986TIP3   OH230372   5.856   0.689  11.555 -0.2723  0.1668  0.0782
 2986TIP3    H130373   5.932   0.632  11.568 -0.0346  0.8084  1.6992
 2986TIP3    H230374   5.794   0.660  11.623 -0.5443  1.1612  0.2611
 2987TIP3   OH230375   0.834   6.665   2.983 -0.0961  0.3269  0.1545
 2987TIP3    H130376   0.810   6.643   3.073 -0.5692  0.6914  0.1203
 2987TIP3    H230377   0.798   6.752   2.969  0.8768  0.7124 -0.0449
 2988TIP3   OH230378   4.880   0.645  12.321  0.2401 -0.1365 -0.4718
 2988TIP3    H130379   4.901   0.602  12.404 -1.6335 -0.8459 -0.3145
 2988TIP3    H230380   4.898   0.578  12.255 -0.2021 -0.2890 -0.4448
 2989TIP3   OH230381   0.297   4.510  13.739 -0.4177  0.1772 -0.3958
 2989TIP3    H130382   0.369   4.513  13.676  0.4968  0.7517  0.6582
 2989TIP3    H230383   0.273   4.601  13.753 -0.4839  0.0634  0.2402
 2990TIP3   OH230384   1.185   4.292  12.671  0.3891 -0.3762 -0.6208
 2990TIP3    H130385   1.193   4.300  12.766  1.6394  0.1234 -0.7489
 2990TIP3    H230386   1.248   4.356  12.637 -0.0096 -0.5948 -1.7827
 2991TIP3   OH230387   1.726   5.076  15.738  0.0932 -0.5043 -0.2052
 2991TIP3    H130388   1.793   5.074  15.669  2.0370  0.0734  1.5651
 2991TIP3    H230389   1.682   4.992  15.731  0.4740 -0.6087 -1.8957
 2992TIP3   OH230390   4.086   5.931  15.509 -0.0292  0.0081  0.5888
 2992TIP3    H130391   4.157   5.867  15.501 -1.2767 -1.6254  1.7616
 2992TIP3    H230392   4.084   5.976  15.424  0.8646 -1.5527 -0.3089
 2993TIP3   OH230393   4.603   6.204   3.968 -0.5153 -0.2297 -0.2921
 2993TIP3    H130394   4.565   6.266   4.030  1.8655 -0.0642  1.1251
 2993TIP3    H230395   4.563   6.226   3.884 -1.9833  1.1891  0.7082
 2994TIP3   OH230396   0.669   2.430  15.775  1.0614 -0.1918  0.4431
 2994TIP3    H130397   0.639   2.342  15.752 -2.1391  0.9461 -0.3071
 2994TIP3    H230398   0.684   2.473  15.690 -0.4955  0.8571  0.6491
 2995TIP3   OH230399   2.426   0.700  12.649  0.0680 -0.1499 -0.0472
 2995TIP3    H130400   2.440   0.782  12.698  0.1388 -1.0299  1.4639
 2995TIP3    H230401   2.514   0.674  12.622  0.2365 -0.5291  0.8384
 2996TIP3   OH230402   2.999   4.660  16.966  0.4740  0.3746 -0.2856
 2996TIP3    H130403   2.914   4.653  16.923  0.1885 -1.2339  0.4827
 2996TIP3    H230404   3.003   4.586  17.025  3.2982 -0.8866 -1.8283
 2997TIP3   OH230405   1.985   5.529  13.128 -0.0711  0.4541 -0.4867
 2997TIP3    H130406   1.895   5.528  13.094 -0.9770 -1.2110  1.6736
 2997TIP3    H230407   2.036   5.483  13.062 -0.9978  0.5819 -1.3136
 2998TIP3   OH230408   4.262   5.924   5.563 -0.0691 -0.0957  0.5053
 2998TIP3    H130409   4.350   5.940   5.597  0.5563 -1.1663 -0.5378
 2998TIP3    H230410   4.271   5.845   5.510 -1.3762  0.5082 -0.6751
 2999TIP3   OH230411   6.087   2.636   4.652  0.2528 -0.3456 -0.6774
 2999TIP3    H130412   6.166   2.644   4.707  0.2251 -1.6755 -0.4067
 2999TIP3    H230413   6.035   2.713   4.674  0.5884 -0.4605  0.6275
 3000TIP3   OH230414   1.353   6.351   4.782  0.1776 -0.0252  0.5808
 3000TIP3    H130415   1.379   6.344   4.874  1.7193 -0.9864  0.1011
 3000TIP3    H230416   1.405   6.285   4.737  0.3384  1.2453 -1.1848
 3001TIP3   OH230417   6.443   4.990  11.053  0.3444 -0.0785  0.0044
 3001TIP3    H130418   6.358   4.993  11.097 -0.3162 -1.2783 -1.1066
 3001TIP3    H230419   6.435   5.052  10.981 -0.3150 -1.5394 -1.2384
 3002TIP3   OH230420   4.344   5.285  11.511  0.0492  0.4298  0.1427
 3002TIP3    H130421   4.435   5.281  11.480  0.3071  1.7227  0.6584
 3002TIP3    H230422   4.295   5.231  11.449  0.9866  0.6691 -0.8401
 3003TIP3   OH230423   1.693   1.998   0.472  0.0526 -0.1629 -0.4432
 3003TIP3    H130424   1.668   1.906   0.481  0.4475 -0.1826  0.5232
 3003TIP3    H230425   1.751   2.015   0.546 -2.6298  1.7649  1.3859
 3004TIP3   OH230426   3.479   2.855  10.883 -0.2848  0.0220 -0.4431
 3004TIP3    H130427   3.392   2.845  10.922 -0.0564  0.0226  0.0685
 3004TIP3    H230428   3.462   2.894  10.797 -0.7455  0.6026 -0.0908
 3005TIP3   OH230429   2.936   3.859   0.197 -0.7288  0.2271 -0.4416
 3005TIP3    H130430   2.905   3.949   0.191 -0.3848  0.3053 -1.1181
 3005TIP3    H230431   3.028   3.864   0.172 -1.0395 -0.5081 -1.8159
 3006TIP3   OH230432   5.761   6.526  12.337 -0.6746  0.0903  0.4519
 3006TIP3    H130433   5.683   6.583  12.338 -1.1145 -0.3452 -2.0063
 3006TIP3    H230434   5.765   6.489  12.425 -1.5904  2.2996  1.4965
 3007TIP3   OH230435   5.291   2.654   4.690  0.8384  0.0794  0.1126
 3007TIP3    H130436   5.303   2.654   4.595  0.2750 -0.4357  0.0360
 3007TIP3    H230437   5.234   2.579   4.707 -0.1387  0.9459  0.7178
 3008TIP3   OH230438   6.240   2.086  15.092  0.0175  0.5724  0.0663
 3008TIP3    H130439   6.189   2.133  15.158 -0.1302  0.3024  0.1478
 3008TIP3    H230440   6.190   2.097  15.011  0.1959  0.8987 -0.0022
 3009TIP3   OH230441   1.357   1.963  12.780  0.2566 -0.0178 -0.0584
 3009TIP3    H130442   1.429   1.989  12.722  2.3991 -2.2731  1.4011
 3009TIP3    H230443   1.313   1.893  12.733  0.0534  0.2238 -0.2326
 3010TIP3   OH230444   2.013   1.278  13.254 -0.5492  0.0254  0.1079
 3010TIP3    H130445   2.003   1.372  13.268 -1.1769  0.3723 -2.2287
 3010TIP3    H230446   1.925   1.242  13.264 -0.6537 -0.0031 -0.8000
 3011TIP3   OH230447   5.622   5.092  11.533  0.0750 -0.0377 -0.2482
 3011TIP3    H130448   5.699   5.134  11.494  0.0285  1.5949  1.3036
 3011TIP3    H230449   5.548   5.142  11.498  0.0406  1.5520  1.8893
 3012TIP3   OH230450   0.318   4.835  17.131 -0.1488 -0.1559 -0.1753
 3012TIP3    H130451   0.356   4.911  17.175 -1.0616 -0.5955  1.4832
 3012TIP3    H230452   0.227   4.834  17.161 -0.1853 -1.8246 -0.2483
 3013TIP3   OH230453   3.161   3.275   0.151  0.2837 -0.1611  0.2042
 3013TIP3    H130454   3.100   3.332   0.198 -1.1990 -1.4029 -0.1423
 3013TIP3    H230455   3.177   3.321   0.069 -2.2700 -0.9379 -0.8367
 3014TIP3   OH230456   1.045   4.631   6.185  0.5810  0.5718  0.5967
 3014TIP3    H130457   1.034   4.584   6.267  1.4330 -1.0638 -0.1872
 3014TIP3    H230458   0.956   4.644   6.152  0.3346 -0.7779  0.6902
 3015TIP3   OH230459   5.252   2.660  16.651  0.3762 -0.1225 -0.2969
 3015TIP3    H130460   5.281   2.735  16.599 -0.8786  0.3909 -0.3025
 3015TIP3    H230461   5.261   2.688  16.742  1.5495 -0.6250 -0.2421
 3016TIP3   OH230462   5.571   6.206  17.253 -0.6185 -0.1197  0.3136
 3016TIP3    H130463   5.615   6.274  17.304  3.3373  0.0304 -2.7453
 3016TIP3    H230464   5.561   6.132  17.313  0.6052  1.1461  2.1547
 3017TIP3   OH230465   1.556   4.062  13.408 -0.0540 -0.1907  0.7084
 3017TIP3    H130466   1.489   4.096  13.468 -1.1762 -0.0322 -0.5892
 3017TIP3    H230467   1.575   4.136  13.350  0.8266 -0.4175  0.7085
 3018TIP3   OH230468   4.603   1.744  15.687  0.8067  0.5703 -0.5240
 3018TIP3    H130469   4.529   1.717  15.633  1.2388 -0.0489 -0.8156
 3018TIP3    H230470   4.570   1.819  15.737 -0.3477 -0.3113  0.1016
 3019TIP3   OH230471   6.222   4.290   4.552  0.1372  0.5442 -0.0177
 3019TIP3    H130472   6.301   4.275   4.500 -0.6431 -0.3939 -0.9997
 3019TIP3    H230473   6.232   4.378   4.588  2.2576 -0.0683  1.0332
 3020TIP3   OH230474   4.474   4.601   1.385 -0.6988  0.5478  0.1052
 3020TIP3    H130475   4.449   4.649   1.306 -0.8365 -0.4479 -0.4713
 3020TIP3    H230476   4.462   4.509   1.362  0.3591  0.1929  0.9135
 3021TIP3   OH230477   1.332   2.092  11.845 -0.2377  0.0748 -0.3699
 3021TIP3    H130478   1.283   2.158  11.895 -0.2938 -0.1212 -0.1683
 3021TIP3    H230479   1.329   2.013  11.899  0.1459  0.0101 -0.4430
 3022TIP3   OH230480   4.645   6.261  11.973  0.4249  0.6560 -0.2131
 3022TIP3    H130481   4.602   6.175  11.968  1.3224  0.2347 -1.3947
 3022TIP3    H230482   4.597   6.308  12.040  1.8503 -1.8665  2.8417
 3023TIP3   OH230483   0.413   1.949  13.016  0.3612  0.6955 -0.4782
 3023TIP3    H130484   0.362   1.928  13.094  2.1202 -0.7379  0.3564
 3023TIP3    H230485   0.405   1.872  12.960  0.4280  1.0547 -0.9904
 3024TIP3   OH230486   6.630   1.935   2.331 -0.1505  0.3441  0.1539
 3024TIP3    H130487   6.701   1.876   2.356 -0.5219 -0.4431 -0.5768
 3024TIP3    H230488   6.561   1.919   2.395 -0.2409 -0.0163 -0.0288
 3025TIP3   OH230489   0.847   5.176  16.229 -0.0895  0.1572  0.0220
 3025TIP3    H130490   0.775   5.158  16.290 -0.5884 -2.6738 -1.1912
 3025TIP3    H230491   0.877   5.263  16.252 -3.0030  0.9184  1.5118
 3026TIP3   OH230492   6.704   1.723  12.342 -0.0036 -0.0057  0.3539
 3026TIP3    H130493   6.674   1.702  12.254  2.8302  2.1480 -1.2835
 3026TIP3    H230494   6.631   1.771  12.382 -0.9189 -0.0303 -1.2224
 3027TIP3   OH230495   6.587   0.757  15.571  0.2954 -0.6261 -0.0776
 3027TIP3    H130496   6.601   0.667  15.601 -1.1564 -1.3638 -1.4204
 3027TIP3    H230497   6.674   0.793  15.562  0.9536 -2.1797 -0.2710
 3028TIP3   OH230498   3.756   0.914  17.005 -0.0345  0.4485  0.1449
 3028TIP3    H130499   3.759   0.856  16.929  0.2538  0.0698  0.4380
 3028TIP3    H230500   3.671   0.896  17.046  0.0623  0.2167  0.2460
 3029TIP3   OH230501   1.699   5.167   5.771  0.1587  0.8793  0.0124
 3029TIP3    H130502   1.684   5.258   5.747 -0.7043  0.4284 -1.2598
 3029TIP3    H230503   1.690   5.166   5.866 -1.1917  1.8965 -0.0695
 3030TIP3   OH230504   5.046   4.405  12.909 -0.3522 -0.5457  0.3845
 3030TIP3    H130505   5.049   4.362  12.995  1.6058 -2.7791 -0.6583
 3030TIP3    H230506   5.138   4.419  12.887 -0.8110 -0.2732 -1.4568
 3031TIP3   OH230507   0.832   1.970  10.809  0.0044 -0.7206 -0.4985
 3031TIP3    H130508   0.893   2.003  10.743  0.9944 -0.5061  0.4911
 3031TIP3    H230509   0.886   1.917  10.868 -0.3094  1.0948  1.5753
 3032TIP3   OH230510   1.211   1.748  11.726  0.0837  0.5641  0.0513
 3032TIP3    H130511   1.305   1.734  11.732  0.2266  0.2018 -2.2597
 3032TIP3    H230512   1.202   1.837  11.691 -0.4732  0.9214  1.0672
 3033TIP3   OH230513   1.303   2.436   3.547 -0.5433  0.5008  0.0942
 3033TIP3    H130514   1.331   2.487   3.623  0.7421  1.1024 -0.7500
 3033TIP3    H230515   1.274   2.353   3.584  1.2970  0.2847  1.1418
 3034TIP3   OH230516   2.588   6.169  13.118 -0.6642 -0.6535  0.1890
 3034TIP3    H130517   2.652   6.199  13.053  0.0037 -2.2080  0.0867
 3034TIP3    H230518   2.503   6.185  13.078 -0.3010 -0.0710 -0.3613
 3035TIP3   OH230519   2.304   2.878   0.744  0.6245  0.2972 -0.1967
 3035TIP3    H130520   2.262   2.920   0.669  0.5107 -0.2588 -0.4467
 3035TIP3    H230521   2.305   2.785   0.722 -3.1001 -0.5265  2.1576
 3036TIP3   OH230522   5.728   3.795  12.847 -0.0490  0.2031  0.5221
 3036TIP3    H130523   5.714   3.869  12.905 -1.0647 -0.0092  0.5602
 3036TIP3    H230524   5.729   3.719  12.905  1.5816  0.2217  0.5563
 3037TIP3   OH230525   3.278   4.582   1.929 -0.3762  0.7365  0.3385
 3037TIP3    H130526   3.326   4.553   2.006  0.8781  1.4327 -0.1449
 3037TIP3    H230527   3.335   4.558   1.855 -1.4720  0.2291 -0.3744
 3038TIP3   OH230528   4.257   3.298  11.306 -0.2248  0.2876 -0.1890
 3038TIP3    H130529   4.299   3.383  11.309  2.1132 -0.7408 -1.2592
 3038TIP3    H230530   4.167   3.317  11.280  0.6451  2.3492 -2.0359
 3039TIP3   OH230531   0.963   2.637  12.604 -0.5450 -0.3580  0.8094
 3039TIP3    H130532   0.926   2.711  12.652  0.4405  1.7225 -1.4282
 3039TIP3    H230533   1.021   2.593  12.667 -1.0793  0.8163  2.1682
 3040TIP3   OH230534   5.769   1.686  12.823  0.1021 -0.3899 -0.2069
 3040TIP3    H130535   5.771   1.781  12.834  1.0997 -0.3796 -0.4496
 3040TIP3    H230536   5.851   1.664  12.779 -1.6916 -0.9127 -3.6679
 3041TIP3   OH230537   5.386   6.158  14.931  0.5799  0.2134 -0.1574
 3041TIP3    H130538   5.304   6.156  14.981 -0.4431 -0.7464 -1.7599
 3041TIP3    H230539   5.434   6.081  14.962  0.5754  0.3967  0.3122
 3042TIP3   OH230540   4.131   2.749  12.160 -0.2957 -0.1697  0.7764
 3042TIP3    H130541   4.149   2.657  12.178 -0.6994 -0.5024 -0.4363
 3042TIP3    H230542   4.188   2.771  12.086 -2.1432 -0.2349 -0.7357
 3043TIP3   OH230543   1.993   4.948  10.891  0.0010 -0.1491 -1.0013
 3043TIP3    H130544   2.042   5.012  10.943  0.1128 -1.0777  0.0784
 3043TIP3    H230545   1.904   4.953  10.925 -0.0579 -0.3530 -1.1245
 3044TIP3   OH230546   5.817   5.704   1.875  0.3643 -0.7295 -0.0155
 3044TIP3    H130547   5.906   5.668   1.865  0.0560 -1.0959 -1.6887
 3044TIP3    H230548   5.761   5.645   1.826 -0.9589 -0.9125  1.6098
 3045TIP3   OH230549   2.538   5.603   2.392 -1.2695  0.2465  0.0031
 3045TIP3    H130550   2.600   5.530   2.384 -2.0281 -0.3135 -0.9655
 3045TIP3    H230551   2.467   5.568   2.446 -1.5856  0.3039 -0.3794
 3046TIP3   OH230552   1.388   3.214  16.436 -0.1593  0.0551 -0.0266
 3046TIP3    H130553   1.389   3.208  16.531  1.4022  1.8127  0.1282
 3046TIP3    H230554   1.479   3.200  16.410 -0.7697 -1.8344 -1.4314
 3047TIP3   OH230555   1.350   3.530   2.750 -0.6903 -0.0762  0.1494
 3047TIP3    H130556   1.442   3.558   2.753 -0.0602 -1.8354 -1.2560
 3047TIP3    H230557   1.334   3.492   2.837  0.3078 -0.8855  0.0001
 3048TIP3   OH230558   1.210   2.494  16.356  0.0009  0.1562 -0.4244
 3048TIP3    H130559   1.181   2.547  16.282 -0.9368 -1.0635 -0.9711
 3048TIP3    H230560   1.306   2.501  16.355 -0.0565  1.0342 -1.0613
 3049TIP3   OH230561   4.114   5.095   3.315  0.0632  0.7892  0.1888
 3049TIP3    H130562   4.031   5.133   3.342 -0.5726 -0.6051  0.2952
 3049TIP3    H230563   4.113   5.006   3.351  1.4411  0.6176 -0.1170
 3050TIP3   OH230564   2.767   2.622   0.537 -0.2350 -0.0403 -0.4193
 3050TIP3    H130565   2.806   2.601   0.452  0.7541  0.2299 -0.0378
 3050TIP3    H230566   2.827   2.685   0.577 -1.7163  1.4089 -0.3545
 3051TIP3   OH230567   5.606   0.474   0.349 -0.3145  0.0724  0.4725
 3051TIP3    H130568   5.605   0.560   0.391  2.7908  0.1788  0.6142
 3051TIP3    H230569   5.642   0.490   0.262 -1.7446 -0.8278 -0.3127
 3052TIP3   OH230570   4.586   2.995   4.171  0.1679 -0.0803 -0.3756
 3052TIP3    H130571   4.674   2.984   4.135  0.5706  1.0098  0.2179
 3052TIP3    H230572   4.563   2.910   4.207  1.4014 -0.1263  0.3570
 3053TIP3   OH230573   2.562   4.520  12.382  0.1661 -0.0863  0.4606
 3053TIP3    H130574   2.652   4.489  12.375  0.1450 -0.3808  1.3055
 3053TIP3    H230575   2.558   4.597  12.325  0.1027 -1.8190 -2.0183
 3054TIP3   OH230576   5.729   6.431   5.266 -0.4055 -0.4751 -0.2924
 3054TIP3    H130577   5.823   6.422   5.252  0.1800  0.7361  2.3126
 3054TIP3    H230578   5.698   6.341   5.279  0.6243 -0.7949  0.0763
 3055TIP3   OH230579   2.674   4.165   1.466 -0.4328  0.0057 -0.0848
 3055TIP3    H130580   2.715   4.214   1.395 -0.6532 -0.1492 -0.3178
 3055TIP3    H230581   2.687   4.073   1.442  0.2791 -0.0592  0.5164
 3056TIP3   OH230582   1.411   4.973   4.710  0.8248 -0.0731 -0.0213
 3056TIP3    H130583   1.383   5.064   4.707  1.4039  0.0843 -1.6752
 3056TIP3    H230584   1.452   4.957   4.625  1.5300 -1.6261  0.5585
 3057TIP3   OH230585   6.046   3.396  16.419  0.8004  0.3698  0.6397
 3057TIP3    H130586   6.030   3.393  16.325  1.4039  0.8149  0.5186
 3057TIP3    H230587   5.965   3.432  16.456  0.6987  0.5332  0.2596
 3058TIP3   OH230588   5.795   2.463  10.767 -0.1631 -0.4444  0.0958
 3058TIP3    H130589   5.738   2.429  10.698 -0.9364 -0.4183  0.6972
 3058TIP3    H230590   5.775   2.557  10.770 -0.8743 -0.6072  1.0043
 3059TIP3   OH230591   3.678   6.360   0.552  0.2392 -0.3783 -0.0472
 3059TIP3    H130592   3.718   6.439   0.589 -1.0076 -0.3754  1.3537
 3059TIP3    H230593   3.635   6.390   0.472  1.3209 -0.0242 -0.5309
 3060TIP3   OH230594   3.793   4.255   5.132 -0.4940  0.3080 -0.2945
 3060TIP3    H130595   3.819   4.346   5.124  0.8628  0.2566  2.3636
 3060TIP3    H230596   3.757   4.248   5.220  1.6589 -2.1309  0.5407
 3061TIP3   OH230597   6.184   0.879  15.166 -0.4768 -0.2985  0.2151
 3061TIP3    H130598   6.217   0.790  15.159 -1.5431 -0.6386 -0.7768
 3061TIP3    H230599   6.233   0.917  15.239 -0.2087 -1.7738  0.8373
 3062TIP3   OH230600   2.737   3.288   0.682  0.2224 -0.0150 -0.6265
 3062TIP3    H130601   2.679   3.349   0.728 -0.8868 -0.4426 -1.4033
 3062TIP3    H230602   2.736   3.319   0.591  0.5217 -0.5490 -0.8144
 3063TIP3   OH230603   6.048   1.195   4.211 -0.2749 -0.0640 -0.2760
 3063TIP3    H130604   6.100   1.176   4.133 -1.9343 -0.2409 -1.3777
 3063TIP3    H230605   6.045   1.290   4.215 -3.2323  0.0832 -2.6554
 3064TIP3   OH230606   6.426   1.209  15.484  0.7204 -0.2067  0.5897
 3064TIP3    H130607   6.513   1.233  15.452  0.8717 -1.2003  0.2240
 3064TIP3    H230608   6.434   1.210  15.579  1.3723 -1.0670  0.5594
 3065TIP3   OH230609   6.323   6.378   3.463 -0.2418 -0.5567 -0.0567
 3065TIP3    H130610   6.384   6.443   3.428  1.8850 -2.0578  0.6699
 3065TIP3    H230611   6.307   6.406   3.553 -0.0885 -0.5115 -0.0433
 3066TIP3   OH230612   4.561   0.633  13.456  0.0230  0.7515 -0.1125
 3066TIP3    H130613   4.614   0.600  13.528 -0.4031 -2.6235 -1.1574
 3066TIP3    H230614   4.624   0.656  13.388  0.2971  0.9550  0.2104
 3067TIP3   OH230615   1.478   6.288  13.015 -0.2392 -0.4901  0.3070
 3067TIP3    H130616   1.548   6.226  13.040  1.3056  0.4779 -1.3876
 3067TIP3    H230617   1.512   6.373  13.042 -1.2478 -0.1043  0.3814
 3068TIP3   OH230618   5.393   2.024  15.142 -0.0040  0.1250 -0.0506
 3068TIP3    H130619   5.404   1.929  15.135  0.8374  0.2547 -0.6591
 3068TIP3    H230620   5.313   2.043  15.092  0.3420 -0.1607 -0.7229
 3069TIP3   OH230621   2.919   4.306   0.183 -0.4630 -0.0605 -0.2321
 3069TIP3    H130622   2.860   4.230   0.188  0.0969 -0.4362  1.0480
 3069TIP3    H230623   3.005   4.272   0.208 -0.5173  1.2916  2.1943
 3070TIP3   OH230624   5.038   3.482   0.708  0.0943  0.4709 -0.2672
 3070TIP3    H130625   5.100   3.540   0.752  0.2687 -1.9565  3.0698
 3070TIP3    H230626   5.087   3.445   0.635  1.9036  0.2484  0.9980
 3071TIP3   OH230627   0.691   3.950   1.330 -0.2649 -0.1228  0.0245
 3071TIP3    H130628   0.738   4.017   1.280  2.6932 -0.2209  2.3945
 3071TIP3    H230629   0.750   3.875   1.330 -2.1628 -1.6847  0.0314
 3072TIP3   OH230630   0.453   3.302   0.400  0.1306  0.2755  0.2832
 3072TIP3    H130631   0.478   3.209   0.401 -0.9203 -0.0130  0.5558
 3072TIP3    H230632   0.445   3.323   0.307  0.5275  0.1393  0.2153
 3073TIP3   OH230633   1.209   4.802   0.486  0.1523  0.4016 -0.0269
 3073TIP3    H130634   1.267   4.784   0.559 -1.5160 -1.2932  0.9776
 3073TIP3    H230635   1.122   4.807   0.525 -0.9822 -1.8295 -1.9665
 3074TIP3   OH230636   0.550   2.920   2.838 -0.3950  0.4271  0.0897
 3074TIP3    H130637   0.534   2.902   2.745  1.6761  1.0840 -0.4424
 3074TIP3    H230638   0.475   2.974   2.864 -1.0109  0.2550 -1.1980
 3075TIP3   OH230639   3.961   2.873   2.153 -0.8174 -0.2348 -0.0538
 3075TIP3    H130640   3.998   2.815   2.219  0.3570 -0.0990 -0.5651
 3075TIP3    H230641   4.009   2.852   2.073 -1.8020  0.0183 -0.7290
 3076TIP3   OH230642   3.414   2.934   0.689 -0.1202 -0.4142  0.1695
 3076TIP3    H130643   3.348   2.957   0.623 -0.5836 -1.1220  0.3828
 3076TIP3    H230644   3.380   2.855   0.731  0.8854 -0.8065  0.2574
 3077TIP3   OH230645   6.578   2.501   3.692  0.1297 -0.0745  0.2754
 3077TIP3    H130646   6.525   2.550   3.754  2.0285 -0.1794  2.0799
 3077TIP3    H230647   6.617   2.568   3.636 -1.0490  0.0688 -0.4100
 3078TIP3   OH230648   5.864   3.995  15.339  0.2997 -0.3534 -0.6756
 3078TIP3    H130649   5.871   3.907  15.304  2.4123 -0.9155  0.9431
 3078TIP3    H230650   5.886   3.986  15.432 -0.5857  1.7183 -0.1985
 3079TIP3   OH230651   1.688   3.202  16.473  0.4962  0.5204  0.3447
 3079TIP3    H130652   1.768   3.151  16.480  0.2892  0.3410  1.6868
 3079TIP3    H230653   1.717   3.293  16.481  0.6949  0.5448 -0.5165
 3080TIP3   OH230654   6.121   2.013  12.489 -0.1444  1.0598 -0.0722
 3080TIP3    H130655   6.188   1.980  12.549  0.0364 -0.1253 -0.8917
 3080TIP3    H230656   6.143   2.105  12.477  1.3775  0.6824 -0.3576
 3081TIP3   OH230657   2.648   0.564   2.664  0.5512 -0.6356  0.0769
 3081TIP3    H130658   2.557   0.553   2.635  0.6995  1.5858 -1.5877
 3081TIP3    H230659   2.700   0.537   2.589  1.3203 -2.2980  1.1762
 3082TIP3   OH230660   3.649   4.577  14.366  0.0901  0.0425  1.0961
 3082TIP3    H130661   3.626   4.615  14.282  0.9831  2.1446  1.7541
 3082TIP3    H230662   3.565   4.568  14.412 -0.1517  1.2408  0.9152
 3083TIP3   OH230663   2.197   1.721  16.231  0.0329 -0.9679  0.1690
 3083TIP3    H130664   2.129   1.753  16.171  1.3574  0.6660 -0.5605
 3083TIP3    H230665   2.189   1.778  16.308  1.9093  0.7449 -0.8153
 3084TIP3   OH230666   0.360   1.116   2.458 -0.6053 -0.0246 -0.1995
 3084TIP3    H130667   0.412   1.075   2.389 -0.6961  0.0532 -0.3140
 3084TIP3    H230668   0.357   1.050   2.528 -1.5050 -0.5873 -0.7368
 3085TIP3   OH230669   2.525   1.800  15.646  0.5874  0.0579 -0.2128
 3085TIP3    H130670   2.447   1.834  15.603 -0.0858  1.6674  2.0896
 3085TIP3    H230671   2.595   1.811  15.582 -0.6010  1.0578 -1.3841
 3086TIP3   OH230672   6.397   0.033  12.697 -0.1207  0.0644  0.1413
 3086TIP3    H130673   6.430  -0.051  12.729 -1.0368 -0.3784 -0.0248
 3086TIP3    H230674   6.372   0.081  12.775 -0.7608 -0.3304  0.1885
 3087TIP3   OH230675   5.362   6.035   0.072  0.4410  0.2701 -0.2393
 3087TIP3    H130676   5.413   5.964   0.111  2.5656  2.5265  1.3893
 3087TIP3    H230677   5.278   5.995   0.050  0.5921 -2.1445  2.9249
 3088TIP3   OH230678   6.207   2.045   3.684  0.0830  0.7989  0.1565
 3088TIP3    H130679   6.181   2.113   3.746 -1.8711  2.7361 -2.5648
 3088TIP3    H230680   6.296   2.070   3.657 -0.8826  2.8453 -1.3720
 3089TIP3   OH230681   3.425   0.241  14.416 -0.7080  0.0165 -0.0858
 3089TIP3    H130682   3.440   0.325  14.459 -1.3556 -0.7881  1.8561
 3089TIP3    H230683   3.335   0.218  14.441 -0.5099 -1.2785 -0.4855
 3090TIP3   OH230684   1.800   0.546   5.126 -0.2205  0.2561 -0.0498
 3090TIP3    H130685   1.786   0.498   5.208 -1.6407  2.0417  0.8166
 3090TIP3    H230686   1.888   0.582   5.134  0.0079 -0.3555  0.2685
 3091TIP3   OH230687   2.971   5.528  14.083 -0.4289 -0.1036  0.4369
 3091TIP3    H130688   3.057   5.523  14.040 -0.2658  1.6812  0.5152
 3091TIP3    H230689   2.990   5.514  14.176 -0.3072 -0.2380  0.3937
 3092TIP3   OH230690   1.665   1.257   5.637  0.2663 -0.1585 -0.3486
 3092TIP3    H130691   1.663   1.185   5.700  2.7462 -0.6524 -0.7595
 3092TIP3    H230692   1.663   1.215   5.551 -1.9224  0.4742 -0.6935
 3093TIP3   OH230693   5.271   6.164   4.888  0.3761  0.1003  0.3813
 3093TIP3    H130694   5.184   6.160   4.930  0.6677  0.0680  0.9988
 3093TIP3    H230695   5.253   6.193   4.799 -0.5407 -2.4121 -0.3320
 3094TIP3   OH230696   2.907   0.935   3.431 -0.5312  0.3740  0.6687
 3094TIP3    H130697   2.838   0.890   3.383 -0.8912  2.3654 -0.8050
 3094TIP3    H230698   2.987   0.886   3.411 -0.9941  0.0353 -0.4308
 3095TIP3   OH230699   1.653   1.197   5.355  0.1643  0.0248 -0.2953
 3095TIP3    H130700   1.716   1.219   5.287  0.6585 -1.4066 -0.3156
 3095TIP3    H230701   1.619   1.111   5.330 -1.3572  0.5009  0.0345
 3096TIP3   OH230702   2.737   1.988  15.816  0.2144  0.0220 -0.2838
 3096TIP3    H130703   2.789   2.067  15.827  0.4818 -0.2412  0.3891
 3096TIP3    H230704   2.734   1.974  15.721 -0.2256  1.0860 -0.4459
 3097TIP3   OH230705   6.192   0.532   5.568  0.0350  0.0564 -0.5219
 3097TIP3    H130706   6.270   0.559   5.617 -0.5120  1.8089 -0.5440
 3097TIP3    H230707   6.129   0.602   5.584 -0.9515 -0.4906 -1.8778
 3098TIP3   OH230708   6.427   2.437   5.831  0.4681  0.2628  0.1747
 3098TIP3    H130709   6.359   2.494   5.794 -1.0870 -1.5737  0.0682
 3098TIP3    H230710   6.476   2.407   5.755  0.0060 -0.1054  0.0147
 3099TIP3   OH230711   2.997   2.613  13.993 -0.1575 -0.1391 -0.0724
 3099TIP3    H130712   3.044   2.531  14.008 -0.0581 -0.1166 -0.2575
 3099TIP3    H230713   2.922   2.609  14.053  0.4628  0.1418  0.7525
 3100TIP3   OH230714   4.210   0.183   4.106 -0.0319 -0.1217 -0.6765
 3100TIP3    H130715   4.263   0.263   4.113 -1.7128  1.2425 -2.5762
 3100TIP3    H230716   4.250   0.134   4.035 -0.5354  0.3083 -1.2672
 3101TIP3   OH230717   6.205   4.057   3.813  0.3429 -0.0190  0.1238
 3101TIP3    H130718   6.111   4.067   3.821  0.3349  1.7724 -1.6064
 3101TIP3    H230719   6.238   4.145   3.794  2.0736 -0.9423 -1.5756
 3102TIP3   OH230720   2.885   1.635   3.295  0.2553  0.0569 -0.1021
 3102TIP3    H130721   2.977   1.617   3.274  0.6898  2.9071 -1.0584
 3102TIP3    H230722   2.886   1.657   3.388  0.2561 -1.3461  0.2514
 3103TIP3   OH230723   5.526   0.083   0.746 -0.0412 -0.6798 -0.1844
 3103TIP3    H130724   5.431   0.087   0.757  0.0749  1.5932  0.7246
 3103TIP3    H230725   5.561   0.104   0.833  1.3391 -2.0735 -0.3431
 3104TIP3   OH230726   2.446   1.340  10.599 -0.1427 -0.3121  0.7062
 3104TIP3    H130727   2.359   1.338  10.559 -0.5102  0.1436  1.4583
 3104TIP3    H230728   2.504   1.298  10.534 -0.6608  0.6618 -0.4118
 3105TIP3   OH230729   1.400   6.022   5.511  0.3592  0.2937  0.1896
 3105TIP3    H130730   1.450   5.955   5.557  1.9985 -0.4657 -2.4952
 3105TIP3    H230731   1.341   5.973   5.454 -1.1780  1.2107  0.9197
 3106TIP3   OH230732   2.386   4.919   1.249  0.2028 -0.3190 -0.5077
 3106TIP3    H130733   2.357   4.860   1.179  1.4204  0.0282 -1.3406
 3106TIP3    H230734   2.391   4.863   1.327 -2.2184 -0.4682 -0.4031
 3107TIP3   OH230735   5.369   1.784  16.885 -0.1922 -0.3578  0.3534
 3107TIP3    H130736   5.363   1.765  16.791  1.1248 -3.2174  0.7294
 3107TIP3    H230737   5.351   1.878  16.892  0.8584  0.2212 -2.8885
 3108TIP3   OH230738   4.129   3.101   1.303 -0.9203 -0.5014  0.0957
 3108TIP3    H130739   4.189   3.164   1.264 -0.9622  0.3517  1.3711
 3108TIP3    H230740   4.067   3.081   1.233  0.2663 -0.6805 -0.9503
 3109TIP3   OH230741   5.652   0.525  13.228  0.0071 -0.0079 -0.1835
 3109TIP3    H130742   5.700   0.487  13.302 -1.2397  0.7574  1.0806
 3109TIP3    H230743   5.688   0.613  13.219  0.1945 -0.1191 -0.5359
 3110TIP3   OH230744   6.318   5.654   0.063  0.0745 -0.5586  0.2979
 3110TIP3    H130745   6.284   5.595   0.130 -0.0031 -0.7898  0.0553
 3110TIP3    H230746   6.394   5.608   0.027  1.5738  0.5742  1.8415
 3111TIP3   OH230747   3.114   4.760   6.326 -0.0755 -0.5685 -0.6146
 3111TIP3    H130748   3.149   4.848   6.309 -1.6264  0.5915  1.5968
 3111TIP3    H230749   3.045   4.749   6.261 -1.0377  0.6388  0.1622
 3112TIP3   OH230750   4.802   5.080  10.873  0.2468 -0.0195 -0.5135
 3112TIP3    H130751   4.873   5.028  10.834  1.8922  2.6327 -1.2894
 3112TIP3    H230752   4.722   5.045  10.834  1.4401 -0.6696 -2.5368
 3113TIP3   OH230753   3.940   1.965   2.513  0.6675 -0.1180  0.0344
 3113TIP3    H130754   3.960   2.058   2.503  0.4574  0.1716  1.8108
 3113TIP3    H230755   3.849   1.963   2.541  1.2384 -0.6705  2.0324
 3114TIP3   OH230756   0.467   1.278   5.757 -0.4756  0.4153 -0.4521
 3114TIP3    H130757   0.475   1.291   5.852 -2.9881 -0.4553 -0.0533
 3114TIP3    H230758   0.526   1.343   5.719 -0.4589  1.7353  1.6870
 3115TIP3   OH230759   2.814   5.729  12.366  0.4626  0.4573  0.0774
 3115TIP3    H130760   2.847   5.802  12.419  1.0507  0.4357 -0.2447
 3115TIP3    H230761   2.892   5.695  12.322  0.0873  0.0417 -0.2730
 3116TIP3   OH230762   1.663   3.485  13.716 -0.2817  0.5567  0.1841
 3116TIP3    H130763   1.682   3.571  13.752  0.5692  1.1807 -1.6327
 3116TIP3    H230764   1.592   3.451  13.771 -0.6699  2.4296  0.9153
 3117TIP3   OH230765   1.931   4.802   4.269  0.0157  0.5216  0.3563
 3117TIP3    H130766   1.902   4.717   4.237 -0.2465  0.6862  0.1486
 3117TIP3    H230767   1.994   4.832   4.203  0.2492  0.4044  0.5265
 3118TIP3   OH230768   6.436   4.763  14.050  0.2346  0.6395 -0.4731
 3118TIP3    H130769   6.379   4.839  14.039 -0.3872 -0.0005 -1.9159
 3118TIP3    H230770   6.394   4.693  13.999  2.2334  0.1200 -1.5311
 3119TIP3   OH230771   6.027   6.443   6.682  0.0628 -0.2528  0.1165
 3119TIP3    H130772   5.980   6.423   6.763  0.3669  0.2074  0.4118
 3119TIP3    H230773   5.964   6.425   6.613  0.5937 -3.1324  0.2794
 3120TIP3   OH230774   3.224   4.347  12.679  0.3395 -0.8149 -0.4310
 3120TIP3    H130775   3.202   4.299  12.599 -1.7011 -0.7580  0.0370
 3120TIP3    H230776   3.272   4.424  12.649 -0.6658 -0.6335 -1.6447
 3121TIP3   OH230777   2.802   2.489  15.745 -0.4780 -0.1081 -0.6196
 3121TIP3    H130778   2.802   2.399  15.777 -1.5336 -1.0325 -3.0191
 3121TIP3    H230779   2.803   2.482  15.650 -0.2557  2.4334 -0.8932
 3122TIP3   OH230780   0.253   6.201   1.585 -0.3052  0.2142 -0.4717
 3122TIP3    H130781   0.174   6.182   1.535  0.0268 -0.0253 -0.9112
 3122TIP3    H230782   0.292   6.276   1.539 -0.0323  0.0316 -0.5406
 3123TIP3   OH230783   2.244   2.838  15.582 -0.8685 -0.1261  0.3148
 3123TIP3    H130784   2.288   2.918  15.612 -0.3772 -0.1083 -0.4204
 3123TIP3    H230785   2.236   2.849  15.487 -0.3828 -1.1346  0.1352
 3124TIP3   OH230786   3.981   2.334  15.195 -0.4205 -0.4194  0.4399
 3124TIP3    H130787   3.895   2.305  15.225  0.0903 -0.2686  2.1615
 3124TIP3    H230788   3.963   2.406  15.134 -1.5229 -0.8646  0.2265
 3125TIP3   OH230789   5.870   4.327   4.144 -0.0422  0.3861 -0.5048
 3125TIP3    H130790   5.778   4.343   4.122  0.0781 -0.4271 -1.6939
 3125TIP3    H230791   5.868   4.251   4.202 -0.1264  0.4116 -0.4737
 3126TIP3   OH230792   3.139   4.088  16.832 -0.1291  0.0127  0.4138
 3126TIP3    H130793   3.163   4.034  16.908  0.2936 -0.5253 -0.0883
 3126TIP3    H230794   3.217   4.086  16.776 -0.4673  0.3264 -0.0753
 3127TIP3   OH230795   5.435   0.566   0.881  0.9214 -0.1283 -0.0208
 3127TIP3    H130796   5.401   0.514   0.953 -1.9095 -1.3325 -2.0734
 3127TIP3    H230797   5.478   0.503   0.824 -1.7705 -0.2580 -2.0890
 3128TIP3   OH230798   2.000   1.620  17.247 -0.1522  0.1844  0.0167
 3128TIP3    H130799   2.030   1.623  17.156 -0.4229 -1.1995 -0.1416
 3128TIP3    H230800   1.906   1.637  17.241  0.0590  1.4619  0.1910
 3129TIP3   OH230801   4.541   5.708   1.731  0.0891  0.9376 -0.4471
 3129TIP3    H130802   4.449   5.725   1.713 -0.2310 -1.4161 -1.4573
 3129TIP3    H230803   4.553   5.729   1.823 -1.0926  2.5192 -0.6118
 3130TIP3   OH230804   5.374   3.064  16.788 -0.1418 -0.6914 -0.0432
 3130TIP3    H130805   5.330   3.148  16.774  1.5144  0.0827 -0.7576
 3130TIP3    H230806   5.381   3.025  16.701 -1.7633 -2.0701  0.3829
 3131TIP3   OH230807   3.962   0.968   1.607  0.5099  0.0768  0.0172
 3131TIP3    H130808   4.057   0.967   1.597  0.6975  2.2274  1.0148
 3131TIP3    H230809   3.943   0.894   1.664  1.7065  0.1883  0.5874
 3132TIP3   OH230810   3.933   3.686  13.850 -0.6888 -0.1284 -0.1153
 3132TIP3    H130811   3.927   3.708  13.757 -0.3811 -0.8621 -0.3157
 3132TIP3    H230812   4.013   3.731  13.880  0.1708 -1.2800 -0.6214
 3133TIP3   OH230813   0.360   4.326   6.947  0.0405  0.1729  0.2308
 3133TIP3    H130814   0.385   4.265   6.877  0.1143 -1.1347  1.3529
 3133TIP3    H230815   0.264   4.325   6.946  0.0059  1.4196 -0.8770
 3134TIP3   OH230816   4.346   0.379   1.334  0.2593 -0.3665 -0.1077
 3134TIP3    H130817   4.315   0.443   1.270  2.8724  2.0527  0.8736
 3134TIP3    H230818   4.382   0.308   1.281  0.4808  0.6059 -1.3021
 3135TIP3   OH230819   4.850   0.305  15.898 -0.1984  0.1515  0.1852
 3135TIP3    H130820   4.781   0.351  15.947  0.1540  1.2657 -0.3384
 3135TIP3    H230821   4.927   0.361  15.907 -0.2859  0.7735 -2.1785
 3136TIP3   OH230822   1.945   0.005  14.305  0.0540  0.3932  0.8464
 3136TIP3    H130823   1.850   0.009  14.315 -0.0764 -0.7322  0.3468
 3136TIP3    H230824   1.980   0.036  14.388 -0.7179  2.0346  0.5854
 3137TIP3   OH230825   1.709   6.749  12.596 -0.4526 -0.4024 -0.2949
 3137TIP3    H130826   1.681   6.658  12.605 -0.6112 -0.4715 -1.3748
 3137TIP3    H230827   1.642   6.800  12.641 -0.9207 -0.7471 -0.5969
 3138TIP3   OH230828   5.294   2.226   3.962 -0.0737 -0.2683  0.3390
 3138TIP3    H130829   5.201   2.236   3.984 -0.2106 -1.3254  0.2880
 3138TIP3    H230830   5.321   2.147   4.009  0.6747 -0.2530 -0.0603
 3139TIP3   OH230831   6.415   1.065   4.495 -0.3100  0.2702  0.1864
 3139TIP3    H130832   6.345   1.021   4.448  0.6165 -0.6307 -0.3835
 3139TIP3    H230833   6.371   1.135   4.544 -2.0208 -1.8713  1.9494
 3140TIP3   OH230834   2.059   0.440  13.574 -0.0500 -0.8226  0.2231
 3140TIP3    H130835   2.105   0.368  13.531  2.5127 -0.1523  1.6177
 3140TIP3    H230836   2.108   0.518  13.550 -2.6403  0.5466 -1.0875
 3141TIP3   OH230837   0.985   0.898   4.632 -0.1480  0.1261 -0.0751
 3141TIP3    H130838   1.078   0.921   4.638  0.3282 -1.5532 -0.5932
 3141TIP3    H230839   0.979   0.809   4.668 -1.1636 -0.6869 -2.0963
 3142TIP3   OH230840   2.803   5.206  16.012  0.2035  0.4307 -0.4856
 3142TIP3    H130841   2.751   5.273  16.058  0.4352  0.8274 -0.8017
 3142TIP3    H230842   2.881   5.196  16.066  0.7228  1.2824 -1.0691
 3143TIP3   OH230843   1.673   4.729  15.453 -0.2663  0.0634  0.1775
 3143TIP3    H130844   1.654   4.650  15.401  1.5743 -0.4545  0.2422
 3143TIP3    H230845   1.759   4.757  15.424 -1.5076  3.0661 -1.0104
 3144TIP3   OH230846   4.702   0.175   6.350  0.2425 -0.7442 -0.2397
 3144TIP3    H130847   4.736   0.123   6.423  1.3020  0.4917  0.1924
 3144TIP3    H230848   4.626   0.126   6.318 -1.1784 -0.6493  2.6196
 3145TIP3   OH230849   4.047   5.514  16.655 -0.4009  0.2724  0.0449
 3145TIP3    H130850   4.119   5.537  16.596  0.2213  0.7839  0.9739
 3145TIP3    H230851   4.085   5.453  16.718 -0.0703  2.3337  1.9953
 3146TIP3   OH230852   4.721   3.334  13.261 -0.1718  0.6871  0.6893
 3146TIP3    H130853   4.677   3.261  13.219 -0.0918  1.6132 -1.1375
 3146TIP3    H230854   4.799   3.296  13.301  1.1996  0.0407 -2.3167
 3147TIP3   OH230855   3.521   5.433  17.246 -0.1713 -0.0617 -0.1870
 3147TIP3    H130856   3.493   5.364  17.186  1.2847 -1.0046  0.1729
 3147TIP3    H230857   3.616   5.436  17.236 -0.1390  1.3855  0.3670
 3148TIP3   OH230858   2.060   4.611  16.235 -0.3434 -0.0557 -0.6956
 3148TIP3    H130859   1.972   4.587  16.262 -0.8617  1.1174 -1.2620
 3148TIP3    H230860   2.048   4.661  16.154  0.8550 -0.0830 -0.9158
 3149TIP3   OH230861   6.043   2.354  14.961  1.1401 -0.6298  0.2217
 3149TIP3    H130862   6.053   2.309  14.877  0.9555  0.1031 -0.2004
 3149TIP3    H230863   5.978   2.422  14.944  2.0298  0.3435  0.6226
 3150TIP3   OH230864   5.112   6.202   2.971  0.4937  0.0973 -0.1711
 3150TIP3    H130865   5.150   6.280   3.012  0.4788  0.7170 -1.3096
 3150TIP3    H230866   5.017   6.215   2.981  0.4643  0.6121 -1.0268
 3151TIP3   OH230867   6.041   3.296  15.446  0.2130  0.0102 -0.1081
 3151TIP3    H130868   6.105   3.320  15.380  0.0588 -0.6773 -0.5217
 3151TIP3    H230869   6.093   3.280  15.525  0.5024 -0.1245 -0.3239
 3152TIP3   OH230870   4.580   5.737   4.575  0.0273  0.7351 -0.6190
 3152TIP3    H130871   4.656   5.794   4.582  0.5325 -0.1114  1.7027
 3152TIP3    H230872   4.560   5.712   4.665 -2.7958  0.6080 -1.1751
 3153TIP3   OH230873   0.830   6.611  13.220 -0.3014 -0.8852  0.9014
 3153TIP3    H130874   0.751   6.558  13.220 -0.1313 -1.1460  0.5793
 3153TIP3    H230875   0.901   6.547  13.207 -0.1063 -0.5709  0.3625
 3154TIP3   OH230876   4.348   0.932   2.235 -0.0363 -0.0321 -0.0769
 3154TIP3    H130877   4.393   0.942   2.151 -0.1144 -0.1650 -0.1352
 3154TIP3    H230878   4.320   0.840   2.237  1.6849 -0.5787  0.9620
 3155TIP3   OH230879   6.411   3.506  12.319 -0.0291  0.0361 -0.0578
 3155TIP3    H130880   6.488   3.557  12.344 -0.4739  1.7598 -1.9499
 3155TIP3    H230881   6.339   3.547  12.366 -0.0328 -0.5957  0.5048
 3156TIP3   OH230882   1.699   6.717  11.223 -0.3449  0.2408  0.3440
 3156TIP3    H130883   1.643   6.661  11.169 -1.7048  2.0558 -0.2419
 3156TIP3    H230884   1.773   6.740  11.166 -1.1996  1.2236 -0.4227
 3157TIP3   OH230885   0.437   4.879  14.053 -0.0921 -0.2011  0.2631
 3157TIP3    H130886   0.381   4.933  14.109 -1.0445 -1.2383  0.3408
 3157TIP3    H230887   0.517   4.866  14.105 -0.4851 -0.1639  0.8933
 3158TIP3   OH230888   1.134   6.244  16.753  0.5557 -0.0523 -0.1266
 3158TIP3    H130889   1.095   6.307  16.814 -0.3662  1.1387 -1.8437
 3158TIP3    H230890   1.135   6.290  16.669 -0.0929 -2.3044 -1.4582
 3159TIP3   OH230891   3.657   2.033   0.830  0.0099 -0.5104 -0.1500
 3159TIP3    H130892   3.643   2.081   0.912  1.2141  2.3174 -1.4752
 3159TIP3    H230893   3.607   1.952   0.841 -0.2623 -0.0441  3.1614
 3160TIP3   OH230894   6.215   2.466   6.208  0.0653 -0.3608 -0.0482
 3160TIP3    H130895   6.282   2.506   6.152 -1.8186  0.7205 -1.6540
 3160TIP3    H230896   6.251   2.472   6.296  3.3070 -2.4619 -1.0633
 3161TIP3   OH230897   3.688   5.470   4.229 -0.0015 -0.6758 -0.2089
 3161TIP3    H130898   3.715   5.493   4.141  0.3887 -1.9036 -0.4313
 3161TIP3    H230899   3.769   5.470   4.280 -0.2089 -0.0805  0.1351
 3162TIP3   OH230900   2.804   0.638  12.327  0.0295 -0.4874 -0.2059
 3162TIP3    H130901   2.813   0.570  12.261 -1.2858 -1.7609  0.8474
 3162TIP3    H230902   2.733   0.694  12.294  1.1962  0.4987 -1.1335
 3163TIP3   OH230903   5.524   1.007   5.624  0.2857  0.2936  0.1462
 3163TIP3    H130904   5.530   0.995   5.529 -1.4771  2.2966 -0.2937
 3163TIP3    H230905   5.536   0.919   5.660 -2.1450 -1.1112 -2.1220
 3164TIP3   OH230906   4.122   5.394   0.660 -0.2602  0.0465  0.0935
 3164TIP3    H130907   4.081   5.308   0.670  1.5608 -0.7632  1.2217
 3164TIP3    H230908   4.114   5.435   0.746  1.5784 -0.3331  0.5036
 3165TIP3   OH230909   5.658   1.181   1.864 -0.8583 -0.3259 -0.1168
 3165TIP3    H130910   5.589   1.162   1.928  2.1635 -3.1512  2.6705
 3165TIP3    H230911   5.697   1.263   1.896 -1.2809 -0.0857 -0.2002
 3166TIP3   OH230912   5.912   5.081   0.268  0.1348 -0.6310 -0.5555
 3166TIP3    H130913   5.910   5.038   0.183 -0.4310 -2.9912  0.5596
 3166TIP3    H230914   5.820   5.085   0.295  0.1690  1.3367 -0.5947
 3167TIP3   OH230915   2.957   1.057   4.003  0.5411  0.9942  0.0492
 3167TIP3    H130916   2.961   1.052   4.098 -1.9359  0.5319  0.2106
 3167TIP3    H230917   3.025   0.997   3.972  1.2509  1.0053  1.5149
 3168TIP3   OH230918   5.392   1.989   4.418  0.0896 -0.0735 -0.2011
 3168TIP3    H130919   5.316   1.942   4.383 -0.0125 -0.2926  0.3007
 3168TIP3    H230920   5.454   1.921   4.442 -0.4954 -0.0474  1.5489
 3169TIP3   OH230921   3.512   5.806   3.026 -0.4327 -0.0838  0.2886
 3169TIP3    H130922   3.601   5.775   3.044 -0.4053  0.2677  0.7610
 3169TIP3    H230923   3.478   5.834   3.111 -1.4935 -1.4686  0.3572
 3170TIP3   OH230924   3.897   0.474  13.355  0.1906  0.3956 -0.5152
 3170TIP3    H130925   3.916   0.402  13.295 -1.3804 -0.5430  0.0303
 3170TIP3    H230926   3.805   0.495  13.338  0.5685  2.1603 -0.5190
 3171TIP3   OH230927   0.942   1.253   4.305 -0.1863 -0.2993  0.0648
 3171TIP3    H130928   0.969   1.248   4.396 -0.6981  3.5718  0.5583
 3171TIP3    H230929   0.853   1.289   4.307 -1.0187 -1.9966 -1.9519
 3172TIP3   OH230930   6.093   6.008   2.421  0.0609  0.4670 -0.4460
 3172TIP3    H130931   6.017   5.951   2.435  0.3748 -0.4215 -2.1621
 3172TIP3    H230932   6.166   5.960   2.460 -0.1431  1.0974  0.7636
 3173TIP3   OH230933   0.940   5.382   1.955 -0.3693  0.2926 -0.5577
 3173TIP3    H130934   0.902   5.453   2.006 -0.4983  0.5831 -1.0494
 3173TIP3    H230935   0.976   5.322   2.020 -4.5504 -1.7240  0.2385
 3174TIP3   OH230936   1.261   0.071  13.732  0.5532 -1.2986  0.1310
 3174TIP3    H130937   1.343   0.118  13.719 -0.1171  0.6493  2.2987
 3174TIP3    H230938   1.287  -0.012  13.771  1.5070 -0.1674  2.0418
 3175TIP3   OH230939   4.003   5.631  14.432  0.4206 -0.1140 -0.1749
 3175TIP3    H130940   3.962   5.587  14.358  0.2211  1.8510 -1.3093
 3175TIP3    H230941   4.094   5.642  14.406  0.6149 -0.4024  0.3669
 3176TIP3   OH230942   3.182   3.512  15.221 -0.3922 -0.5444 -0.4653
 3176TIP3    H130943   3.264   3.512  15.172 -1.3935  0.5683 -2.2741
 3176TIP3    H230944   3.114   3.512  15.153 -1.8725  0.3540  0.9530
 3177TIP3   OH230945   3.178   5.056   5.353 -0.2065  1.1865  0.5321
 3177TIP3    H130946   3.162   5.101   5.437  0.1625  0.8926  0.7611
 3177TIP3    H230947   3.092   5.052   5.312 -0.6002  0.2922  1.4187
 3178TIP3   OH230948   0.052   4.027  14.442 -0.1800  0.1794 -0.3924
 3178TIP3    H130949   0.004   3.949  14.415  1.0671 -0.3398 -1.2129
 3178TIP3    H230950  -0.008   4.100  14.424 -1.2377 -0.5413  0.0845
 3179TIP3   OH230951   0.649   6.345  14.160  0.0859 -0.8659  0.2499
 3179TIP3    H130952   0.718   6.294  14.201  1.6185  2.2529  1.9733
 3179TIP3    H230953   0.688   6.378  14.080  1.8619  2.9432  2.3882
 3180TIP3   OH230954   6.591   5.801  13.681 -0.4146  0.0580  0.0459
 3180TIP3    H130955   6.586   5.878  13.623  0.1347 -0.1486 -0.2918
 3180TIP3    H230956   6.685   5.794  13.702 -0.5980  0.0704  0.8839
 3181TIP3   OH230957   6.493   5.777  12.484  0.2044  0.2481  0.2728
 3181TIP3    H130958   6.474   5.774  12.578  0.8461 -0.7448  0.3898
 3181TIP3    H230959   6.586   5.756  12.478  0.0571 -0.1744 -0.6152
 3182TIP3   OH230960   3.031   5.401  17.311 -0.0404 -0.0394  0.2621
 3182TIP3    H130961   2.937   5.387  17.308 -0.6480  2.7875  2.0544
 3182TIP3    H230962   3.053   5.397  17.405  1.1754  1.5497  0.0864
 3183TIP3   OH230963   1.664   2.399  16.881  0.0229  0.2563  0.4205
 3183TIP3    H130964   1.584   2.371  16.925  0.6552  0.0429  1.4753
 3183TIP3    H230965   1.678   2.334  16.812 -0.5118  0.1057  0.4474
 3184TIP3   OH230966   6.573   0.109   0.953 -0.4470 -0.6025  0.0484
 3184TIP3    H130967   6.577   0.197   0.915 -3.6295 -0.0946  0.6011
 3184TIP3    H230968   6.582   0.050   0.878 -0.0239  0.2277 -0.5667
 3185TIP3   OH230969   3.375   4.988  16.685  0.0579  0.1815 -0.2858
 3185TIP3    H130970   3.348   4.959  16.773  0.2127  1.1237  0.0899
 3185TIP3    H230971   3.295   5.026  16.648 -0.1873 -0.8406 -0.8379
 3186TIP3   OH230972   3.577   3.579  16.316 -0.2291 -0.3708 -0.4617
 3186TIP3    H130973   3.489   3.558  16.284 -0.2273 -0.7653 -0.2169
 3186TIP3    H230974   3.563   3.649  16.379 -0.3990 -0.5837 -0.2584
 3187TIP3   OH230975   0.629   0.436   5.246  0.0153 -0.2811 -0.2487
 3187TIP3    H130976   0.633   0.380   5.169  0.5452 -0.0822 -0.3690
 3187TIP3    H230977   0.542   0.420   5.283 -1.0648  1.1179 -2.0172
 3188TIP3   OH230978   1.913   3.124   4.296  0.4834 -0.6610  0.0164
 3188TIP3    H130979   1.954   3.061   4.355 -0.9460  0.6386  2.5753
 3188TIP3    H230980   1.827   3.140   4.334  0.9302  3.1586 -0.1735
 3189TIP3   OH230981   0.987   5.762  15.329  0.4888 -0.4125 -0.0951
 3189TIP3    H130982   1.003   5.856  15.316  1.6441 -0.4966  0.5580
 3189TIP3    H230983   1.071   5.721  15.307  0.4342 -1.1519  1.0159
 3190TIP3   OH230984   1.050   5.601  11.838 -0.4120  0.3887  0.4905
 3190TIP3    H130985   1.030   5.513  11.871  1.5937 -0.1913  0.2781
 3190TIP3    H230986   1.082   5.587  11.749 -0.1227  1.3268  0.4356
 3191TIP3   OH230987   1.428   1.748  15.938  0.3112  0.1404  0.3121
 3191TIP3    H130988   1.512   1.781  15.969  0.0777  0.8840  0.1833
 3191TIP3    H230989   1.380   1.724  16.017  0.3230  0.5296  0.4419
 3192TIP3   OH230990   6.087   6.725  14.121 -0.0084 -0.0328  0.0645
 3192TIP3    H130991   6.024   6.652  14.123  0.5408 -0.5074  0.4894
 3192TIP3    H230992   6.172   6.683  14.136  0.0607  0.9872  3.1273
 3193TIP3   OH230993   5.355   1.347   1.764 -0.1045 -0.0616  0.0415
 3193TIP3    H130994   5.289   1.410   1.735 -0.1548 -0.3396 -0.4588
 3193TIP3    H230995   5.438   1.383   1.734 -0.1649 -0.3943 -0.5504
 3194TIP3   OH230996   5.501   2.312  15.895 -0.3536  0.1385  0.6936
 3194TIP3    H130997   5.488   2.402  15.923 -1.2708 -0.5392  2.6160
 3194TIP3    H230998   5.580   2.283  15.941 -1.7946 -0.9460  2.6069
 3195TIP3   OH230999   3.731   3.598  13.375  0.5455 -0.0215 -0.2181
 3195TIP3    H131000   3.733   3.581  13.469 -2.1442  2.1367  0.3436
 3195TIP3    H231001   3.673   3.531  13.340 -0.7882  0.9106  0.1594
 3196TIP3   OH231002   2.594   5.304   0.579  0.1910  0.3490 -0.1545
 3196TIP3    H131003   2.547   5.362   0.519  1.8535  0.6362 -1.2325
 3196TIP3    H231004   2.593   5.219   0.536 -0.5719 -0.0073  0.5251
 3197TIP3   OH231005   6.226   1.500  13.375 -0.3321  0.3162 -0.0848
 3197TIP3    H131006   6.164   1.573  13.385  0.7534  1.2001  0.4297
 3197TIP3    H231007   6.177   1.423  13.405 -1.1483  1.0118  0.4336
 3198TIP3   OH231008   4.201   5.102   7.086  0.2308  0.3351  0.3315
 3198TIP3    H131009   4.223   5.029   7.145  0.5274 -0.1312 -0.3355
 3198TIP3    H231010   4.277   5.109   7.028  0.9200  2.2484  1.3920
 3199TIP3   OH231011   6.610   4.867   3.332  0.0986 -0.3273 -0.2431
 3199TIP3    H131012   6.548   4.924   3.378 -0.1640 -1.6144  1.0795
 3199TIP3    H231013   6.696   4.894   3.365 -0.0155 -0.6070  0.2959
 3200TIP3   OH231014   3.861   2.360   3.054 -0.3217  0.1524 -0.6891
 3200TIP3    H131015   3.819   2.408   3.125  0.2787  0.3962 -0.4949
 3200TIP3    H231016   3.890   2.278   3.093  2.2723  1.3118  0.0368
 3201TIP3   OH231017   1.582   5.264   2.177  0.4467  0.2442  0.6813
 3201TIP3    H131018   1.648   5.237   2.112 -1.6184 -1.2550 -0.9359
 3201TIP3    H231019   1.619   5.237   2.261  1.1710 -2.2565 -0.3414
 3202TIP3   OH231020   5.439   2.181   1.449 -0.1277 -0.2087  0.4145
 3202TIP3    H131021   5.384   2.205   1.375  0.1904 -1.3032 -0.2002
 3202TIP3    H231022   5.497   2.257   1.462  1.4584 -0.8762 -2.0399
 3203TIP3   OH231023   3.248   5.259  11.614  0.7213 -0.1763  0.1276
 3203TIP3    H131024   3.307   5.263  11.539  1.1504  1.7161  0.5243
 3203TIP3    H231025   3.305   5.269  11.691  0.1236 -0.6164  0.6460
 3204TIP3   OH231026   3.031   5.792   4.272  0.4836 -0.6451 -0.5397
 3204TIP3    H131027   2.979   5.723   4.315  0.2293 -1.0556 -1.4675
 3204TIP3    H231028   3.122   5.764   4.282  0.5301 -0.1113  0.7737
 3205TIP3   OH231029   6.630   3.873  16.333  0.1521  0.2209  0.1476
 3205TIP3    H131030   6.542   3.864  16.297  0.8510 -3.6633 -0.9982
 3205TIP3    H231031   6.626   3.832  16.419  0.8587 -0.1802  0.0040
 3206TIP3   OH231032   5.411   2.556  15.685 -0.1074  0.1250  0.6416
 3206TIP3    H131033   5.434   2.551  15.778  0.6628 -1.6944  0.4071
 3206TIP3    H231034   5.468   2.491  15.643 -2.0187 -0.7591 -0.7698
 3207TIP3   OH231035   1.641   5.124  12.700  0.0821 -0.2372  0.2612
 3207TIP3    H131036   1.716   5.091  12.651 -0.7615 -0.6521 -0.8096
 3207TIP3    H231037   1.589   5.046  12.719 -0.6014  0.1613  0.0619
 3208TIP3   OH231038   0.888   6.107  15.699  0.2395 -0.1200 -0.1817
 3208TIP3    H131039   0.940   6.165  15.644 -2.1480  1.2598 -1.0834
 3208TIP3    H231040   0.868   6.159  15.777  0.6765 -0.8475  0.4294
 3209TIP3   OH231041   4.082   0.766  11.265 -0.4269 -0.6084  0.4224
 3209TIP3    H131042   4.175   0.784  11.281  0.4183 -1.9476 -2.3507
 3209TIP3    H231043   4.076   0.670  11.264 -2.0822 -0.5585  1.5291
 3210TIP3   OH231044   3.475   3.453   0.945 -0.5254  0.2428 -0.5251
 3210TIP3    H131045   3.482   3.537   0.900 -0.1703  0.6987  0.3437
 3210TIP3    H231046   3.412   3.403   0.893  0.0498  0.6467 -1.6547
 3211TIP3   OH231047   0.362   6.319  14.688  0.6888 -0.1168  0.1142
 3211TIP3    H131048   0.291   6.318  14.751  1.3421 -0.4118  0.8638
 3211TIP3    H231049   0.324   6.285  14.607 -0.0870  0.0242  0.4181
 3212TIP3   OH231050   5.670   2.167   4.054 -0.2358 -0.1478 -0.0650
 3212TIP3    H131051   5.619   2.086   4.046 -0.3571 -0.2021  1.1079
 3212TIP3    H231052   5.640   2.206   4.136 -0.1809  1.0968 -0.6119
 3213TIP3   OH231053   6.467   1.415   5.179 -0.0455 -0.0731 -0.1580
 3213TIP3    H131054   6.483   1.364   5.099  1.0977 -1.6951  1.0461
 3213TIP3    H231055   6.498   1.359   5.250 -0.3480  1.6299  1.3897
 3214TIP3   OH231056   5.812   3.223  13.985  0.3744  0.3578 -0.2875
 3214TIP3    H131057   5.843   3.289  13.924  0.3439  0.7662  0.1361
 3214TIP3    H231058   5.863   3.237  14.065 -0.7338  0.8982  0.3413
 3215TIP3   OH231059   1.719   2.683  14.783 -0.0238 -0.5651  0.1859
 3215TIP3    H131060   1.809   2.669  14.754 -0.5203 -1.0683 -1.2021
 3215TIP3    H231061   1.675   2.600  14.764 -0.9842 -0.0295  0.0142
 3216TIP3   OH231062   6.037   4.908  12.025  0.6971 -0.5581 -0.5352
 3216TIP3    H131063   6.113   4.852  12.011 -1.0195 -2.5981 -2.4564
 3216TIP3    H231064   5.963   4.847  12.029 -0.9307  1.3787  0.6862
 3217TIP3   OH231065   1.496   4.395  13.636  0.0502  0.1136  0.0642
 3217TIP3    H131066   1.546   4.403  13.555  2.1624 -0.6910  1.1978
 3217TIP3    H231067   1.535   4.460  13.695 -3.2936  2.7164 -0.2980
 3218TIP3   OH231068   6.119   3.853  15.417 -0.1390 -0.0347 -0.7635
 3218TIP3    H131069   6.166   3.935  15.400  0.8854 -0.3901  0.2105
 3218TIP3    H231070   6.062   3.842  15.341 -2.0557  2.7736  0.1096
 3219TIP3   OH231071   0.573   5.167  16.626  0.8572  0.2342  0.2613
 3219TIP3    H131072   0.584   5.207  16.712  1.7078 -2.9100  1.7420
 3219TIP3    H231073   0.484   5.134  16.626  1.3481 -1.1689  0.6478
 3220TIP3   OH231074   5.701   2.068  11.717  0.4799  0.4801  0.1863
 3220TIP3    H131075   5.638   2.141  11.716  0.7956  0.7548 -0.1433
 3220TIP3    H231076   5.785   2.109  11.696  0.2561 -0.3383 -2.7022
 3221TIP3   OH231077   4.107   1.439   2.527  0.2490  0.6700 -0.1055
 3221TIP3    H131078   4.181   1.382   2.505  0.9563  1.6225 -0.3047
 3221TIP3    H231079   4.148   1.524   2.545 -0.7874  1.1641 -0.0159
 3222TIP3   OH231080   1.208   6.396  14.453 -0.0990  0.5744 -0.5368
 3222TIP3    H131081   1.179   6.370  14.540 -0.4692  1.6713 -0.3233
 3222TIP3    H231082   1.174   6.329  14.394 -0.4792  0.2329  0.0751
 3223TIP3   OH231083   2.573   4.996   5.058 -0.1963 -0.1719 -0.8201
 3223TIP3    H131084   2.603   4.910   5.086 -1.0750 -1.0452 -2.4692
 3223TIP3    H231085   2.597   5.002   4.966 -0.6899  1.1084 -0.8935
 3224TIP3   OH231086   0.420   2.871   4.885 -0.0923 -0.0465  0.4875
 3224TIP3    H131087   0.405   2.784   4.847 -0.8875  0.6304 -0.8241
 3224TIP3    H231088   0.515   2.877   4.895  0.0423 -0.7109 -0.2977
 3225TIP3   OH231089   5.633   4.600  12.598  0.0104 -1.0647 -0.3681
 3225TIP3    H131090   5.542   4.601  12.627 -0.2073 -2.2435 -0.9591
 3225TIP3    H231091   5.684   4.577  12.676 -0.2508 -0.9550 -0.1655
 3226TIP3   OH231092   3.783   0.502  11.383  0.3407 -0.3743  0.4034
 3226TIP3    H131093   3.776   0.545  11.297  2.1932 -2.4451 -0.9115
 3226TIP3    H231094   3.704   0.450  11.390  0.7297 -1.1510 -0.6711
 3227TIP3   OH231095   3.996   2.916  15.760 -0.0799 -0.0065  0.2954
 3227TIP3    H131096   3.935   2.859  15.806  0.1690 -0.4162  0.1246
 3227TIP3    H231097   4.061   2.857  15.723  0.2205  0.3946  0.1714
 3228TIP3   OH231098   5.989   5.632   5.475 -0.1772  0.2180 -0.2097
 3228TIP3    H131099   5.942   5.715   5.465  0.2799  0.5889  0.6243
 3228TIP3    H231100   6.028   5.637   5.563  0.9205 -0.3395 -0.6490
 3229TIP3   OH231101   5.001   4.992   3.546 -0.1101  0.5106 -0.0749
 3229TIP3    H131102   5.060   4.916   3.553  0.0847  0.7121  0.5347
 3229TIP3    H231103   4.914   4.953   3.536  0.2390  0.2011 -2.3368
 3230TIP3   OH231104   6.715   5.726  15.190  0.1195  0.0538 -0.2569
 3230TIP3    H131105   6.658   5.782  15.136  1.4392 -0.0452 -1.8254
 3230TIP3    H231106   6.802   5.738  15.153  0.7432 -1.6094  0.5784
 3231TIP3   OH231107   2.125   0.965   2.610 -0.0058  0.3936  0.0249
 3231TIP3    H131108   2.167   1.034   2.560  0.8741 -1.3684 -1.7657
 3231TIP3    H231109   2.190   0.939   2.675  0.0595  0.4951  0.0005
 3232TIP3   OH231110   3.783   3.960  13.424 -0.0811 -0.0401 -0.3839
 3232TIP3    H131111   3.835   3.887  13.457 -1.5906 -1.2713 -0.6010
 3232TIP3    H231112   3.824   3.983  13.341  0.5990 -0.4430 -0.1666
 3233TIP3   OH231113   3.073   5.814   2.639  0.0782 -0.0668 -0.3268
 3233TIP3    H131114   3.130   5.738   2.628 -0.5765 -0.6257  0.0377
 3233TIP3    H231115   3.133   5.888   2.650  0.7233 -0.5300 -0.6694
 3234TIP3   OH231116   3.897   0.806  11.486 -0.1084 -0.3165  0.4745
 3234TIP3    H131117   3.941   0.815  11.402 -0.0138  1.8793  0.7212
 3234TIP3    H231118   3.804   0.798  11.463  0.0515 -1.4493  0.1250
 3235TIP3   OH231119   3.831   6.136   1.125 -0.3427 -0.0560  0.3832
 3235TIP3    H131120   3.761   6.096   1.073 -1.4790 -0.3614  2.0574
 3235TIP3    H231121   3.893   6.066   1.140 -0.9999 -0.4970  1.0814
 3236TIP3   OH231122   5.592   2.109  14.946  0.5337  0.0982 -0.1029
 3236TIP3    H131123   5.534   2.094  15.021  0.8861 -0.2716  0.1023
 3236TIP3    H231124   5.647   2.183  14.972  1.2813 -0.6084  0.3932
 3237TIP3   OH231125   6.125   5.270   5.512  0.0769  0.0100 -0.1390
 3237TIP3    H131126   6.117   5.251   5.606 -0.2291 -0.0063 -0.1650
 3237TIP3    H231127   6.034   5.280   5.483  0.2136  1.2960 -0.1745
 3238TIP3   OH231128   5.376   4.715  10.860  0.0793 -0.1861 -0.2925
 3238TIP3    H131129   5.363   4.637  10.806 -1.2136 -0.1628 -0.0591
 3238TIP3    H231130   5.311   4.706  10.930 -0.0549  1.0676 -0.2379
 3239TIP3   OH231131   2.151   3.762  15.014  0.0307  0.1394 -0.1941
 3239TIP3    H131132   2.204   3.838  15.037 -0.4340  0.0118  1.4876
 3239TIP3    H231133   2.065   3.781  15.050 -1.0316  0.1987 -2.5890
 3240TIP3   OH231134   4.033   1.202  12.875 -0.2556 -0.1954  0.5012
 3240TIP3    H131135   4.049   1.190  12.782  0.4421 -1.4145  0.7612
 3240TIP3    H231136   4.026   1.297  12.886  0.9083  0.0437 -0.5970
 3241TIP3   OH231137   2.660   0.675   4.149 -0.4876 -0.4909 -0.3025
 3241TIP3    H131138   2.602   0.748   4.172  0.6629  0.2795  0.2568
 3241TIP3    H231139   2.659   0.673   4.053 -0.1616  0.5767 -0.3381
 3242TIP3   OH231140   1.017   6.453  14.970 -0.6065  0.0708  0.0717
 3242TIP3    H131141   0.971   6.393  15.030 -2.1504 -0.0021 -1.1160
 3242TIP3    H231142   1.036   6.530  15.024 -0.6292 -0.5773  1.0383
 3243TIP3   OH231143   2.555   3.299  15.844 -0.2523 -0.0835  0.6594
 3243TIP3    H131144   2.568   3.377  15.790 -0.3029 -0.4650  0.0952
 3243TIP3    H231145   2.583   3.226  15.790 -0.8528 -0.5301  0.9269
 3244TIP3   OH231146   5.394   3.497  16.237  0.1921 -0.0962  0.6464
 3244TIP3    H131147   5.341   3.573  16.261  0.4959  0.0197  0.9611
 3244TIP3    H231148   5.481   3.516  16.272  0.8399  0.3747 -1.1298
 3245TIP3   OH231149   5.598   1.460   5.175  0.2045 -0.4609  0.1847
 3245TIP3    H131150   5.528   1.474   5.238 -1.3837  0.6536 -1.7274
 3245TIP3    H231151   5.675   1.502   5.214 -1.1519  1.7327  0.6365
 3246TIP3   OH231152   1.338   3.078  11.542 -0.0196  0.1159  0.2477
 3246TIP3    H131153   1.249   3.071  11.576 -1.0470 -0.1117 -2.2661
 3246TIP3    H231154   1.351   2.998  11.492  2.3606 -0.7505  2.0464
 3247TIP3   OH231155   5.343   3.249   2.028 -0.3132  0.0613  0.6916
 3247TIP3    H131156   5.363   3.210   2.113  0.5055  0.8348  0.8746
 3247TIP3    H231157   5.346   3.344   2.043 -0.9535  0.2127 -0.0271
 3248TIP3   OH231158   4.293   4.688  11.318 -0.6052  1.0134  0.4875
 3248TIP3    H131159   4.219   4.661  11.264 -1.0698  2.4124  0.3939
 3248TIP3    H231160   4.345   4.745  11.261  1.0209 -0.6023  0.2773
 3249TIP3   OH231161   5.093   4.304  11.874 -0.1469  0.7146  0.1998
 3249TIP3    H131162   5.187   4.309  11.857  0.0965  2.7221  1.7240
 3249TIP3    H231163   5.073   4.385  11.921 -2.2169 -0.7102  1.9456
 3250TIP3   OH231164   6.571   1.730   4.123  0.4586 -0.8870 -0.3514
 3250TIP3    H131165   6.618   1.761   4.200 -0.5030 -1.5820  0.5388
 3250TIP3    H231166   6.572   1.804   4.063 -0.6972  0.4612  1.2015
 3251TIP3   OH231167   6.401   4.797  13.599 -0.6533 -0.0256 -0.4143
 3251TIP3    H131168   6.386   4.821  13.508  2.0513 -0.5255 -1.0780
 3251TIP3    H231169   6.360   4.711  13.609 -4.1699  1.5355 -0.0243
 3252TIP3   OH231170   0.099   0.363   2.227 -0.2387 -0.1122  0.6582
 3252TIP3    H131171   0.064   0.450   2.207 -1.9756 -0.9426 -0.1286
 3252TIP3    H231172   0.159   0.344   2.155 -1.7059 -0.5360 -0.4814
 3253TIP3   OH231173   6.687   4.633  11.904 -0.1474 -0.5732 -0.4523
 3253TIP3    H131174   6.621   4.651  11.971  0.6766  2.1669 -0.2317
 3253TIP3    H231175   6.767   4.613  11.953 -0.2894 -1.7189 -0.6794
 3254TIP3   OH231176   4.258   5.779   5.073 -0.0452 -0.0739  0.1949
 3254TIP3    H131177   4.221   5.804   4.989  0.7035  1.1302  0.2056
 3254TIP3    H231178   4.294   5.691   5.059 -1.1757 -0.4739 -0.3280
 3255TIP3   OH231179   3.943   6.233  12.499 -0.0885 -0.0427 -0.4981
 3255TIP3    H131180   3.941   6.249  12.405  1.8124  1.4787 -0.3392
 3255TIP3    H231181   4.031   6.259  12.526 -0.8397  0.3069  1.8314
 3256TIP3   OH231182   2.205   1.496   6.845  0.7114 -0.5751  0.5104
 3256TIP3    H131183   2.299   1.480   6.834  0.6647 -0.4195 -0.2221
 3256TIP3    H231184   2.199   1.589   6.867  0.7396 -0.6162  0.6886
 3257TIP3   OH231185   4.976   3.805   5.916  0.0568 -0.0344  0.6405
 3257TIP3    H131186   5.021   3.881   5.879 -1.7821  1.1258  0.6456
 3257TIP3    H231187   4.991   3.812   6.010 -1.4717  1.3541  0.8403
 3258TIP3   OH231188   0.981   1.679  15.651 -1.0639  0.3880 -0.3374
 3258TIP3    H131189   1.067   1.677  15.692 -1.3494  2.1759  0.4544
 3258TIP3    H231190   0.945   1.592  15.666 -0.1670  0.2274  1.0404
 3259TIP3   OH231191   6.672   4.430  12.502 -0.1047  0.0749  0.5484
 3259TIP3    H131192   6.764   4.453  12.489 -0.2723  0.4479 -0.0377
 3259TIP3    H231193   6.635   4.503  12.551 -0.3472  0.4833 -0.2216
 3260TIP3   OH231194   5.478   2.817   2.106  0.1234 -0.2575 -0.4279
 3260TIP3    H131195   5.481   2.906   2.072  0.3810  0.6206  1.7504
 3260TIP3    H231196   5.385   2.799   2.118  0.0335 -0.5479 -1.4466
 3261TIP3   OH231197   4.633   4.286   1.505 -0.1338 -0.1527  0.1139
 3261TIP3    H131198   4.595   4.311   1.589 -1.5086 -1.4278 -0.0904
 3261TIP3    H231199   4.692   4.214   1.526  1.1837  0.9124  0.2362
 3262TIP3   OH231200   2.773   4.428  11.170  0.2017  0.2672  0.6998
 3262TIP3    H131201   2.747   4.336  11.170  0.0392  0.2842  2.3503
 3262TIP3    H231202   2.799   4.445  11.260  1.5907  1.4720  0.1080
 3263TIP3   OH231203   5.646   4.820   2.490  0.1446  0.6661 -0.7354
 3263TIP3    H131204   5.580   4.810   2.558  0.0633  0.3975 -0.8545
 3263TIP3    H231205   5.620   4.899   2.443 -1.2659 -0.5493 -2.0926
 3264TIP3   OH231206   0.120   5.334  11.813  0.2177  0.3744  0.3133
 3264TIP3    H131207   0.045   5.356  11.869 -0.2458  1.6692 -0.7801
 3264TIP3    H231208   0.111   5.240  11.798 -2.1015  0.7466 -1.0464
 3265TIP3   OH231209   0.944   5.830   6.052 -0.7833  0.0083  0.3137
 3265TIP3    H131210   1.030   5.801   6.082 -0.6390  0.8804  0.7645
 3265TIP3    H231211   0.888   5.822   6.129 -0.8149  0.6024  0.3587
 3266TIP3   OH231212   5.886   1.110  16.806  0.0563 -0.4487  0.0476
 3266TIP3    H131213   5.957   1.077  16.860 -0.0451 -1.6220 -0.5188
 3266TIP3    H231214   5.808   1.101  16.861  0.1398 -0.4319  0.1679
 3267TIP3   OH231215   0.680   5.267   1.524  0.2126  0.4321 -0.7464
 3267TIP3    H131216   0.692   5.277   1.618  1.8763 -0.7990 -0.7928
 3267TIP3    H231217   0.621   5.193   1.515 -0.3410  0.8571 -0.6820
 3268TIP3   OH231218   0.327   0.141   3.661 -1.1703  0.0236  0.1549
 3268TIP3    H131219   0.274   0.177   3.733 -0.3045  0.8951  0.3862
 3268TIP3    H231220   0.275   0.069   3.626 -0.6918 -1.9391  3.1094
 3269TIP3   OH231221   6.649   3.389  14.340 -0.3674  0.1932 -0.1826
 3269TIP3    H131222   6.708   3.353  14.273 -0.9288 -0.8903 -0.1228
 3269TIP3    H231223   6.684   3.355  14.423 -1.3887 -0.9580 -0.1959
 3270TIP3   OH231224   4.168   2.565  13.306 -0.1994 -0.1503 -0.3225
 3270TIP3    H131225   4.076   2.576  13.331  0.6317  0.8367  2.7742
 3270TIP3    H231226   4.166   2.504  13.233 -3.2943 -0.3414 -0.2066
 3271TIP3   OH231227   0.392   4.373   4.772 -0.4354 -0.1377  0.0526
 3271TIP3    H131228   0.329   4.381   4.844  1.6494  3.1239  1.8014
 3271TIP3    H231229   0.357   4.429   4.703 -0.5919 -0.2497  0.0401
 3272TIP3   OH231230   3.161   5.453  11.282 -0.5186 -0.0917 -0.2672
 3272TIP3    H131231   3.147   5.547  11.292 -1.5062 -0.3834  1.4509
 3272TIP3    H231232   3.256   5.442  11.291 -0.4342  0.6979 -0.1119
 3273TIP3   OH231233   6.145   2.253   5.528 -0.2507  0.6528 -0.2888
 3273TIP3    H131234   6.115   2.288   5.444  0.1416  0.5115 -0.4905
 3273TIP3    H231235   6.240   2.248   5.519 -0.3149 -0.8376 -0.4079
 3274TIP3   OH231236   2.834   4.755   1.435 -0.8819 -0.2038  0.1833
 3274TIP3    H131237   2.770   4.685   1.417 -1.7391 -0.0714  2.3861
 3274TIP3    H231238   2.904   4.712   1.483  0.3059 -0.1609 -1.4338
 3275TIP3   OH231239   5.872   4.014   5.974  0.0113 -0.6851 -0.2469
 3275TIP3    H131240   5.962   3.987   5.991 -0.3582 -1.5558  0.4362
 3275TIP3    H231241   5.819   3.945   6.014 -0.9548 -0.2900 -0.8232
 3276TIP3   OH231242   1.308   2.400  13.623 -0.2802 -0.2030 -0.5478
 3276TIP3    H131243   1.238   2.385  13.687  2.1189  1.5863  2.8479
 3276TIP3    H231244   1.365   2.323  13.631  1.2749  1.0508  1.4634
 3277TIP3   OH231245   0.843   1.454  13.930  0.4014 -0.1342  0.3158
 3277TIP3    H131246   0.769   1.512  13.948 -1.3447 -1.5143 -1.8213
 3277TIP3    H231247   0.825   1.376  13.982 -0.1309 -0.7959 -0.8308
 3278TIP3   OH231248   1.869   3.781  17.251  0.3014 -0.1789 -0.7120
 3278TIP3    H131249   1.868   3.795  17.345  4.0065 -0.9169 -0.3970
 3278TIP3    H231250   1.851   3.867  17.214  1.4998  0.7467  0.7527
 3279TIP3   OH231251   5.965   3.379  16.164 -0.1591  0.1679 -0.0632
 3279TIP3    H131252   5.980   3.459  16.112 -0.3564  0.5469  0.4554
 3279TIP3    H231253   5.990   3.308  16.106  1.3623  0.6691 -0.0696
 3280TIP3   OH231254   1.428   2.866  14.050  0.0945  0.0378 -0.6933
 3280TIP3    H131255   1.427   2.770  14.052 -0.8811 -0.0147  2.7642
 3280TIP3    H231256   1.341   2.890  14.017 -0.1654 -0.2896 -0.2597
 3281TIP3   OH231257   6.539   1.629   2.869 -0.1555 -0.8041 -0.0544
 3281TIP3    H131258   6.484   1.649   2.944 -0.4505  2.7703 -1.0170
 3281TIP3    H231259   6.478   1.606   2.799 -0.0016 -2.2885  0.2760
 3282TIP3   OH231260   0.960   1.384   1.729  0.2873 -0.3892 -0.5456
 3282TIP3    H131261   1.054   1.378   1.713  0.5145 -1.5525  0.9453
 3282TIP3    H231262   0.925   1.430   1.653  2.1287  0.6038 -0.8392
 3283TIP3   OH231263   1.932   2.044  12.374  0.1378 -0.4538 -0.4986
 3283TIP3    H131264   2.026   2.052  12.388  0.4058 -3.9584  0.5694
 3283TIP3    H231265   1.923   1.999  12.290 -0.7551  1.7725 -1.6779
 3284TIP3   OH231266   5.014   4.885  12.629 -0.8301  0.1072  0.0193
 3284TIP3    H131267   4.957   4.957  12.658 -0.5837  0.0625  0.6177
 3284TIP3    H231268   5.052   4.917  12.547 -0.2582  0.9116  0.5875
 3285TIP3   OH231269   1.708   4.958  14.211  0.2309  0.0818  0.2626
 3285TIP3    H131270   1.692   4.866  14.236  0.4134  0.4128  1.7013
 3285TIP3    H231271   1.621   4.998  14.214  0.1313 -0.0639 -0.5034
 3286TIP3   OH231272   1.618   2.086  14.651  0.3648 -0.1118 -0.0791
 3286TIP3    H131273   1.552   2.121  14.711  1.1733  0.0627  0.7241
 3286TIP3    H231274   1.575   2.089  14.565 -0.3370  0.8783  0.2791
 3287TIP3   OH231275   2.653   1.520   6.124  0.4458 -0.2896  0.2903
 3287TIP3    H131276   2.655   1.469   6.205 -0.9701 -0.7412  0.0693
 3287TIP3    H231277   2.661   1.456   6.054 -0.5248 -0.1480  0.0314
 3288TIP3   OH231278   0.150   1.149   4.281 -0.0943  0.0737  0.0293
 3288TIP3    H131279   0.086   1.133   4.211 -0.1556 -0.9275  0.2952
 3288TIP3    H231280   0.109   1.112   4.359 -0.4637  2.0674  0.8360
 3289TIP3   OH231281   2.726   5.221   5.302  0.2221  0.1995  0.0563
 3289TIP3    H131282   2.674   5.166   5.244  3.1740 -1.8271 -0.9079
 3289TIP3    H231283   2.716   5.181   5.389  0.4585 -0.4188 -0.1967
 3290TIP3   OH231284   5.250   4.265   2.425 -0.1884  0.0930 -0.6826
 3290TIP3    H131285   5.183   4.309   2.477 -0.5732 -1.2305 -0.0184
 3290TIP3    H231286   5.222   4.279   2.334 -0.5530  0.8171 -0.4640
 3291TIP3   OH231287   2.775   3.126  14.905  0.3913 -0.3838 -0.2702
 3291TIP3    H131288   2.804   3.110  14.815  0.6596 -1.5745  0.0224
 3291TIP3    H231289   2.743   3.217  14.903  0.3437 -0.4053 -1.5724
 3292TIP3   OH231290   3.602   3.665  12.443 -0.5119  0.6546  0.1054
 3292TIP3    H131291   3.679   3.652  12.388 -0.9072  0.8458 -0.4933
 3292TIP3    H231292   3.631   3.726  12.511  0.5288 -0.9892  1.2416
 3293TIP3   OH231293   3.029   5.605  10.458 -0.0017  0.1946  0.0444
 3293TIP3    H131294   2.938   5.633  10.468  0.4438  1.7689 -0.1760
 3293TIP3    H231295   3.025   5.534  10.393 -1.0974 -0.0021  0.3099
 3294TIP3   OH231296   0.548   2.734   0.561  0.2207  0.4067 -0.2729
 3294TIP3    H131297   0.605   2.799   0.601  1.1863 -1.3878  1.4463
 3294TIP3    H231298   0.590   2.713   0.477  0.0263  1.7469 -0.7333
 3295TIP3   OH231299   1.661   3.514   1.744 -0.3544 -0.3593 -0.2294
 3295TIP3    H131300   1.653   3.468   1.660 -0.1426 -0.4775 -0.1845
 3295TIP3    H231301   1.644   3.446   1.810  0.1998 -0.4354 -0.1556
 3296TIP3   OH231302   0.090   1.925  12.191 -0.6692 -0.5781 -0.2865
 3296TIP3    H131303   0.066   1.839  12.225 -0.3464 -0.2913  0.7032
 3296TIP3    H231304   0.013   1.979  12.208 -1.0012 -0.7369 -1.2142
 3297TIP3   OH231305   3.493   0.177  15.090  0.1035  0.1959  0.3443
 3297TIP3    H131306   3.451   0.102  15.047  0.1232  0.6659 -0.5215
 3297TIP3    H231307   3.586   0.154  15.091  0.2167  0.5338 -0.6507
 3298TIP3   OH231308   2.327   5.703  13.979 -0.2913  0.0821 -0.2480
 3298TIP3    H131309   2.377   5.688  13.900 -0.5914  0.4068 -0.5034
 3298TIP3    H231310   2.378   5.661  14.048  0.4444  0.5915 -0.4644
 3299TIP3   OH231311   4.072   3.710  12.709 -0.4250  0.2440 -0.2500
 3299TIP3    H131312   3.998   3.699  12.769  0.6355 -1.2015  0.8666
 3299TIP3    H231313   4.149   3.689  12.762  0.5948 -0.5663 -1.9654
 3300TIP3   OH231314   2.152   2.087   6.601  0.3679  0.4101  0.3994
 3300TIP3    H131315   2.075   2.034   6.577 -0.8654  1.2579  2.2084
 3300TIP3    H231316   2.127   2.176   6.579  1.6848  0.4846 -0.8853
 3301TIP3   OH231317   4.471   6.270   3.484 -0.1528  0.0196 -0.0447
 3301TIP3    H131318   4.453   6.207   3.415  0.7439 -0.3804  0.0720
 3301TIP3    H231319   4.405   6.338   3.472 -2.6264 -1.9667  1.1570
 3302TIP3   OH231320   6.377   0.007  11.822  0.0683  0.1737 -0.2719
 3302TIP3    H131321   6.287   0.031  11.799 -0.5391 -1.7507 -0.0803
 3302TIP3    H231322   6.431   0.072  11.777 -1.3681  0.6488 -1.4036
 3303TIP3   OH231323   1.200   5.193   5.300 -0.3139 -0.2625 -0.0717
 3303TIP3    H131324   1.117   5.215   5.342  0.2809  0.8669  0.5684
 3303TIP3    H231325   1.234   5.120   5.351  0.3806  1.0690  1.4434
 3304TIP3   OH231326   0.532   2.053   1.189 -0.4251 -0.2666 -0.2188
 3304TIP3    H131327   0.559   1.990   1.257 -1.7608 -1.7219 -0.9888
 3304TIP3    H231328   0.472   2.112   1.234 -0.5859 -0.6547  0.0835
 3305TIP3   OH231329   1.201   1.181  11.696  0.1929 -1.0724  0.0671
 3305TIP3    H131330   1.235   1.137  11.618  2.7771  0.3524  0.2549
 3305TIP3    H231331   1.264   1.252  11.712 -1.4024 -0.0456  2.2557
 3306TIP3   OH231332   2.749   1.030  11.844 -0.1563 -0.1873 -0.0311
 3306TIP3    H131333   2.843   1.023  11.862  0.1765 -0.3396 -1.6526
 3306TIP3    H231334   2.708   0.977  11.912  0.9286 -0.0835  0.7353
 3307TIP3   OH231335   4.896   1.803   3.651 -0.0442  0.1222 -0.7105
 3307TIP3    H131336   4.902   1.768   3.563  1.6414  2.1205 -1.4845
 3307TIP3    H231337   4.853   1.734   3.702  1.0113 -2.0185 -2.5541
 3308TIP3   OH231338   4.686   1.155   2.303 -0.4239  0.2292  0.2027
 3308TIP3    H131339   4.692   1.196   2.390  2.8694  1.5853 -0.5277
 3308TIP3    H231340   4.644   1.222   2.248  0.3139  0.6340  0.1162
 3309TIP3   OH231341   1.824   2.290  15.300 -0.7969 -0.3535 -0.1520
 3309TIP3    H131342   1.760   2.347  15.257  0.0302  0.2196 -0.6505
 3309TIP3    H231343   1.774   2.212  15.323 -1.9047  0.4724  0.3515
 3310TIP3   OH231344   3.234   1.624  13.313 -0.3184 -0.0212  0.1255
 3310TIP3    H131345   3.180   1.645  13.237 -0.2010  0.9783  0.3074
 3310TIP3    H231346   3.181   1.651  13.388 -0.2314 -0.5450  0.3774
 3311TIP3   OH231347   4.724   3.885  11.570  0.1262  0.3252 -0.4657
 3311TIP3    H131348   4.806   3.908  11.615 -0.9026 -0.8425  2.2283
 3311TIP3    H231349   4.670   3.846  11.638 -1.9428 -0.7909 -2.6106
 3312TIP3   OH231350   5.576   5.514   6.125 -0.2585 -0.5263  0.2113
 3312TIP3    H131351   5.593   5.506   6.219 -2.2110 -1.4231  0.5314
 3312TIP3    H231352   5.578   5.609   6.109  0.8152 -0.3983  0.9856
 3313TIP3   OH231353   3.539   1.373  12.478  0.1123 -0.1975  0.0447
 3313TIP3    H131354   3.600   1.373  12.551  0.1025  1.3774  0.0896
 3313TIP3    H231355   3.569   1.302  12.422  0.1938 -1.3459  1.4958
 3314TIP3   OH231356   2.352   2.327   5.376  0.0317 -0.1485 -0.5076
 3314TIP3    H131357   2.425   2.389   5.381 -1.4151  1.5471  0.6672
 3314TIP3    H231358   2.383   2.250   5.424  1.6104 -0.1148 -1.4110
 3315TIP3   OH231359   2.742   1.448   6.820 -0.1897  0.4795  0.1480
 3315TIP3    H131360   2.780   1.363   6.841 -2.3492 -0.2909  1.3024
 3315TIP3    H231361   2.815   1.509   6.823  1.2368 -1.1708  0.3153
 3316TIP3   OH231362   2.403   1.279  12.631  0.4040 -0.3991  0.0014
 3316TIP3    H131363   2.311   1.258  12.619  0.6906 -0.8183 -1.8420
 3316TIP3    H231364   2.446   1.193  12.638  0.8345 -0.2932 -1.0585
 3317TIP3   OH231365   0.673   5.533  16.702  0.4662 -0.1371 -0.9378
 3317TIP3    H131366   0.685   5.443  16.671  2.2349  0.2394 -1.4257
 3317TIP3    H231367   0.657   5.584  16.623  1.6500  0.3043 -0.9108
 3318TIP3   OH231368   2.605   2.892   5.940 -0.1003  0.1025  0.0382
 3318TIP3    H131369   2.523   2.888   5.990 -0.4843  0.5123 -0.5410
 3318TIP3    H231370   2.645   2.975   5.966  0.8492 -0.7496  1.3920
 3319TIP3   OH231371   0.923   4.442   5.441 -0.1402 -0.2556  0.4955
 3319TIP3    H131372   0.911   4.369   5.381 -0.8892 -0.1023  0.4548
 3319TIP3    H231373   0.905   4.520   5.388 -2.1477 -0.1657  1.2124
 3320TIP3   OH231374   4.732   5.308   4.162  0.8297 -0.3343  0.4090
 3320TIP3    H131375   4.814   5.293   4.209  1.6895 -0.9945 -1.2175
 3320TIP3    H231376   4.751   5.381   4.103  0.8864 -1.6238 -1.2751
 3321TIP3   OH231377   5.164   0.921   3.195  0.1934  0.0574  0.4931
 3321TIP3    H131378   5.259   0.926   3.188  0.1867  1.0655  1.0594
 3321TIP3    H231379   5.147   0.839   3.241  0.7938  0.0373  0.6763
 3322TIP3   OH231380   5.849   0.696  13.895  0.0107 -0.8521 -0.0604
 3322TIP3    H131381   5.852   0.777  13.843 -0.6651 -1.1011 -0.5030
 3322TIP3    H231382   5.808   0.722  13.977  0.2247 -0.6539 -0.0127
 3323TIP3   OH231383   1.022   5.914   3.988  0.2079  0.3032 -0.0963
 3323TIP3    H131384   1.014   5.824   4.018 -1.0377  0.4180 -0.0209
 3323TIP3    H231385   0.942   5.957   4.018  1.0028  1.5747  0.3065
 3324TIP3   OH231386   6.393   4.643   4.065  0.3350 -0.1635 -0.2614
 3324TIP3    H131387   6.440   4.624   4.146 -0.0411 -2.6628 -0.5543
 3324TIP3    H231388   6.458   4.628   3.996 -0.2387 -1.4855 -0.5529
 3325TIP3   OH231389   1.527   0.635   5.581 -0.1085  0.5139  0.4142
 3325TIP3    H131390   1.520   0.700   5.511 -0.3647 -0.7158 -0.7374
 3325TIP3    H231391   1.459   0.661   5.644 -2.1997 -0.1966 -1.3976
 3326TIP3   OH231392   2.773   1.315   5.226  0.2692 -0.3943  0.4739
 3326TIP3    H131393   2.832   1.348   5.158 -0.0566 -0.4140  0.1727
 3326TIP3    H231394   2.793   1.222   5.234 -0.0876 -0.5200 -0.0187
 3327TIP3   OH231395   2.307   4.104  15.844  0.3962  0.3299  0.6543
 3327TIP3    H131396   2.280   4.019  15.808  1.0783 -0.6874  2.4160
 3327TIP3    H231397   2.351   4.148  15.771 -2.7716  0.5948 -1.2889
 3328TIP3   OH231398   3.104   5.719  15.983 -0.2217  0.0276 -0.6774
 3328TIP3    H131399   3.153   5.652  15.936 -0.2820 -1.1357  0.8393
 3328TIP3    H231400   3.074   5.780  15.915 -0.1930 -1.4948 -2.0945
 3329TIP3   OH231401   1.894   2.531  15.508 -0.3754  0.2551 -0.2842
 3329TIP3    H131402   1.886   2.437  15.494  2.6562 -0.2121  0.3953
 3329TIP3    H231403   1.904   2.567  15.419  1.0441 -0.4351 -0.4324
 3330TIP3   OH231404   2.207   4.308   5.746  0.6131 -0.6665  0.2255
 3330TIP3    H131405   2.218   4.269   5.660 -0.5207 -0.8617  0.1594
 3330TIP3    H231406   2.162   4.242   5.798 -1.0535  0.3935  0.2030
 3331TIP3   OH231407   3.537   0.966   4.854 -0.0203 -0.2232 -0.7710
 3331TIP3    H131408   3.565   1.057   4.859 -0.4407 -0.0881 -0.8636
 3331TIP3    H231409   3.445   0.967   4.877  0.5380 -0.9760  1.8891
 3332TIP3   OH231410   4.078   6.159   0.529 -0.2609  0.5911  0.5911
 3332TIP3    H131411   4.150   6.142   0.468 -0.6944 -0.5603  0.3783
 3332TIP3    H231412   4.050   6.248   0.509  1.8956  1.5236  1.5214
 3333TIP3   OH231413   1.036   4.406   1.087  0.1984  0.0250 -0.9363
 3333TIP3    H131414   0.973   4.426   1.017  0.3832 -0.3990 -1.2322
 3333TIP3    H231415   1.058   4.314   1.073 -2.3167 -1.1091  1.7255
 3334TIP3   OH231416   5.098   3.224  16.840 -0.6993 -0.0340  0.1214
 3334TIP3    H131417   5.051   3.156  16.792 -2.7828  0.7632  0.9168
 3334TIP3    H231418   5.080   3.305  16.791  1.4912  0.0546 -0.6463
 3335TIP3   OH231419   5.876   3.648   0.636 -0.2968  0.3013 -0.4985
 3335TIP3    H131420   5.957   3.693   0.660  0.5307 -1.3024 -0.1488
 3335TIP3    H231421   5.889   3.621   0.545 -0.0324 -0.7401 -0.1699
 3336TIP3   OH231422   6.688   3.345   4.818 -0.8211  0.5190 -0.4109
 3336TIP3    H131423   6.775   3.329   4.783 -1.0082 -0.4722 -0.4702
 3336TIP3    H231424   6.698   3.338   4.913 -1.2765 -2.3721 -0.4711
 3337TIP3   OH231425   4.520   2.368   2.247 -0.1758 -0.1702 -0.1235
 3337TIP3    H131426   4.524   2.382   2.341  1.1580  1.3118 -0.3471
 3337TIP3    H231427   4.611   2.373   2.218 -0.4649 -1.6171 -1.3781
 3338TIP3   OH231428   0.654   4.740   2.354  0.0120 -0.0809  0.7371
 3338TIP3    H131429   0.596   4.810   2.324 -0.2573 -0.7513 -0.3653
 3338TIP3    H231430   0.721   4.785   2.406 -1.7115  0.6414  2.4296
 3339TIP3   OH231431   1.240   6.431   1.415 -0.0902  0.5674 -0.6521
 3339TIP3    H131432   1.259   6.497   1.349  0.4971  1.3894  0.3084
 3339TIP3    H231433   1.298   6.358   1.394  0.3437  0.9650 -0.8471
 3340TIP3   OH231434   3.256   4.762  14.382  0.4143  0.5086 -0.0242
 3340TIP3    H131435   3.162   4.747  14.389  0.3437  0.8380 -0.2102
 3340TIP3    H231436   3.274   4.759  14.288  0.3916  1.5509 -0.0728
 3341TIP3   OH231437   5.658   5.787   6.192  0.1882  0.3378 -0.1771
 3341TIP3    H131438   5.720   5.859   6.186 -0.1922  0.6986  0.1506
 3341TIP3    H231439   5.692   5.730   6.261  0.2211  0.4724 -0.0822
 3342TIP3   OH231440   6.686   1.789  11.351  0.9054  0.4932 -0.2585
 3342TIP3    H131441   6.749   1.726  11.315  2.0315  1.3680  0.1336
 3342TIP3    H231442   6.640   1.822  11.274  0.6336 -0.4548 -0.5149
 3343TIP3   OH231443   0.853   0.478  16.276  0.2102 -0.2949  0.8033
 3343TIP3    H131444   0.796   0.411  16.314 -0.0252  0.0100  0.9904
 3343TIP3    H231445   0.845   0.553  16.335 -2.8856  1.5058 -1.5629
 3344TIP3   OH231446   1.000   2.612  15.596  0.7008 -0.0975  0.6789
 3344TIP3    H131447   1.066   2.628  15.528 -0.5806  3.4126  0.0167
 3344TIP3    H231448   1.049   2.606  15.677  2.0108 -0.7192 -0.1278
 3345TIP3   OH231449   0.355   6.615   5.527  0.4813  0.3151 -0.2032
 3345TIP3    H131450   0.281   6.656   5.570  0.7265  1.2264 -0.6271
 3345TIP3    H231451   0.380   6.543   5.585  0.1760  0.8895  0.6594
 3346TIP3   OH231452   4.896   3.999   5.312 -0.0701 -0.1969  0.1520
 3346TIP3    H131453   4.840   4.062   5.267 -0.1942  1.1650  2.1161
 3346TIP3    H231454   4.839   3.922   5.324 -0.8393  0.3622  0.1978
 3347TIP3   OH231455   0.944   2.734  15.943  0.1945 -0.0111  0.0791
 3347TIP3    H131456   0.883   2.770  16.007 -0.9673 -1.7002 -0.0000
 3347TIP3    H231457   0.915   2.770  15.859 -2.0075 -2.2090 -0.2370
 3348TIP3   OH231458   1.438   2.413   6.391  0.2486 -0.0004  0.1456
 3348TIP3    H131459   1.402   2.492   6.432 -0.3907  1.1102 -2.3962
 3348TIP3    H231460   1.405   2.341   6.446 -1.2860  1.3413  1.0680
 3349TIP3   OH231461   2.129   0.663   3.183 -0.1802 -0.0752 -0.1350
 3349TIP3    H131462   2.160   0.742   3.139  0.4679  0.8148  1.7699
 3349TIP3    H231463   2.034   0.663   3.170 -0.1406  0.8181 -0.4664
 3350TIP3   OH231464   5.971   1.919  14.904  0.3682 -0.2876  0.3783
 3350TIP3    H131465   6.027   1.842  14.897  0.0560 -0.3693 -2.0486
 3350TIP3    H231466   6.018   1.988  14.859  0.2312  0.7490  1.7350
 3351TIP3   OH231467   5.461   1.551   3.991 -0.2617  0.5277 -0.2352
 3351TIP3    H131468   5.515   1.568   3.914  1.1910 -0.9828  0.3946
 3351TIP3    H231469   5.423   1.636   4.013  0.8904  1.3861 -1.4332
 3352TIP3   OH231470   1.364   4.323   0.739  0.6745  0.0108  0.1733
 3352TIP3    H131471   1.268   4.325   0.735  0.5893 -0.8059  1.5212
 3352TIP3    H231472   1.387   4.235   0.711  1.0425  0.1687 -0.0288
 3353TIP3   OH231473   1.768   1.079  15.211 -0.3327  0.5624 -0.6363
 3353TIP3    H131474   1.768   0.993  15.253 -1.2745  0.6519 -0.4317
 3353TIP3    H231475   1.714   1.067  15.133  0.1018  0.8035 -0.9789
 3354TIP3   OH231476   4.366   0.905  15.018  0.1338 -0.1795 -0.1929
 3354TIP3    H131477   4.371   0.971  14.949 -2.5246 -0.3941 -0.6706
 3354TIP3    H231478   4.330   0.951  15.093 -0.7938 -0.8469 -0.2153
 3355TIP3   OH231479   4.775   0.483   4.463  0.0845 -0.2491  0.0108
 3355TIP3    H131480   4.686   0.479   4.427 -0.9140 -1.3057  2.3577
 3355TIP3    H231481   4.824   0.536   4.401 -2.2463  0.5780 -1.2402
 3356TIP3   OH231482   1.332   6.140   3.629 -0.0404 -0.4341 -0.2276
 3356TIP3    H131483   1.375   6.072   3.682 -0.4263 -1.1174 -0.7696
 3356TIP3    H231484   1.239   6.115   3.629 -0.3233  0.5573  0.2377
 3357TIP3   OH231485   0.488   5.978  12.293 -0.0643  0.4662 -0.0419
 3357TIP3    H131486   0.416   6.034  12.266  0.6407  1.7012  0.5362
 3357TIP3    H231487   0.543   6.035  12.348  1.3582 -0.4187 -0.4925
 3358TIP3   OH231488   6.667   4.870  15.074  0.3070 -0.2173 -0.2192
 3358TIP3    H131489   6.694   4.785  15.040 -3.6051 -1.8717  0.3531
 3358TIP3    H231490   6.636   4.918  14.998  0.8195  0.0133 -0.2882
 3359TIP3   OH231491   6.036   2.567   2.875 -0.3034  0.1353 -0.7693
 3359TIP3    H131492   5.990   2.650   2.865  0.3472  0.2673 -3.4936
 3359TIP3    H231493   5.968   2.501   2.867 -0.9018  0.3186  1.9133
 3360TIP3   OH231494   3.057   1.933   0.812 -0.2726  0.2816 -0.2461
 3360TIP3    H131495   2.986   1.870   0.799  0.9852 -1.3486  0.4261
 3360TIP3    H231496   3.037   1.975   0.895 -1.0965  0.7706 -0.6753
 3361TIP3   OH231497   1.360   3.901   3.288 -0.8680 -0.2164 -0.2369
 3361TIP3    H131498   1.300   3.861   3.350 -1.0927  1.4339  0.6545
 3361TIP3    H231499   1.436   3.843   3.287 -1.0263 -0.4789  1.2946
 3362TIP3   OH231500   0.998   4.207  14.892  0.4024  0.2581 -0.2359
 3362TIP3    H131501   0.927   4.156  14.855  0.2239  1.4116 -1.5850
 3362TIP3    H231502   1.037   4.151  14.958 -0.9900 -0.8525 -0.3337
 3363TIP3   OH231503   3.396   3.750   0.892 -0.6860 -0.3223 -0.5645
 3363TIP3    H131504   3.307   3.723   0.910 -1.1867  0.1932 -2.0856
 3363TIP3    H231505   3.390   3.798   0.809  0.4543  2.6888  0.9577
 3364TIP3   OH231506   5.217   0.158  16.991  0.5031 -0.0861  0.0128
 3364TIP3    H131507   5.204   0.097  16.918  0.8913 -2.0568  1.5169
 3364TIP3    H231508   5.282   0.116  17.046 -1.5009  0.1613  2.7637
 3365TIP3   OH231509   0.968   6.589  12.186  0.2514 -0.3223  0.4135
 3365TIP3    H131510   0.886   6.588  12.138  0.7443 -0.5038 -0.4487
 3365TIP3    H231511   1.035   6.570  12.120  1.0777  0.7320  0.9076
 3366TIP3   OH231512   0.774   3.704  14.036 -0.9622 -0.5894  0.1756
 3366TIP3    H131513   0.678   3.710  14.035 -0.9741 -0.5491 -1.5219
 3366TIP3    H231514   0.799   3.701  13.944  0.5737 -2.4296  0.5899
 3367TIP3   OH231515   1.267   3.502  13.695  0.7006 -0.2275 -0.1718
 3367TIP3    H131516   1.207   3.549  13.753  1.5589  0.4572  0.1958
 3367TIP3    H231517   1.254   3.543  13.609  1.9040  1.1784  0.2783
 3368TIP3   OH231518   1.002   3.238   3.774 -0.7628 -0.0408 -0.0713
 3368TIP3    H131519   0.982   3.148   3.801 -1.5758  0.6666  1.9308
 3368TIP3    H231520   0.935   3.259   3.710  0.4470 -1.3757 -1.8633
 3369TIP3   OH231521   0.300   0.458  13.979 -0.5776 -0.1271  0.5559
 3369TIP3    H131522   0.378   0.507  13.950 -0.5259 -0.2934  0.4110
 3369TIP3    H231523   0.301   0.466  14.074 -1.1356  1.0202  0.4873
 3370TIP3   OH231524   1.836   0.686  15.685  0.0049  0.0811  0.7954
 3370TIP3    H131525   1.889   0.758  15.719 -1.3067  0.7193  1.5717
 3370TIP3    H231526   1.749   0.700  15.722 -0.6024 -1.2094 -0.0415
 3371TIP3   OH231527   6.089   3.079   3.801 -0.0951  0.3618 -0.0950
 3371TIP3    H131528   6.013   3.031   3.836  1.2301 -1.8571 -0.0303
 3371TIP3    H231529   6.054   3.129   3.727 -1.7019 -0.3014  0.1769
 3372TIP3   OH231530   2.262   4.245   4.810 -0.1112  0.3723  0.2623
 3372TIP3    H131531   2.282   4.183   4.741  1.1030  0.9973  0.0407
 3372TIP3    H231532   2.166   4.250   4.811 -0.1539  1.5251 -2.4476
 3373TIP3   OH231533   2.047   2.280   5.652  0.6771  0.8470  0.1763
 3373TIP3    H131534   2.140   2.292   5.673  0.4016 -1.2071  3.3230
 3373TIP3    H231535   2.011   2.369   5.657  2.3716  1.6479 -0.7539
 3374TIP3   OH231536   2.270   5.923  15.481  0.5576  0.1176  0.3022
 3374TIP3    H131537   2.313   5.957  15.560  0.6837  0.0667  0.2560
 3374TIP3    H231538   2.333   5.861  15.444 -0.3268 -1.3888  1.2631
 3375TIP3   OH231539   3.787   2.103  13.693  0.2513 -0.2546  0.1746
 3375TIP3    H131540   3.788   2.132  13.601 -0.9863  0.3772  0.3377
 3375TIP3    H231541   3.862   2.146  13.733 -1.8435  3.4083  0.5648
 3376TIP3   OH231542   2.161   1.197  12.524  0.0430  0.0445 -0.2308
 3376TIP3    H131543   2.133   1.119  12.475  0.3965 -0.1557 -0.1225
 3376TIP3    H231544   2.094   1.263  12.505  1.4903  0.8522 -3.1489
 3377TIP3   OH231545   4.836   4.917  11.509 -0.5875  0.2374  0.6555
 3377TIP3    H131546   4.758   4.863  11.503  0.5655 -1.6800  1.7411
 3377TIP3    H231547   4.874   4.894  11.594  0.7688  1.6732  0.4906
 3378TIP3   OH231548   0.890   2.170   1.859 -0.3361 -0.8159 -0.1483
 3378TIP3    H131549   0.953   2.218   1.912 -0.8705  0.9516 -1.0389
 3378TIP3    H231550   0.888   2.082   1.897 -0.7176  0.3572  2.8040
 3379TIP3   OH231551   5.631   1.896   0.429 -0.1195  0.4477 -0.0777
 3379TIP3    H131552   5.670   1.878   0.515 -2.6013  1.2779  1.3163
 3379TIP3    H231553   5.589   1.813   0.404  1.4099 -0.0902 -1.0243
 3380TIP3   OH231554   4.177   0.105   5.084 -0.5708 -0.3381 -0.8256
 3380TIP3    H131555   4.127   0.181   5.113  1.4978  0.4249  1.0454
 3380TIP3    H231556   4.195   0.056   5.165  1.6737 -0.5411 -1.3854
 3381TIP3   OH231557   6.212   1.143  16.998  0.1957 -0.4766  0.0927
 3381TIP3    H131558   6.242   1.064  17.043 -0.6245 -0.6275  0.4021
 3381TIP3    H231559   6.207   1.118  16.906  1.2199 -0.3773  0.0064
 3382TIP3   OH231560   4.548   2.997  12.296  0.0752  0.5684  0.1976
 3382TIP3    H131561   4.544   2.912  12.254 -0.7068  0.2381  0.8920
 3382TIP3    H231562   4.541   3.060  12.224  0.9857  0.0666 -0.3495
 3383TIP3   OH231563   0.855   2.563   1.403 -0.0470 -0.3610 -0.3487
 3383TIP3    H131564   0.876   2.484   1.353 -0.3559  0.2971 -1.5460
 3383TIP3    H231565   0.817   2.623   1.339  0.5986  0.9390  0.4474
 3384TIP3   OH231566   3.379   3.828   6.154 -0.4425 -0.4349  0.1614
 3384TIP3    H131567   3.467   3.800   6.179 -0.9637 -2.0619  0.2377
 3384TIP3    H231568   3.363   3.786   6.070 -0.2713  1.7651 -1.0649
 3385TIP3   OH231569   2.174   4.057  12.280  0.7674 -0.2176  0.3106
 3385TIP3    H131570   2.245   4.097  12.330 -0.3590  1.2050  0.8589
 3385TIP3    H231571   2.212   4.040  12.194  1.6707  0.9020  0.4565
 3386TIP3   OH231572   1.600   2.590  15.629  0.0050  0.1168 -0.1571
 3386TIP3    H131573   1.599   2.667  15.686 -3.0224  0.9163 -1.1119
 3386TIP3    H231574   1.688   2.588  15.592  0.7457  1.9677  1.3477
 3387TIP3   OH231575   5.958   2.112   4.947  0.9330 -0.1973  0.0453
 3387TIP3    H131576   6.006   2.032   4.970  2.5406 -0.0395 -2.3714
 3387TIP3    H231577   6.026   2.178   4.937  0.0267  0.5653 -1.4883
 3388TIP3   OH231578   4.100   5.594  13.847 -0.0755  0.0633  0.2022
 3388TIP3    H131579   4.107   5.587  13.942  0.2250 -0.2908  0.1576
 3388TIP3    H231580   4.183   5.557  13.814 -0.6623 -0.9114 -0.2304
 3389TIP3   OH231581   3.947   6.008  16.567 -0.1964  0.2626 -0.1708
 3389TIP3    H131582   3.880   6.073  16.548 -0.5514  0.7418  2.3523
 3389TIP3    H231583   3.899   5.929  16.590  0.1893 -0.2745 -1.1642
 3390TIP3   OH231584   1.373   2.796  14.384  0.1787 -0.2801 -0.4460
 3390TIP3    H131585   1.456   2.747  14.389  2.5158  3.1971 -1.5075
 3390TIP3    H231586   1.359   2.811  14.291  0.7539  2.6891 -0.1588
 3391TIP3   OH231587   2.322   3.970   3.054  0.4851  0.0542  0.2934
 3391TIP3    H131588   2.329   3.895   3.113  0.6205 -0.2649 -0.1236
 3391TIP3    H231589   2.229   3.976   3.033  0.7378 -1.4581 -1.5212
 3392TIP3   OH231590   4.540   4.966   5.255  0.2396 -0.0103  0.3619
 3392TIP3    H131591   4.472   4.995   5.316  0.2308  1.3618 -0.2485
 3392TIP3    H231592   4.504   4.887   5.215 -0.6540  0.2515  0.6248
 3393TIP3   OH231593   6.217   3.920  17.274 -0.4556  0.4096 -0.0581
 3393TIP3    H131594   6.147   3.985  17.272  0.1355  1.0811  0.5962
 3393TIP3    H231595   6.196   3.861  17.202 -1.6917  0.5920  0.1262
 3394TIP3   OH231596   3.704   4.558  17.040  0.3744 -0.4677 -0.8122
 3394TIP3    H131597   3.666   4.644  17.062 -0.0803 -1.1280  1.2617
 3394TIP3    H231598   3.787   4.578  16.997  0.3951  1.0213 -0.1290
 3395TIP3   OH231599   2.694   1.683   3.099 -0.5529 -0.3593  0.3469
 3395TIP3    H131600   2.770   1.635   3.132 -0.2594 -0.9040 -1.0225
 3395TIP3    H231601   2.640   1.616   3.057 -1.6202  0.0807  0.9925
 3396TIP3   OH231602   5.275   4.340  13.151  0.0697 -0.1823  0.0196
 3396TIP3    H131603   5.190   4.359  13.192  1.2030  2.6132  1.2881
 3396TIP3    H231604   5.296   4.252  13.183 -2.3514 -0.9982 -0.4117
 3397TIP3   OH231605   2.150   5.786  16.452  0.1735 -0.0018 -0.4149
 3397TIP3    H131606   2.124   5.877  16.440  0.3463  0.1048  0.0161
 3397TIP3    H231607   2.228   5.790  16.507  0.4582 -0.3824 -0.7756
 3398TIP3   OH231608   5.218   4.832  11.867  0.0535  0.2930 -0.5347
 3398TIP3    H131609   5.269   4.909  11.844 -1.5485  2.1718  1.6843
 3398TIP3    H231610   5.257   4.800  11.949  0.6029 -1.1974 -1.3496
 3399TIP3   OH231611   0.816   3.571  16.949  0.3248 -0.3875  0.0994
 3399TIP3    H131612   0.823   3.523  17.032 -1.1901 -1.7122 -0.4925
 3399TIP3    H231613   0.836   3.505  16.882 -3.8092 -0.9097 -0.8674
 3400TIP3   OH231614   0.264   1.884   3.025 -0.7025  0.0076 -0.9630
 3400TIP3    H131615   0.284   1.905   3.117  2.9280 -1.9297 -1.1249
 3400TIP3    H231616   0.191   1.942   3.003 -0.3548  2.0817  2.4926
 3401TIP3   OH231617   0.595   1.341   4.613  0.3659  0.0376  0.1115
 3401TIP3    H131618   0.504   1.370   4.628  0.0000 -1.5847  1.2594
 3401TIP3    H231619   0.631   1.330   4.701  1.8679  1.1274 -0.3362
 3402TIP3   OH231620   5.388   4.041  15.413 -0.0453  0.4729 -0.6669
 3402TIP3    H131621   5.396   4.050  15.508 -0.1848  0.0869 -0.6168
 3402TIP3    H231622   5.325   3.969  15.401 -1.7816  1.9694 -1.0315
 3403TIP3   OH231623   1.327   1.654   2.396  0.0067 -0.4134 -0.3998
 3403TIP3    H131624   1.400   1.611   2.440 -0.1270  1.8348  2.3366
 3403TIP3    H231625   1.368   1.720   2.340  0.1803  0.1648  0.3724
 3404TIP3   OH231626   4.043   4.250   1.437 -0.6248  0.3555  0.0342
 3404TIP3    H131627   4.039   4.157   1.462  0.4935  0.1843 -0.3684
 3404TIP3    H231628   4.034   4.249   1.342  2.9655  0.2809 -0.4593
 3405TIP3   OH231629   3.892   0.992   2.233 -0.2520  0.6092  0.3913
 3405TIP3    H131630   3.812   0.942   2.250 -0.4670  1.2595  1.4083
 3405TIP3    H231631   3.924   0.960   2.149 -2.5496  1.5719 -0.9333
 3406TIP3   OH231632   5.579   1.463  11.994 -0.0281  0.2776  0.4710
 3406TIP3    H131633   5.549   1.499  12.077  0.3114 -0.0829  0.7576
 3406TIP3    H231634   5.670   1.492  11.986 -0.3741  1.1898 -0.2908
 3407TIP3   OH231635   3.196   3.303  14.958  0.0747  0.0090 -0.6226
 3407TIP3    H131636   3.273   3.247  14.955 -0.5450 -0.8311 -1.4152
 3407TIP3    H231637   3.218   3.377  14.901  0.5942  0.1773 -0.2036
 3408TIP3   OH231638   1.578   0.584   0.447 -0.0835  0.5423  0.7245
 3408TIP3    H131639   1.491   0.564   0.481 -1.1172 -0.4912 -2.2019
 3408TIP3    H231640   1.586   0.679   0.454 -0.8585  0.5305  2.1960
 3409TIP3   OH231641   0.845   6.516  15.267  0.2232 -0.5376  0.1131
 3409TIP3    H131642   0.764   6.499  15.219  0.2624  0.8546 -0.4849
 3409TIP3    H231643   0.827   6.487  15.356  0.0409 -2.9007 -0.6035
 3410TIP3   OH231644   4.198   2.558   5.300  0.1053 -0.3327  0.5632
 3410TIP3    H131645   4.219   2.508   5.221  1.6646  0.7832  0.2270
 3410TIP3    H231646   4.238   2.508   5.371  1.6881  0.3722  0.2239
 3411TIP3   OH231647   4.648   3.400   5.120 -0.2552 -0.3039  0.3422
 3411TIP3    H131648   4.580   3.387   5.186 -0.5215 -1.9406 -0.1982
 3411TIP3    H231649   4.626   3.336   5.051  1.1955 -0.0869 -0.3491
 3412TIP3   OH231650   1.650   5.091  13.655  0.1718 -0.2581 -0.0829
 3412TIP3    H131651   1.583   5.044  13.605  0.8708 -1.6244  0.2201
 3412TIP3    H231652   1.600   5.154  13.707 -0.7517 -0.2904 -0.8865
 3413TIP3   OH231653   4.225   1.781   3.003  0.4356  0.2495 -0.4003
 3413TIP3    H131654   4.239   1.712   3.068  0.2847  1.2667  0.7508
 3413TIP3    H231655   4.244   1.739   2.919  0.3161 -1.1932  0.2606
 3414TIP3   OH231656   2.746   0.731  12.885  0.2608 -0.3522  0.4548
 3414TIP3    H131657   2.712   0.787  12.955 -0.4033 -1.2478  0.8856
 3414TIP3    H231658   2.780   0.654  12.931 -2.5941 -2.2008 -0.2550
 3415TIP3   OH231659   6.327   1.466   3.787 -0.8505  0.3363  0.6124
 3415TIP3    H131660   6.411   1.485   3.828 -1.6869 -0.1967  2.7097
 3415TIP3    H231661   6.263   1.483   3.856 -2.5141  1.0130 -1.0095
 3416TIP3   OH231662   0.684   5.464   0.091 -0.1527 -0.3515  0.2521
 3416TIP3    H131663   0.703   5.375   0.122 -0.9726 -0.6078  0.0419
 3416TIP3    H231664   0.680   5.516   0.172  2.0016 -0.1368  0.2854
 3417TIP3   OH231665   4.039   1.764   0.955  0.0603 -0.2548 -0.1051
 3417TIP3    H131666   4.112   1.818   0.926 -0.3088 -0.1084 -0.7944
 3417TIP3    H231667   4.058   1.744   1.046 -0.0198  1.3923  0.2989
 3418TIP3   OH231668   0.026   4.688  12.308  0.0327  0.2070  0.2365
 3418TIP3    H131669   0.029   4.758  12.372 -1.7168 -0.7100  1.4147
 3418TIP3    H231670  -0.047   4.632  12.337  0.1787 -1.0818 -1.6817
 3419TIP3   OH231671   5.803   4.373   0.166 -0.0628 -0.2698  0.0312
 3419TIP3    H131672   5.813   4.281   0.190 -0.7481  0.1802  2.3102
 3419TIP3    H231673   5.892   4.407   0.165  0.2127 -0.9605 -1.0015
 3420TIP3   OH231674   5.899   6.644  15.497 -0.4911  0.1074 -0.1883
 3420TIP3    H131675   5.849   6.679  15.570 -0.2434 -0.5690  0.3084
 3420TIP3    H231676   5.868   6.555  15.486  0.0774 -0.0758 -0.3610
 3421TIP3   OH231677   1.280   2.340   5.972  0.0213  0.2331  0.0848
 3421TIP3    H131678   1.343   2.404   5.939  0.6465 -1.1265 -1.4653
 3421TIP3    H231679   1.221   2.392   6.027  1.3537  1.8748  0.0555
 3422TIP3   OH231680   3.382   4.466  15.830  0.4556  0.0184 -0.9073
 3422TIP3    H131681   3.287   4.463  15.820  0.3802 -0.1520 -0.1616
 3422TIP3    H231682   3.396   4.493  15.920  1.1193 -0.3034 -0.9090
 3423TIP3   OH231683   2.512   6.675   4.915  0.4197 -0.7274 -0.4495
 3423TIP3    H131684   2.556   6.753   4.949  1.4136 -1.6004  0.3149
 3423TIP3    H231685   2.579   6.629   4.865 -0.6577 -0.1749 -2.5164
 3424TIP3   OH231686   0.385   2.018   5.246  0.7214  0.5772 -0.2097
 3424TIP3    H131687   0.331   1.966   5.305 -0.3470  0.3234 -1.3827
 3424TIP3    H231688   0.468   1.970   5.241  0.3574 -0.0900  0.0468
 3425TIP3   OH231689   4.386   1.949   1.459  0.1749 -0.2128 -0.7707
 3425TIP3    H131690   4.391   1.866   1.411 -0.8585 -0.9561  0.3373
 3425TIP3    H231691   4.326   2.003   1.407 -0.6218 -0.8617 -0.5474
 3426TIP3   OH231692   1.408   5.602   5.779 -0.7867 -0.1252 -0.0564
 3426TIP3    H131693   1.363   5.684   5.797 -0.6244  0.4029 -1.8548
 3426TIP3    H231694   1.367   5.538   5.838 -1.2694  1.1103  0.9887
 3427TIP3   OH231695   6.620   3.404  16.950 -0.4630 -0.3494  0.1945
 3427TIP3    H131696   6.688   3.378  17.012  0.4683  0.9249 -0.2693
 3427TIP3    H231697   6.647   3.363  16.867 -0.6923 -0.4894  0.1877
 3428TIP3   OH231698   1.347   3.512  14.104  0.1952 -0.0316 -0.3015
 3428TIP3    H131699   1.253   3.516  14.083 -0.1148  1.7323  1.1359
 3428TIP3    H231700   1.355   3.441  14.166 -0.0546 -0.6639 -0.9778
 3429TIP3   OH231701   4.713   2.940  13.182  0.1251  0.4709  0.0741
 3429TIP3    H131702   4.644   3.003  13.160  0.4376  1.2089  1.1078
 3429TIP3    H231703   4.794   2.981  13.151  0.2012 -0.0128 -0.3853
 3430TIP3   OH231704   5.305   0.767   4.569 -0.5236 -0.2677  0.8549
 3430TIP3    H131705   5.246   0.703   4.529 -0.2154  0.3274 -0.6020
 3430TIP3    H231706   5.336   0.820   4.496 -0.2808  1.1514  1.9480
 3431TIP3   OH231707   2.752   3.108   6.072  0.3299 -0.4916  0.2605
 3431TIP3    H131708   2.711   3.168   6.010 -1.7931 -2.7862 -0.7301
 3431TIP3    H231709   2.696   3.111   6.150  0.0211 -1.3644  0.0853
 3432TIP3   OH231710   0.477   0.259  15.361 -0.2796  0.4658  0.3976
 3432TIP3    H131711   0.455   0.277  15.453  2.1089  1.0528  0.9218
 3432TIP3    H231712   0.570   0.282  15.354 -0.3208  0.0896 -2.0974
 3433TIP3   OH231713   1.675   5.236   3.541  0.1462  0.7014  0.6451
 3433TIP3    H131714   1.767   5.253   3.518 -0.0672  1.2643  0.1801
 3433TIP3    H231715   1.641   5.322   3.568 -0.0427  0.3557  1.5679
 3434TIP3   OH231716   5.449   1.304   4.655  0.4199 -0.0495 -0.0659
 3434TIP3    H131717   5.480   1.331   4.742  0.2833 -1.9341  0.6158
 3434TIP3    H231718   5.359   1.336   4.651  1.2123  2.3342 -0.6233
 3435TIP3   OH231719   2.930   3.484   5.682 -0.3684  0.3270  0.2094
 3435TIP3    H131720   2.941   3.439   5.766 -0.2215  0.4327  0.2478
 3435TIP3    H231721   2.893   3.418   5.624  1.2793 -0.3103 -0.1680
 3436TIP3   OH231722   5.642   4.427  10.988 -0.0083 -0.2231 -0.4314
 3436TIP3    H131723   5.569   4.391  10.937 -1.3163  2.2602 -0.4449
 3436TIP3    H231724   5.720   4.398  10.941 -0.9311 -2.8568 -0.4887
 3437TIP3   OH231725   3.408   0.367   2.087 -0.2405 -0.0257 -0.7366
 3437TIP3    H131726   3.369   0.438   2.035 -0.9377  0.8821  0.9185
 3437TIP3    H231727   3.402   0.399   2.178  0.8176 -1.5797 -0.0849
 3438TIP3   OH231728   0.352   1.868   0.528 -0.2730  0.4439 -0.0291
 3438TIP3    H131729   0.313   1.818   0.600 -0.5806  0.6663 -0.0390
 3438TIP3    H231730   0.436   1.899   0.562  1.2855 -2.4330 -0.9326
 3439TIP3   OH231731   3.548   2.470   3.708 -0.2102 -0.9083  0.2959
 3439TIP3    H131732   3.513   2.478   3.619 -0.0091 -2.6927  0.0132
 3439TIP3    H231733   3.642   2.482   3.698 -0.1309 -1.5947  0.1788
 3440TIP3   OH231734   3.058   3.232   2.168  0.0190 -0.4529 -0.3015
 3440TIP3    H131735   2.987   3.188   2.122  0.2560  0.9008 -2.0595
 3440TIP3    H231736   3.136   3.182   2.145  0.0180 -0.2836 -0.6738
 3441TIP3   OH231737   1.524   0.214  10.416 -0.2382  0.0986 -0.2063
 3441TIP3    H131738   1.527   0.272  10.491 -2.1708  0.6883 -0.5516
 3441TIP3    H231739   1.472   0.139  10.445  0.4549 -0.4905 -0.4382
 3442TIP3   OH231740   5.171   0.460  12.967 -0.3139 -0.0754 -0.3393
 3442TIP3    H131741   5.217   0.376  12.960 -1.0007 -0.4450 -0.5237
 3442TIP3    H231742   5.079   0.439  12.950 -0.4434  0.7753 -0.7625
 3443TIP3   OH231743   1.181   5.914  14.948 -0.4447 -0.5301 -0.4543
 3443TIP3    H131744   1.166   5.981  14.882  0.6397 -1.4783 -1.7339
 3443TIP3    H231745   1.249   5.949  15.004 -0.5729 -0.1683 -0.5256
 3444TIP3   OH231746   0.922   3.878  15.645  0.4333  0.3137  0.0512
 3444TIP3    H131747   1.010   3.861  15.611  1.0517 -0.2031  1.8268
 3444TIP3    H231748   0.881   3.792  15.651 -0.0554  0.5103 -0.3714
 3445TIP3   OH231749   0.578   1.399  13.873 -0.8112 -0.2865  0.0578
 3445TIP3    H131750   0.496   1.435  13.906  0.7537  3.0851  0.7547
 3445TIP3    H231751   0.595   1.447  13.793 -0.0148 -1.7228 -0.6754
 3446TIP3   OH231752   4.790   1.283  17.255  0.4102 -0.4657 -0.2201
 3446TIP3    H131753   4.734   1.344  17.303  2.0092 -0.0536  1.2314
 3446TIP3    H231754   4.843   1.339  17.199  0.4257 -0.7107 -0.4525
 3447TIP3   OH231755   2.971   3.630  14.416 -0.2355 -0.6901  0.3241
 3447TIP3    H131756   2.962   3.576  14.337  0.7887  0.9891 -1.0112
 3447TIP3    H231757   3.059   3.608  14.449 -0.7879 -1.6263  1.2104
 3448TIP3   OH231758   6.282   2.545  17.261  0.0323  0.4052 -0.5755
 3448TIP3    H131759   6.240   2.623  17.298 -1.5101 -0.2986 -0.7417
 3448TIP3    H231760   6.361   2.578  17.219  2.8148  1.1022  4.4391
 3449TIP3   OH231761   0.826   4.151  14.277  0.0716 -0.2389  0.0333
 3449TIP3    H131762   0.884   4.122  14.347  0.4730  2.1388  0.7682
 3449TIP3    H231763   0.765   4.211  14.320  0.6298  1.6761 -1.6856
 3450TIP3   OH231764   2.243   4.895  16.704  0.2027 -0.4545 -0.2428
 3450TIP3    H131765   2.295   4.963  16.746  0.7795 -0.8325 -0.3365
 3450TIP3    H231766   2.305   4.825  16.687 -0.6502 -1.6088  1.1556
 3451TIP3   OH231767   3.481   4.257  16.039 -0.7021 -0.5202  0.2873
 3451TIP3    H131768   3.418   4.194  16.004 -0.8428 -0.1716 -0.0918
 3451TIP3    H231769   3.428   4.332  16.065 -0.4509 -0.2639  0.0592
 3452TIP3   OH231770   4.236   6.586   2.185  0.2875  0.5366 -0.0751
 3452TIP3    H131771   4.239   6.542   2.270  0.9800 -0.3934 -0.5767
 3452TIP3    H231772   4.316   6.638   2.183  0.4235  0.3182 -0.2868
 3453TIP3   OH231773   6.143   4.755   1.884 -0.2712 -0.4333 -0.1442
 3453TIP3    H131774   6.126   4.667   1.918 -0.4584 -0.2393  0.2634
 3453TIP3    H231775   6.103   4.755   1.797 -0.3390 -0.7270 -0.1143
 3454TIP3   OH231776   3.599   2.678  16.990  0.5631 -0.0619 -0.2385
 3454TIP3    H131777   3.550   2.598  16.973  0.2867 -0.0256  0.3521
 3454TIP3    H231778   3.689   2.647  17.007  0.4266 -0.2613  0.1339
 3455TIP3   OH231779   5.967   2.389   1.357 -0.3791 -0.2932 -0.2933
 3455TIP3    H131780   6.057   2.356   1.355 -0.2237  0.1604 -1.1696
 3455TIP3    H231781   5.976   2.484   1.357 -0.8400 -0.2092 -1.9432
 3456TIP3   OH231782   3.132   3.522   2.131 -0.0004  0.4493  0.0869
 3456TIP3    H131783   3.125   3.432   2.164  0.0462  0.2622 -0.4109
 3456TIP3    H231784   3.046   3.561   2.146 -0.4281 -0.0945 -0.9128
 3457TIP3   OH231785   0.814   6.059   4.768 -0.2112 -0.1309 -0.1355
 3457TIP3    H131786   0.904   6.065   4.735 -0.4490 -1.4205 -1.0905
 3457TIP3    H231787   0.768   6.131   4.724  0.1868  0.0715 -0.2297
 3458TIP3   OH231788   2.375   4.665  12.811 -0.3129 -0.2283  0.0559
 3458TIP3    H131789   2.285   4.678  12.782  0.4872  1.6868 -1.9134
 3458TIP3    H231790   2.378   4.703  12.899 -1.6644 -1.4697  0.6821
 3459TIP3   OH231791   5.863   2.478  15.526  0.1489 -0.4731 -0.3517
 3459TIP3    H131792   5.946   2.524  15.532  0.6130 -1.1168 -1.5717
 3459TIP3    H231793   5.818   2.500  15.608  0.7463  1.3224 -0.4683
 3460TIP3   OH231794   2.852   5.722   5.001 -0.3462 -0.9237  0.5550
 3460TIP3    H131795   2.881   5.698   4.913 -0.3438 -1.3857  0.6777
 3460TIP3    H231796   2.807   5.806   4.990 -1.1475 -1.4123 -0.0488
 3461TIP3   OH231797   3.954   5.501   0.479 -0.0708 -0.1958 -0.2370
 3461TIP3    H131798   4.026   5.480   0.539 -1.0984 -0.4607  0.9282
 3461TIP3    H231799   3.893   5.552   0.532 -0.4423  0.5902 -1.3966
 3462TIP3   OH231800   4.037   0.290  11.919 -0.2315 -0.1881  0.0523
 3462TIP3    H131801   4.091   0.326  11.990  0.0922  0.2164 -0.3927
 3462TIP3    H231802   4.028   0.197  11.941  0.8527 -0.3199  0.0193
 3463TIP3   OH231803   1.353   3.210   4.092 -0.2816 -0.4315  0.1625
 3463TIP3    H131804   1.316   3.205   4.004  2.1949 -0.2820 -0.9837
 3463TIP3    H231805   1.430   3.267   4.082 -0.8398  0.9240  2.7983
 3464TIP3   OH231806   3.860   2.006  16.614  0.1360 -0.4023 -0.1725
 3464TIP3    H131807   3.868   1.918  16.650  0.7502  0.7569  2.7718
 3464TIP3    H231808   3.947   2.026  16.580  0.7252 -0.0041  1.5241
 3465TIP3   OH231809   6.662   4.311  14.766 -0.2178  0.0203  0.0621
 3465TIP3    H131810   6.627   4.382  14.711 -1.1630 -0.0571  0.5268
 3465TIP3    H231811   6.693   4.356  14.845 -0.9647 -0.0801  0.4258
 3466TIP3   OH231812   2.107   6.250   3.941  0.4379  0.3870  0.2430
 3466TIP3    H131813   2.189   6.254   3.990  0.6496  2.3830 -0.1916
 3466TIP3    H231814   2.040   6.278   4.004 -0.1419 -2.2819  0.9250
 3467TIP3   OH231815   5.825   4.346   5.365 -0.1511  0.0038  0.5968
 3467TIP3    H131816   5.860   4.333   5.453 -0.2933 -1.1447  0.5022
 3467TIP3    H231817   5.799   4.259   5.336 -1.2134  0.5352 -0.1292
 3468TIP3   OH231818   2.520   0.818   2.159 -0.7491  0.6819 -0.3315
 3468TIP3    H131819   2.483   0.777   2.081  2.7274 -1.8008 -0.9049
 3468TIP3    H231820   2.567   0.895   2.126  0.5274 -0.2384 -0.7297
 3469TIP3   OH231821   0.483   1.792   5.546 -0.1311 -0.2917 -0.3989
 3469TIP3    H131822   0.401   1.763   5.506 -0.4382 -0.4387  0.3138
 3469TIP3    H231823   0.457   1.866   5.602  0.4704  0.6674 -1.3508
 3470TIP3   OH231824   2.789   3.764   2.990  0.5438  0.0928  0.2595
 3470TIP3    H131825   2.814   3.672   2.982  0.1520  0.1111 -1.5921
 3470TIP3    H231826   2.771   3.792   2.900 -1.2356  1.4481  0.9741
 3471TIP3   OH231827   2.665   0.888  15.121 -0.0056 -0.1775 -0.0804
 3471TIP3    H131828   2.655   0.979  15.150 -1.5208 -1.0470  2.3683
 3471TIP3    H231829   2.577   0.861  15.094 -0.2103 -1.6908  1.8635
 3472TIP3   OH231830   4.711   3.704   1.848 -0.0237  0.2455 -0.1461
 3472TIP3    H131831   4.647   3.772   1.824  2.0505  2.0018 -1.0213
 3472TIP3    H231832   4.724   3.654   1.768  1.2143  1.2525 -0.6115
 3473TIP3   OH231833   0.205   6.656  14.600 -0.0094  0.5472 -0.6121
 3473TIP3    H131834   0.265   6.717  14.644  0.4350 -0.6772  0.5446
 3473TIP3    H231835   0.256   6.618  14.529 -0.0081  0.8757 -0.7880
 3474TIP3   OH231836   4.759   0.458   1.136 -0.5201 -0.3969  0.1081
 3474TIP3    H131837   4.694   0.444   1.067  1.1356 -1.9105 -1.2536
 3474TIP3    H231838   4.766   0.554   1.143 -2.4104 -0.1941 -0.0952
 3475TIP3   OH231839   0.004   0.847   5.083  0.0237  0.9512 -0.0900
 3475TIP3    H131840  -0.068   0.910   5.073 -2.4410 -1.8186 -1.7617
 3475TIP3    H231841   0.003   0.824   5.176 -0.2766  1.9836  0.1805
 3476TIP3   OH231842   2.719   4.207  14.237 -0.6564 -0.1722  0.4433
 3476TIP3    H131843   2.694   4.265  14.308 -2.0890  0.7071 -0.7034
 3476TIP3    H231844   2.792   4.155  14.271 -0.6229  0.9508  2.1531
 3477TIP3   OH231845   5.163   5.002  12.940  0.2451  0.2788 -0.2471
 3477TIP3    H131846   5.197   5.051  13.015 -0.0290  0.3659 -0.1788
 3477TIP3    H231847   5.144   4.915  12.974  0.1513  0.3087 -0.2223
 3478TIP3   OH231848   1.488   3.753  12.683 -0.5453 -0.6035 -0.5579
 3478TIP3    H131849   1.468   3.692  12.612 -2.9553  0.2986 -0.7440
 3478TIP3    H231850   1.540   3.702  12.745  1.4514 -1.4805 -2.7942
 3479TIP3   OH231851   4.221   5.923  10.595  0.1893 -0.4634  0.3627
 3479TIP3    H131852   4.253   5.993  10.538 -0.0937 -0.2040  0.5194
 3479TIP3    H231853   4.300   5.879  10.627  0.3648 -0.2563  0.2153
 3480TIP3   OH231854   1.527   5.382  13.249 -0.2227 -0.1491 -0.4746
 3480TIP3    H131855   1.488   5.297  13.271  0.0564  0.2307  1.6613
 3480TIP3    H231856   1.453   5.443  13.251 -0.3225 -0.2231 -1.4208
 3481TIP3   OH231857   5.182   4.035  14.754  0.3189 -0.6330  0.8941
 3481TIP3    H131858   5.146   4.101  14.695  1.6687  0.1914  0.9672
 3481TIP3    H231859   5.120   3.962  14.748 -1.6889  0.9344  1.4959
 3482TIP3   OH231860   3.971   1.403  14.529 -0.2747 -0.6464 -0.2748
 3482TIP3    H131861   3.947   1.396  14.436 -2.3487 -0.9397  0.2261
 3482TIP3    H231862   3.910   1.469  14.564  0.5230 -0.4872  0.8659
 3483TIP3   OH231863   2.915   5.241   1.276 -0.1702  0.2484  0.9145
 3483TIP3    H131864   2.874   5.156   1.292  0.2502  0.0160  0.7941
 3483TIP3    H231865   2.899   5.259   1.184  0.9015 -0.3568  0.5866
 3484TIP3   OH231866   5.375   0.397  13.985 -0.3738 -0.1607  0.3270
 3484TIP3    H131867   5.332   0.333  13.929 -2.1185  0.7095  0.5973
 3484TIP3    H231868   5.383   0.355  14.070  0.0287 -0.5984  0.0781
 3485TIP3   OH231869   6.432   5.531  11.983  0.1350 -0.3158  0.7048
 3485TIP3    H131870   6.369   5.566  12.045 -0.0798  1.0337 -0.2479
 3485TIP3    H231871   6.380   5.503  11.908  0.6772  1.7684 -0.5349
 3486TIP3   OH231872   0.276   2.430   5.726  0.4049 -0.5609  0.5687
 3486TIP3    H131873   0.197   2.482   5.743  0.5287  0.7605 -2.2289
 3486TIP3    H231874   0.250   2.340   5.742 -0.9320  0.0445  2.0297
 3487TIP3   OH231875   4.352   0.655  10.990 -0.0961  0.4704  0.0950
 3487TIP3    H131876   4.403   0.587  10.945  2.3004  1.8117  0.6352
 3487TIP3    H231877   4.261   0.627  10.979  0.6830 -1.8464 -1.2671
 3488TIP3   OH231878   5.842   4.895   3.854  0.5105  0.5337 -0.2968
 3488TIP3    H131879   5.852   4.964   3.919  0.6575 -0.5506  0.8596
 3488TIP3    H231880   5.760   4.918   3.809 -0.1880  0.7198  1.0036
 3489TIP3   OH231881   2.040   1.869  15.567 -0.2259 -0.0332  0.1758
 3489TIP3    H131882   2.116   1.889  15.622 -1.1720  2.3184  0.7246
 3489TIP3    H231883   2.076   1.855  15.479  0.9304 -0.1687  0.6593
 3490TIP3   OH231884   5.788   0.539   3.532 -0.6230 -0.0387 -0.3042
 3490TIP3    H131885   5.791   0.476   3.460 -1.1594  0.0451 -0.4052
 3490TIP3    H231886   5.742   0.615   3.496 -0.4244  0.2123 -0.0326
 3491TIP3   OH231887   5.472   6.135  16.370  0.6713 -0.5362 -0.1254
 3491TIP3    H131888   5.422   6.126  16.289  1.3000 -0.1269 -0.5662
 3491TIP3    H231889   5.424   6.200  16.421  1.9364  1.6250 -1.5201
 3492TIP3   OH231890   0.697   1.932  13.211  0.1756 -0.2026  0.0003
 3492TIP3    H131891   0.727   1.906  13.124  0.0519 -0.0466 -0.0911
 3492TIP3    H231892   0.662   2.021  13.198  0.5367 -0.0129  0.2912
 3493TIP3   OH231893   3.229   4.011  10.614 -0.3385  0.2260 -0.2451
 3493TIP3    H131894   3.275   3.951  10.674  0.5609 -0.0377 -1.1679
 3493TIP3    H231895   3.246   4.098  10.650 -0.7085  0.0043  0.4779
 3494TIP3   OH231896   4.293   2.959   2.041 -0.2369  0.0229  0.2766
 3494TIP3    H131897   4.246   3.027   1.992  0.2693 -0.4905 -0.9729
 3494TIP3    H231898   4.248   2.878   2.018 -0.9450 -0.0669  1.8927
 3495TIP3   OH231899   0.703   5.266  12.856  0.2341 -0.1357  0.0664
 3495TIP3    H131900   0.795   5.266  12.881  0.2119  0.8326  0.2045
 3495TIP3    H231901   0.702   5.297  12.766  0.1155 -1.1085 -0.2720
 3496TIP3   OH231902   6.610   3.234  14.910 -0.2814 -0.3535  0.2312
 3496TIP3    H131903   6.539   3.187  14.866 -0.3671  1.3741 -1.6129
 3496TIP3    H231904   6.638   3.300  14.847  1.5260  0.4311  1.7549
 3497TIP3   OH231905   4.617   0.871  16.915 -0.3421 -0.4794  0.1526
 3497TIP3    H131906   4.629   0.932  16.842  0.9880 -0.8978  0.0017
 3497TIP3    H231907   4.534   0.897  16.954  0.5887  2.0333  0.6604
 3498TIP3   OH231908   2.673   4.451  13.198  0.2326 -0.3307 -0.0740
 3498TIP3    H131909   2.589   4.408  13.177  0.5486 -1.8327  1.5462
 3498TIP3    H231910   2.727   4.434  13.121 -0.7612  0.2067 -0.9269
 3499TIP3   OH231911   2.582   5.920  16.447 -0.0966 -0.1497 -0.4337
 3499TIP3    H131912   2.492   5.907  16.476  0.2912  0.9474  1.4524
 3499TIP3    H231913   2.627   5.959  16.522  1.1882  2.3001 -2.2722
 3500TIP3   OH231914   1.093   3.437   4.775  0.2909 -0.1251  0.1870
 3500TIP3    H131915   1.063   3.398   4.692  0.1571  1.0427 -0.3313
 3500TIP3    H231916   1.166   3.492   4.750  1.3620 -1.0753  1.1142
 3501TIP3   OH231917   5.565   2.364   2.785 -0.2803 -0.6281 -0.1531
 3501TIP3    H131918   5.595   2.446   2.826  1.7811 -0.8112 -1.2083
 3501TIP3    H231919   5.484   2.344   2.832 -0.5041  1.6503  0.6072
 3502TIP3   OH231920   0.462   5.871   5.119 -0.0158 -0.2235  0.7284
 3502TIP3    H131921   0.429   5.831   5.199 -1.5773 -2.0230 -0.7104
 3502TIP3    H231922   0.386   5.916   5.082  0.5901  0.3113  0.1010
 3503TIP3   OH231923   6.474   0.329  13.787  0.0771 -0.1449  0.3903
 3503TIP3    H131924   6.385   0.325  13.822  0.1701 -0.4726  0.5896
 3503TIP3    H231925   6.462   0.336  13.692 -0.1642  0.1398  0.4401
 3504TIP3   OH231926   2.657   0.011  15.254 -0.4378  0.2986 -0.2147
 3504TIP3    H131927   2.635  -0.080  15.277  0.1974  0.0881 -0.4323
 3504TIP3    H231928   2.578   0.060  15.276 -1.3235 -0.5267 -1.4331
 3505TIP3   OH231929   0.753   5.231   3.288 -0.4872  0.0374  0.1270
 3505TIP3    H131930   0.825   5.281   3.251  0.3259 -0.1680  1.3669
 3505TIP3    H231931   0.785   5.141   3.291 -0.2241  0.1404  1.9255
 3506TIP3   OH231932   0.569   5.812  13.779  0.2066 -0.0364  0.0255
 3506TIP3    H131933   0.619   5.818  13.697  1.4009 -0.5751  0.6837
 3506TIP3    H231934   0.478   5.804  13.751  0.2452  2.6684 -1.2032
 3507TIP3   OH231935   5.953   1.513  11.651 -0.4543  0.6172  0.7187
 3507TIP3    H131936   5.988   1.444  11.708 -1.6369  0.0479  0.7969
 3507TIP3    H231937   6.030   1.560  11.620  0.4545 -1.1993  0.0568
 3508TIP3   OH231938   2.848   3.032  12.590 -0.1510  0.2233  0.5384
 3508TIP3    H131939   2.780   3.002  12.649 -1.0643 -1.6754 -1.3483
 3508TIP3    H231940   2.804   3.093  12.532  0.5984  1.6082  1.3723
 3509TIP3   OH231941   6.291   4.827   2.685 -0.0103  0.1738 -0.3863
 3509TIP3    H131942   6.301   4.823   2.780 -2.5170  1.1051  0.0074
 3509TIP3    H231943   6.329   4.911   2.660 -1.3943  1.0206  0.1962
 3510TIP3   OH231944   2.942   0.983   3.085 -0.8773 -0.1740 -0.8351
 3510TIP3    H131945   3.037   0.974   3.093 -1.0091 -1.1904 -0.2521
 3510TIP3    H231946   2.922   1.063   3.135 -0.3259  0.1093 -1.0563
 3511TIP3   OH231947   6.398   3.797  16.208 -0.1783 -0.0164 -0.2967
 3511TIP3    H131948   6.331   3.854  16.247 -1.1614 -2.1909  1.4677
 3511TIP3    H231949   6.349   3.728  16.164  0.8130 -1.6302  0.9716
 3512TIP3   OH231950   1.503   0.928  11.016  0.2029 -0.2277  0.2932
 3512TIP3    H131951   1.478   0.845  11.058 -0.0651 -0.5239 -0.4494
 3512TIP3    H231952   1.434   0.945  10.952  1.6184 -0.8333 -1.4805
 3513TIP3   OH231953   5.167   2.527   5.024 -0.3660 -0.0110  0.4871
 3513TIP3    H131954   5.113   2.464   4.976  0.8389 -1.3664  0.8333
 3513TIP3    H231955   5.131   2.527   5.113 -1.4303  1.1149  0.0953
 3514TIP3   OH231956   1.690   1.183  11.271  0.4443  0.3701  0.3474
 3514TIP3    H131957   1.770   1.177  11.324  0.9070  1.2001 -0.2401
 3514TIP3    H231958   1.719   1.168  11.181  0.2802  2.5640 -0.1136
 3515TIP3   OH231959   0.078   2.808  15.666 -0.8978  0.2611 -0.4181
 3515TIP3    H131960   0.012   2.743  15.643 -0.3024  0.1357 -1.9024
 3515TIP3    H231961   0.156   2.782  15.616 -0.5581  1.9321 -0.8307
 3516TIP3   OH231962   1.929   6.700  11.536  0.5995 -0.2045  0.2883
 3516TIP3    H131963   2.025   6.695  11.534  0.6201  0.2908 -0.2938
 3516TIP3    H231964   1.901   6.637  11.469  0.6125  1.3624 -1.2705
 3517TIP3   OH231965   4.348   2.433   1.147 -0.5978 -0.3527  0.3120
 3517TIP3    H131966   4.254   2.428   1.165 -0.7403 -1.0111 -0.6082
 3517TIP3    H231967   4.387   2.370   1.208 -0.8013 -0.4730  0.3194
 3518TIP3   OH231968   5.495   4.537  13.965 -0.3765  0.3865  1.0184
 3518TIP3    H131969   5.533   4.535  14.053  1.6860  0.4603  0.1885
 3518TIP3    H231970   5.534   4.614  13.924 -0.8468  0.0241 -0.1398
 3519TIP3   OH231971   1.696   5.290   3.969  0.0661 -0.1105  0.0707
 3519TIP3    H131972   1.682   5.206   4.012 -1.5348 -0.1995 -0.5587
 3519TIP3    H231973   1.764   5.273   3.904 -0.6335 -1.0833 -0.4405
 3520TIP3   OH231974   1.583   0.984   5.565  0.4706  0.1178  0.5266
 3520TIP3    H131975   1.539   1.028   5.637  0.5028 -0.6278  1.0080
 3520TIP3    H231976   1.522   0.916   5.536  0.6033  0.1806  0.0792
 3521TIP3   OH231977   5.635   5.692   6.998  0.0227  0.6751  0.4842
 3521TIP3    H131978   5.618   5.696   6.904  0.4353  0.9869  0.4218
 3521TIP3    H231979   5.731   5.693   7.006  0.0619 -1.3794  0.8145
 3522TIP3   OH231980   0.467   2.350  11.080 -0.0086  0.1516  0.4818
 3522TIP3    H131981   0.484   2.406  11.004 -0.6245  0.2808  0.4375
 3522TIP3    H231982   0.523   2.273  11.066 -0.4046 -0.0021 -0.2955
 3523TIP3   OH231983   0.205   5.886  11.024 -0.5609 -0.1894  0.3155
 3523TIP3    H131984   0.130   5.885  10.964 -0.2928 -1.4713 -0.0255
 3523TIP3    H231985   0.273   5.933  10.977 -1.3027  1.5122  0.8602
 3524TIP3   OH231986   6.204   2.816  14.170 -0.6020  0.2302  0.5640
 3524TIP3    H131987   6.145   2.752  14.209  0.3649 -0.5578  0.7627
 3524TIP3    H231988   6.183   2.813  14.076  0.9734 -2.0895  0.2105
 3525TIP3   OH231989   0.179   0.257   3.857  0.1198 -0.3038 -0.4698
 3525TIP3    H131990   0.098   0.307   3.874 -0.7505 -1.2837 -1.5416
 3525TIP3    H231991   0.247   0.306   3.903 -1.1384  0.3396  0.8063
 3526TIP3   OH231992   4.492   3.629  14.492 -0.6308 -0.3586 -0.1214
 3526TIP3    H131993   4.488   3.722  14.514  0.1387 -0.5346  0.8199
 3526TIP3    H231994   4.405   3.596  14.513 -0.2301 -0.3100  1.8184
 3527TIP3   OH231995   0.886   4.921   1.154  1.0394 -0.2519  0.7574
 3527TIP3    H131996   0.907   4.864   1.080  1.4432 -0.5690  1.1037
 3527TIP3    H231997   0.944   4.891   1.224 -0.0972 -0.6893  1.5472
 3528TIP3   OH231998   0.962   1.604  11.627 -0.6042  0.5854  0.1274
 3528TIP3    H131999   1.045   1.646  11.650 -0.3557 -0.3009  0.9051
 3528TIP3    H232000   0.949   1.627  11.535  0.7582  0.3352 -0.1554
 3529TIP3   OH232001   1.053   4.705  17.157 -0.4660 -0.1542 -0.0536
 3529TIP3    H132002   1.114   4.636  17.184 -0.0941 -0.1716 -0.9146
 3529TIP3    H232003   1.016   4.738  17.239  0.5435 -0.2919  0.4714
 3530TIP3   OH232004   0.381   0.926  12.230  0.4268  0.1519 -0.4002
 3530TIP3    H132005   0.336   1.009  12.249  0.7256  0.1962  0.1560
 3530TIP3    H232006   0.372   0.914  12.136 -0.9095  0.0647 -0.2803
 3531TIP3   OH232007   4.345   3.333   0.492  0.4359  0.0421  0.1303
 3531TIP3    H132008   4.272   3.383   0.454  3.1461  3.5135 -1.0789
 3531TIP3    H232009   4.376   3.279   0.420 -0.6592 -1.2081  0.5584
 3532TIP3   OH232010   4.636   4.134  16.154 -0.6031  0.5747  0.6291
 3532TIP3    H132011   4.618   4.130  16.060 -1.1886  1.9253  0.6734
 3532TIP3    H232012   4.605   4.050  16.187 -0.6257  0.1842 -0.3310
 3533TIP3   OH232013   6.028   2.897   0.280 -0.0387  0.3484 -0.2364
 3533TIP3    H132014   5.957   2.934   0.227 -0.2393  0.7506  0.3049
 3533TIP3    H232015   6.016   2.802   0.273 -1.6409  0.3941  1.1394
 3534TIP3   OH232016   6.101   0.941   1.897 -0.1398  0.2691 -0.9468
 3534TIP3    H132017   6.048   1.001   1.844 -0.3601  1.0558  0.1372
 3534TIP3    H232018   6.123   0.991   1.975  1.3303 -0.4141 -0.9000
 3535TIP3   OH232019   2.786   0.862   5.691 -0.2206 -0.0724  0.1963
 3535TIP3    H132020   2.745   0.948   5.688  2.0736  1.1278  0.3534
 3535TIP3    H232021   2.724   0.806   5.737 -1.2071  1.8556  1.3183
 3536TIP3   OH232022   0.238   1.455  17.109 -0.4367 -0.1160  0.4217
 3536TIP3    H132023   0.247   1.508  17.030 -1.8466 -3.6723 -2.4332
 3536TIP3    H232024   0.319   1.405  17.114 -0.8149 -0.7331  0.5179
 3537TIP3   OH232025   0.160   3.906   1.081  0.4886 -0.6277  0.4951
 3537TIP3    H132026   0.169   3.978   1.143  1.5224  1.0237 -1.4191
 3537TIP3    H232027   0.069   3.879   1.088  0.5810 -0.4974  2.6668
 3538TIP3   OH232028   0.277   1.432  12.435 -0.2269 -0.2834  0.4932
 3538TIP3    H132029   0.184   1.452  12.451  0.2118  0.5345  2.1992
 3538TIP3    H232030   0.323   1.469  12.510  1.4166 -1.3909  0.0812
 3539TIP3   OH232031   0.376   2.141  15.375 -0.2197  1.1186  0.1087
 3539TIP3    H132032   0.348   2.231  15.364  0.4919  1.3204 -0.1197
 3539TIP3    H232033   0.353   2.119  15.465 -0.1507  1.6189  0.2484
 3540TIP3   OH232034   4.422   1.898  11.437  0.1590 -0.1761  0.3824
 3540TIP3    H132035   4.411   1.978  11.385  1.2916 -0.8104 -0.9108
 3540TIP3    H232036   4.512   1.870  11.419 -0.0508 -1.4613  1.2220
 3541TIP3   OH232037   0.523   5.472  17.217 -0.6796  0.0808  0.6724
 3541TIP3    H132038   0.586   5.475  17.145 -1.3619  2.9821  0.0596
 3541TIP3    H232039   0.577   5.469  17.296  0.1866  0.4535  0.1117
 3542TIP3   OH232040   3.181   4.404   5.788  1.0640  0.3092 -0.2845
 3542TIP3    H132041   3.273   4.407   5.814  1.2963 -1.6794 -0.6691
 3542TIP3    H232042   3.168   4.314   5.756 -0.4944  1.1166 -2.1307
 3543TIP3   OH232043   1.964   2.265   2.362 -0.1106 -0.2358 -0.9490
 3543TIP3    H132044   1.946   2.274   2.269 -0.3612  1.1338 -0.7886
 3543TIP3    H232045   1.878   2.253   2.402  0.1339 -2.8736 -1.0542
 3544TIP3   OH232046   0.288   5.596  16.448  0.0042 -0.3116 -0.0639
 3544TIP3    H132047   0.325   5.519  16.405 -0.2608 -0.0897 -0.7050
 3544TIP3    H232048   0.313   5.669  16.392 -0.8513 -0.0824 -0.1685
 3545TIP3   OH232049   4.802   5.266   4.758 -0.2723 -0.4792  0.3226
 3545TIP3    H132050   4.855   5.294   4.832  1.6728  0.2011 -1.2405
 3545TIP3    H232051   4.774   5.177   4.780  1.1138 -0.6725  1.4409
 3546TIP3   OH232052   6.180   0.833   1.011  0.1106  0.0447  0.3832
 3546TIP3    H132053   6.178   0.737   1.006 -3.1883  0.0605 -0.8445
 3546TIP3    H232054   6.143   0.863   0.928  0.2128  2.3766  1.1011
 3547TIP3   OH232055   3.230   1.135   2.654  0.1502 -0.1624  0.2326
 3547TIP3    H132056   3.246   1.079   2.577 -0.8096  0.5176 -0.4837
 3547TIP3    H232057   3.255   1.223   2.626  0.7574 -0.0650  1.0469
 3548TIP3   OH232058   3.187   6.106   2.835  0.4626  0.2987  1.0283
 3548TIP3    H132059   3.227   6.133   2.752  1.0628  1.1452  1.5758
 3548TIP3    H232060   3.099   6.142   2.832  0.0288 -0.7812  0.2116
 3549TIP3   OH232061   5.370   3.745   1.759 -0.7841 -0.0596 -0.2454
 3549TIP3    H132062   5.353   3.691   1.836  0.4100 -0.0505  0.0277
 3549TIP3    H232063   5.429   3.693   1.705 -2.0032 -0.2953 -1.4369
 3550TIP3   OH232064   2.637   0.655   0.698 -0.2162 -0.3769  0.6857
 3550TIP3    H132065   2.646   0.735   0.647 -0.6080 -0.5431  0.3478
 3550TIP3    H232066   2.546   0.628   0.684 -0.3041 -0.4764  1.3909
 3551TIP3   OH232067   6.072   1.149  14.780  0.4030  0.4104 -0.1620
 3551TIP3    H132068   6.115   1.233  14.764 -1.4794  1.7112  1.1900
 3551TIP3    H232069   6.005   1.144  14.712 -0.6455  0.8874  0.8057
 3552TIP3   OH232070   4.210   3.850   0.590  0.0696  0.2757  0.2009
 3552TIP3    H132071   4.152   3.807   0.653  1.6482 -0.2143  1.3606
 3552TIP3    H232072   4.271   3.782   0.563 -0.3015  0.5866 -1.5799
 3553TIP3   OH232073   6.051   3.213  14.414 -0.7723 -0.6655  0.0578
 3553TIP3    H132074   6.115   3.198  14.344  0.3697  0.5138  0.8172
 3553TIP3    H232075   6.090   3.174  14.492  0.4926  2.5663  1.2050
 3554TIP3   OH232076   3.524   1.517  17.283 -0.4880 -0.3342 -0.6845
 3554TIP3    H132077   3.592   1.457  17.315  0.4064  1.1333  0.2705
 3554TIP3    H232078   3.541   1.525  17.189  0.5549 -0.1323 -0.4915
 3555TIP3   OH232079   6.604   0.874  14.526  0.2412 -0.0575 -0.6096
 3555TIP3    H132080   6.683   0.886  14.474  0.2563 -2.1227 -1.1277
 3555TIP3    H232081   6.554   0.806  14.481 -0.5644 -0.6868  1.1195
 3556TIP3   OH232082   0.557   1.778   5.297  0.0903  0.0193 -0.0163
 3556TIP3    H132083   0.529   1.785   5.389 -0.1073  0.6319 -0.1192
 3556TIP3    H232084   0.604   1.695   5.293 -1.6126 -1.0208  0.1952
 3557TIP3   OH232085   1.205   3.081   6.403 -0.3730  0.0998 -0.0230
 3557TIP3    H132086   1.266   3.132   6.456 -2.1140  0.8912  1.3302
 3557TIP3    H232087   1.180   3.140   6.331  0.8211 -0.4268 -0.9071
 3558TIP3   OH232088   1.204   1.629  15.818 -0.1665  0.6646  0.4765
 3558TIP3    H132089   1.232   1.543  15.787  0.6140 -0.0301  2.8382
 3558TIP3    H232090   1.284   1.669  15.852 -0.4378  2.5464 -0.9329
 3559TIP3   OH232091   5.677   3.095   3.130  0.5659  0.0710 -0.0122
 3559TIP3    H132092   5.641   3.009   3.148  0.0119  0.3110  0.0421
 3559TIP3    H232093   5.741   3.080   3.060  0.3837 -0.3593 -0.0876
 3560TIP3   OH232094   2.983   3.732  12.423  0.4221 -0.1915 -0.3635
 3560TIP3    H132095   2.995   3.695  12.511  0.9815  0.7856 -0.0128
 3560TIP3    H232096   2.940   3.816  12.439 -1.3647 -0.8950 -1.1876
 3561TIP3   OH232097   3.532   0.556   2.361 -0.2149  0.1955  0.4526
 3561TIP3    H132098   3.524   0.474   2.411  0.1307  2.7529  5.3557
 3561TIP3    H232099   3.473   0.544   2.286 -3.6833 -3.0104  3.2611
 3562TIP3   OH232100   4.351   2.808   0.512  0.1636  0.4727  0.3925
 3562TIP3    H132101   4.427   2.820   0.569  1.4181 -0.7889 -0.8968
 3562TIP3    H232102   4.364   2.872   0.442 -0.1245  0.4701  0.3383
 3563TIP3   OH232103   3.376   4.246   5.594 -0.4107  0.3411 -0.2720
 3563TIP3    H132104   3.465   4.228   5.624 -0.9134  0.8236  1.6905
 3563TIP3    H232105   3.365   4.192   5.516  1.9642  1.1394 -1.2345
 3564TIP3   OH232106   6.298   5.292  11.707 -0.1522  0.4441  0.6366
 3564TIP3    H132107   6.223   5.325  11.756 -2.1565 -1.8075 -0.7167
 3564TIP3    H232108   6.325   5.213  11.754 -0.6930 -0.5130 -0.6296
 3565TIP3   OH232109   3.831   4.399  11.309  0.2583 -0.3893  0.6907
 3565TIP3    H132110   3.780   4.318  11.308 -2.2293  1.0097 -1.7620
 3565TIP3    H232111   3.921   4.371  11.318 -0.5303 -3.4413  0.1691
 3566TIP3   OH232112   5.396   1.727   5.623  0.2432  0.1938 -0.1205
 3566TIP3    H132113   5.337   1.774   5.564 -0.8517  0.1146  0.8715
 3566TIP3    H232114   5.443   1.795   5.670 -0.6740  0.3168  0.6537
 3567TIP3   OH232115   5.115   6.150  14.519  0.8314 -0.0570 -0.0984
 3567TIP3    H132116   5.046   6.094  14.555  1.9626 -1.0389  0.6020
 3567TIP3    H232117   5.068   6.213  14.463 -0.4078 -2.2354 -1.6507
 3568TIP3   OH232118   4.953   5.529  15.509  0.3152  0.1794 -0.0257
 3568TIP3    H132119   5.039   5.514  15.548  0.9165  1.2611 -0.8501
 3568TIP3    H232120   4.971   5.538  15.415 -0.7401  0.1099 -0.2456
 3569TIP3   OH232121   2.809   0.817  14.303  0.3674 -0.4516  0.1830
 3569TIP3    H132122   2.735   0.796  14.247 -0.2945  0.0586  0.8387
 3569TIP3    H232123   2.829   0.735  14.348  0.7075 -0.7840 -0.5561
 3570TIP3   OH232124   6.278   2.284   2.282  0.1892  1.1856 -0.6603
 3570TIP3    H132125   6.191   2.244   2.282 -1.5262  4.5447 -1.6771
 3570TIP3    H232126   6.295   2.303   2.375  0.8862 -1.3733 -0.2048
 3571TIP3   OH232127   6.065   3.778   4.752 -0.5074  0.0623 -0.0483
 3571TIP3    H132128   6.005   3.726   4.700 -0.8589 -0.1905  0.5912
 3571TIP3    H232129   6.114   3.830   4.689 -1.8846  0.8011 -0.5323
 3572TIP3   OH232130   1.110   3.624   2.154  0.2674 -0.3274 -0.0553
 3572TIP3    H132131   1.073   3.579   2.078  0.0636  0.0766 -0.1951
 3572TIP3    H232132   1.172   3.561   2.190  1.3871 -0.0097 -1.3538
 3573TIP3   OH232133   3.997   4.288  11.982 -0.3089  0.2354  0.4411
 3573TIP3    H132134   4.042   4.354  11.929 -1.4544  2.3704  1.9722
 3573TIP3    H232135   3.925   4.257  11.926  1.9087 -2.0516 -1.4144
 3574TIP3   OH232136   3.129   0.418  14.775  0.4735  0.0736 -0.1944
 3574TIP3    H132137   3.102   0.423  14.867  0.9571  0.7565 -0.0800
 3574TIP3    H232138   3.097   0.499  14.736  0.3421 -0.1766 -0.6089
 3575TIP3   OH232139   6.431   2.009  15.381 -0.2567  0.5140 -0.6778
 3575TIP3    H132140   6.450   1.970  15.296  1.5605 -1.3866  0.4962
 3575TIP3    H232141   6.511   1.996  15.432 -1.3582  1.3540  1.4040
 3576TIP3   OH232142   3.082   5.711  12.230 -0.2569 -0.2348 -0.0172
 3576TIP3    H132143   3.132   5.730  12.310  0.9158 -1.4008 -0.4382
 3576TIP3    H232144   3.106   5.780  12.169  2.0287 -1.5165 -0.6944
 3577TIP3   OH232145   0.516   3.439   2.117 -0.0696 -0.0380 -0.1584
 3577TIP3    H132146   0.571   3.370   2.080  0.0391 -0.5218  0.8651
 3577TIP3    H232147   0.538   3.440   2.210 -1.1494  0.3655  0.1088
 3578TIP3   OH232148   0.193   6.142   5.163  0.6021  0.3854 -0.3509
 3578TIP3    H132149   0.256   6.184   5.222  1.0334 -0.2910 -0.3158
 3578TIP3    H232150   0.238   6.134   5.080  0.1792  0.8587 -0.6303
 3579TIP3   OH232151   5.788   2.899  14.868 -0.3973  0.7960  0.0557
 3579TIP3    H132152   5.876   2.935  14.857  0.6087 -1.3295  0.5035
 3579TIP3    H232153   5.781   2.880  14.961 -0.0700 -1.8575 -0.3839
 3580TIP3   OH232154   2.793   2.527   2.042  0.3070 -0.0759 -0.2101
 3580TIP3    H132155   2.711   2.486   2.070 -0.6801  2.5043  0.9728
 3580TIP3    H232156   2.788   2.616   2.076  2.8357  0.7085 -1.6518
 3581TIP3   OH232157   5.361   6.545   3.238 -0.0030 -0.0640  0.2268
 3581TIP3    H132158   5.322   6.457   3.245  0.2045 -0.0600  1.7040
 3581TIP3    H232159   5.293   6.604   3.271 -0.0842  0.3267 -0.6229
 3582TIP3   OH232160   1.432   5.069  17.188 -0.2510  0.3535  0.2724
 3582TIP3    H132161   1.358   5.058  17.129  0.2910  3.7430 -1.3019
 3582TIP3    H232162   1.469   4.981  17.198 -2.2349 -0.8309 -1.9390
 3583TIP3   OH232163   1.829   4.396  16.916  0.1448 -0.5843  0.3489
 3583TIP3    H132164   1.891   4.403  16.988  1.1950  0.1891 -0.6026
 3583TIP3    H232165   1.803   4.303  16.916  1.5654 -1.0036  0.5377
 3584TIP3   OH232166   6.764   0.413  16.478 -0.2100  0.2982  0.4763
 3584TIP3    H132167   6.672   0.399  16.500 -0.0832  0.9963  1.5515
 3584TIP3    H232168   6.811   0.385  16.556  0.1370  5.0354  2.2817
 3585TIP3   OH232169   2.816   3.056   3.140  0.5866  0.2530 -0.2562
 3585TIP3    H132170   2.749   2.988   3.129 -0.0085  1.0052 -1.4819
 3585TIP3    H232171   2.775   3.121   3.197  0.6585  0.2244 -0.1715
 3586TIP3   OH232172   2.222   0.736  15.665 -0.4205 -0.1862  0.1253
 3586TIP3    H132173   2.158   0.727  15.595 -1.6155 -0.9010  1.2733
 3586TIP3    H232174   2.227   0.830  15.681  0.2626  0.0363 -1.2394
 3587TIP3   OH232175   1.821   5.766   2.864 -0.3123 -0.2782  0.1643
 3587TIP3    H132176   1.877   5.688   2.869  1.1526  0.5242 -2.3210
 3587TIP3    H232177   1.737   5.737   2.899  0.7380 -2.4112  1.1176
 3588TIP3   OH232178   1.363   4.833   6.318 -0.1634  0.1360 -0.4326
 3588TIP3    H132179   1.369   4.916   6.367  1.9556 -0.5758  0.6458
 3588TIP3    H232180   1.367   4.859   6.226 -0.7841  1.2986 -0.1514
 3589TIP3   OH232181   3.505   6.304  17.088 -0.6973  0.1934  0.1799
 3589TIP3    H132182   3.527   6.274  17.000 -0.9117  0.4598  0.0367
 3589TIP3    H232183   3.451   6.234  17.124 -2.4217  1.0304 -0.6761
 3590TIP3   OH232184   3.999   1.501  16.656  0.5184 -0.0560 -0.5474
 3590TIP3    H132185   3.983   1.412  16.688 -3.9580  0.6619 -0.0516
 3590TIP3    H232186   4.004   1.554  16.735  0.7634  0.3841 -0.8565
 3591TIP3   OH232187   3.579   4.221  13.356  0.6102 -0.5674  0.4326
 3591TIP3    H132188   3.555   4.311  13.332  0.6691 -0.9557 -1.1395
 3591TIP3    H232189   3.645   4.232  13.424  0.4180  0.5795  0.4555
 3592TIP3   OH232190   4.577   5.596  12.560 -0.0641  0.5299 -0.0818
 3592TIP3    H132191   4.555   5.677  12.605 -1.6371  0.3579 -0.4573
 3592TIP3    H232192   4.626   5.623  12.482 -1.5785  1.2487 -0.8276
 3593TIP3   OH232193   5.329   1.126   6.366  0.4144  0.0263 -0.1609
 3593TIP3    H132194   5.411   1.174   6.353  0.7800 -0.5789 -0.0885
 3593TIP3    H232195   5.302   1.102   6.278  1.5090 -1.7508 -0.0598
 3594TIP3   OH232196   6.598   2.472   2.017 -0.0598  0.1543  0.4211
 3594TIP3    H132197   6.563   2.385   2.033  0.2934 -0.7235 -2.8478
 3594TIP3    H232198   6.690   2.466   2.043 -0.6593  0.5055  2.8719
 3595TIP3   OH232199   1.799   5.082  14.000 -0.1997  0.4606 -0.2802
 3595TIP3    H132200   1.779   5.172  14.023  0.2531  0.3887  0.4173
 3595TIP3    H232201   1.765   5.030  14.072  0.4414  0.1609 -0.1872
 3596TIP3   OH232202   5.951   0.732  11.115  0.1002  0.4055 -0.6693
 3596TIP3    H132203   6.016   0.769  11.057  0.5261  1.8133  0.6376
 3596TIP3    H232204   5.953   0.788  11.193 -0.8537 -1.0420  0.4653
 3597TIP3   OH232205   4.998   0.581   4.741 -0.0556  0.5155 -0.2813
 3597TIP3    H132206   4.933   0.644   4.773  2.0603  2.5051  0.3389
 3597TIP3    H232207   5.031   0.538   4.821 -1.8979 -1.9880 -0.7251
 3598TIP3   OH232208   0.820   1.136  15.174  0.0134  0.0236  0.1888
 3598TIP3    H132209   0.750   1.108  15.235  1.0205  2.1945  2.5122
 3598TIP3    H232210   0.775   1.190  15.109 -0.6008  0.9425  1.3367
 3599TIP3   OH232211   6.127   6.243  10.949  0.6253  0.3788 -0.2070
 3599TIP3    H132212   6.127   6.335  10.922 -0.2077  0.8167  1.1548
 3599TIP3    H232213   6.096   6.245  11.040 -1.9510 -1.4645 -0.9276
 3600TIP3   OH232214   3.940   3.219   2.019  0.9084 -0.4017  0.2901
 3600TIP3    H132215   3.864   3.196   2.072  0.4518  0.3950  0.0065
 3600TIP3    H232216   3.936   3.315   2.012  1.0428 -0.4695 -1.0530
 3601TIP3   OH232217   2.055   6.044   0.124  0.3284  0.3311  0.2985
 3601TIP3    H132218   2.091   5.990   0.053 -0.4210  1.6452 -1.1351
 3601TIP3    H232219   1.964   6.016   0.130 -0.4589  2.3193 -1.4199
 3602TIP3   OH232220   2.439   4.709  16.610  0.0004  0.5730  0.1164
 3602TIP3    H132221   2.413   4.695  16.519 -0.2442  0.9354  0.1286
 3602TIP3    H232222   2.533   4.694  16.611 -0.3068 -1.8233  0.2598
 3603TIP3   OH232223   5.284   4.668   3.910 -0.4087  0.3099  0.1787
 3603TIP3    H132224   5.290   4.744   3.968  0.5808 -0.2205  0.7875
 3603TIP3    H232225   5.328   4.695   3.830 -1.1988  0.8131 -0.1027
 3604TIP3   OH232226   3.559   4.208   5.013 -0.1361  0.8413 -0.2984
 3604TIP3    H132227   3.530   4.298   4.997  0.1969  0.9150 -0.5148
 3604TIP3    H232228   3.650   4.217   5.040 -0.6140  0.6979  1.4491
 3605TIP3   OH232229   5.101   3.931  12.441 -0.1289 -0.1197  0.2113
 3605TIP3    H132230   5.023   3.983  12.425  0.5114  0.4837 -1.1163
 3605TIP3    H232231   5.141   3.920  12.354  0.5159 -1.6110  0.6603
 3606TIP3   OH232232   3.670   5.122  13.703 -0.2335  0.1153  0.5551
 3606TIP3    H132233   3.642   5.087  13.788 -0.6753  1.9348  1.2098
 3606TIP3    H232234   3.757   5.084  13.689 -1.0569 -1.9398  0.7449
 3607TIP3   OH232235   3.271   2.061  13.939 -0.4910  0.2656  0.4460
 3607TIP3    H132236   3.357   2.081  13.902 -1.1154 -2.8537 -3.4436
 3607TIP3    H232237   3.212   2.122  13.896 -0.5647  0.5392  0.9293
 3608TIP3   OH232238   4.519   2.374   2.544  0.0981  0.6808 -0.3424
 3608TIP3    H132239   4.539   2.463   2.516  1.3722  1.0151  1.4521
 3608TIP3    H232240   4.450   2.384   2.610  0.8355  0.4564  0.4888
 3609TIP3   OH232241   2.846   1.655   2.297  0.2884 -0.0853 -0.4057
 3609TIP3    H132242   2.787   1.638   2.224 -0.1017 -1.6486  0.2330
 3609TIP3    H232243   2.801   1.617   2.373  1.5498 -0.1960  0.3045
 3610TIP3   OH232244   2.342   6.239   4.090 -0.2331  0.1015 -0.3551
 3610TIP3    H132245   2.420   6.289   4.063 -1.2304  1.0859 -1.5672
 3610TIP3    H232246   2.361   6.211   4.179  1.9026 -0.4983 -0.9403
 3611TIP3   OH232247   4.542   4.144   4.819 -0.3680  1.1928  0.3750
 3611TIP3    H132248   4.557   4.118   4.910 -0.6293 -0.6502 -0.0701
 3611TIP3    H232249   4.607   4.212   4.802  1.7691 -0.5675  1.0515
 3612TIP3   OH232250   4.203   5.958   4.849 -0.2274  0.2908  0.1360
 3612TIP3    H132251   4.205   5.938   4.756  0.2297  1.1242 -0.0413
 3612TIP3    H232252   4.137   6.028   4.857 -0.6260 -0.1160  0.5125
 3613TIP3   OH232253   3.960   0.963  16.354 -0.2047 -0.0545  0.0262
 3613TIP3    H132254   3.942   1.015  16.275  0.1766 -0.8666 -0.6041
 3613TIP3    H232255   4.052   0.982  16.374 -0.2128 -0.0919  0.0951
 3614TIP3   OH232256   6.177   6.642   3.079 -0.2786 -0.3518  0.9888
 3614TIP3    H132257   6.151   6.568   3.024 -0.7195 -0.1801  0.9594
 3614TIP3    H232258   6.101   6.658   3.135  0.5000 -1.1111  2.2988
 3615TIP3   OH232259   2.045   0.273  15.183 -0.2631 -0.8837  0.1793
 3615TIP3    H132260   1.951   0.289  15.180 -0.2723 -0.9768 -0.0120
 3615TIP3    H232261   2.061   0.206  15.117  0.3853  1.3045 -2.0443
 3616TIP3   OH232262   0.381   2.850  15.627  0.2129  0.3613  0.3015
 3616TIP3    H132263   0.456   2.796  15.604  1.1060  1.7236 -0.1083
 3616TIP3    H232264   0.337   2.867  15.544  0.8356  1.5219  0.1876
 3617TIP3   OH232265   0.868   5.901  13.259 -0.3138 -0.3524 -0.4274
 3617TIP3    H132266   0.774   5.887  13.259 -0.2138 -1.1814 -1.4842
 3617TIP3    H232267   0.903   5.832  13.203  0.9643 -0.2796  0.2286
 3618TIP3   OH232268   5.855   3.666   6.346 -0.3435 -0.1522 -0.3863
 3618TIP3    H132269   5.863   3.571   6.349  0.0105 -0.1480 -1.0102
 3618TIP3    H232270   5.861   3.688   6.253  0.1101  0.5164 -0.2113
 3619TIP3   OH232271   4.361   5.215  16.748  0.5228 -0.1568 -0.0753
 3619TIP3    H132272   4.304   5.198  16.673  0.3948 -1.2580  0.2639
 3619TIP3    H232273   4.340   5.305  16.774 -0.2726 -0.1777 -0.6252
 3620TIP3   OH232274   5.325   4.395  14.697  0.4093  0.2964 -0.0084
 3620TIP3    H132275   5.311   4.379  14.790  1.0350  0.6105  0.1463
 3620TIP3    H232276   5.419   4.386  14.685  0.0930 -2.2149 -1.1049
 3621TIP3   OH232277   4.165   0.951  10.902 -0.1340  0.4789 -0.0470
 3621TIP3    H132278   4.241   0.903  10.933 -0.1953 -1.5142 -2.6655
 3621TIP3    H232279   4.090   0.908  10.943  0.0033  1.7420  1.6546
 3622TIP3   OH232280   4.460   6.313   2.791  0.1534 -0.2657 -0.6195
 3622TIP3    H132281   4.381   6.367   2.783  0.2076 -0.3638 -2.2672
 3622TIP3    H232282   4.530   6.369   2.757  0.9410  0.0326  1.3552
 3623TIP3   OH232283   3.438   5.192   4.500 -0.1463 -0.3120 -0.1452
 3623TIP3    H132284   3.467   5.107   4.468 -0.8513 -0.8887  0.7293
 3623TIP3    H232285   3.427   5.180   4.594 -1.1700  0.4821 -0.1526
 3624TIP3   OH232286   5.622   4.875   0.944  0.0850 -0.3437 -0.0042
 3624TIP3    H132287   5.699   4.909   0.990 -0.9512  3.0752 -0.5239
 3624TIP3    H232288   5.652   4.862   0.854 -0.0899  1.8666 -0.4253
 3625TIP3   OH232289   2.341   2.455   0.079 -0.6232  0.2365  0.2577
 3625TIP3    H132290   2.332   2.532   0.136  0.1281  0.3749  0.1943
 3625TIP3    H232291   2.289   2.387   0.122  1.1772 -0.1480  1.9933
 3626TIP3   OH232292   3.375   3.033  14.204  0.4366  0.0647 -0.0405
 3626TIP3    H132293   3.325   2.962  14.245  1.6791 -1.6942 -1.3929
 3626TIP3    H232294   3.418   3.078  14.277 -0.3184 -0.6258  0.8473
 3627TIP3   OH232295   5.944   0.796   1.678  0.5824  0.4549 -0.0212
 3627TIP3    H132296   5.872   0.821   1.620  0.0767  0.0583  0.4215
 3627TIP3    H232297   5.957   0.872   1.734 -1.2538 -0.3522  1.6264
 3628TIP3   OH232298   4.214   6.126  13.847 -0.4779 -0.1540 -0.1402
 3628TIP3    H132299   4.143   6.063  13.857 -0.5498  0.0190  0.4662
 3628TIP3    H232300   4.235   6.124  13.753 -1.0099 -0.4940 -0.2546
 3629TIP3   OH232301   0.501   0.278   4.695  0.2219 -0.0447  0.3353
 3629TIP3    H132302   0.597   0.273   4.701  0.1296 -0.5321  1.6425
 3629TIP3    H232303   0.482   0.251   4.605  1.2356 -1.3558  0.4706
 3630TIP3   OH232304   3.847   5.268  13.264  0.2944  0.0381  0.1197
 3630TIP3    H132305   3.894   5.329  13.319  0.0221  0.1348  0.2487
 3630TIP3    H232306   3.775   5.237  13.319 -0.0262  0.1958 -0.2070
 3631TIP3   OH232307   3.321   6.694  11.531  0.0482  0.0454  0.1959
 3631TIP3    H132308   3.300   6.648  11.449  0.3050  0.6438 -0.2136
 3631TIP3    H232309   3.408   6.731  11.515 -0.4748  1.3353  0.2245
 3632TIP3   OH232310   2.421   3.774  17.092  0.5886 -0.1946  0.1209
 3632TIP3    H132311   2.406   3.721  17.170 -0.3030 -0.7694 -0.4250
 3632TIP3    H232312   2.460   3.713  17.029  1.4499  0.3011  0.1523
 3633TIP3   OH232313   1.817   2.604  11.326 -0.8167  0.1094 -0.0815
 3633TIP3    H132314   1.800   2.695  11.299 -0.6657  0.0883 -0.2425
 3633TIP3    H232315   1.777   2.598  11.413 -3.0249 -0.3718 -1.0535
 3634TIP3   OH232316   4.764   5.338  13.618  0.1090  0.7750 -0.2715
 3634TIP3    H132317   4.847   5.298  13.644 -0.8419  0.2560  2.3107
 3634TIP3    H232318   4.758   5.324  13.524  1.9743 -1.0399 -0.1820
 3635TIP3   OH232319   5.731   4.325  11.511 -1.0963  0.7014 -0.2664
 3635TIP3    H132320   5.681   4.243  11.503 -0.4375  0.2242  0.3739
 3635TIP3    H232321   5.726   4.364  11.424  1.1010 -1.5128 -1.5041
 3636TIP3   OH232322   0.057   0.136   0.744 -0.0074 -0.4488  0.2653
 3636TIP3    H132323  -0.007   0.067   0.729  1.0072 -1.6245  1.0977
 3636TIP3    H232324   0.133   0.091   0.781  0.5483  1.1690  1.2327
 3637TIP3   OH232325   1.573   5.754   2.452 -0.1345 -0.2163  0.0061
 3637TIP3    H132326   1.487   5.718   2.477  0.1430 -1.0757 -0.2470
 3637TIP3    H232327   1.636   5.699   2.498  0.2662  1.8304  2.0369
 3638TIP3   OH232328   4.291   5.347  17.361  0.0732  0.6740 -0.1266
 3638TIP3    H132329   4.217   5.407  17.358 -0.2312  0.3290  0.1933
 3638TIP3    H232330   4.251   5.261  17.376  0.4030  0.1890 -1.8648
 3639TIP3   OH232331   6.217   1.261  16.272 -0.7702 -0.1275  0.4043
 3639TIP3    H132332   6.227   1.329  16.206  0.4637 -1.1699 -0.5382
 3639TIP3    H232333   6.295   1.270  16.327  0.2041 -1.6792 -0.6384
 3640TIP3   OH232334   1.615   2.595   4.016 -0.3085 -0.4659  0.1543
 3640TIP3    H132335   1.679   2.644   4.067  0.4420 -1.0521 -0.1997
 3640TIP3    H232336   1.531   2.615   4.056  0.2812 -1.0976  1.7592
 3641TIP3   OH232337   5.981   6.125  14.031  0.1062  0.2725  0.2181
 3641TIP3    H132338   5.922   6.198  14.007  2.0490  1.3532 -1.6876
 3641TIP3    H232339   5.958   6.105  14.121 -1.0975  2.6961  0.5548
 3642TIP3   OH232340   3.384   6.526   4.880  0.6093 -0.0296 -0.2833
 3642TIP3    H132341   3.402   6.498   4.969 -2.0745  0.9066  0.6427
 3642TIP3    H232342   3.314   6.468   4.850  1.2643 -0.1295 -1.6914
 3643TIP3   OH232343   0.608   2.179  15.846  0.5259 -0.9792  0.4032
 3643TIP3    H132344   0.642   2.111  15.905  0.0328 -0.2501  1.5713
 3643TIP3    H232345   0.529   2.211  15.890 -0.6620 -1.3692 -1.3615
 3644TIP3   OH232346   3.341   2.267   1.614  0.3164 -0.0129  0.2618
 3644TIP3    H132347   3.416   2.323   1.634  1.1783 -0.8303 -0.5962
 3644TIP3    H232348   3.315   2.293   1.526  0.0521 -0.2343  0.2743
 3645TIP3   OH232349   2.410   0.253   1.715 -0.0981 -0.4429 -0.2009
 3645TIP3    H132350   2.353   0.218   1.783  0.0060  1.0604  0.7163
 3645TIP3    H232351   2.395   0.348   1.718 -0.3586 -0.3717 -2.5441
 3646TIP3   OH232352   4.605   2.386  12.981 -0.9699  0.7065 -0.1055
 3646TIP3    H132353   4.537   2.446  13.011  0.4949  3.0362 -1.2196
 3646TIP3    H232354   4.562   2.333  12.913 -2.4608 -0.0546  1.3617
 3647TIP3   OH232355   5.467   5.003   3.167 -0.0199 -0.4424  0.5131
 3647TIP3    H132356   5.383   4.964   3.188 -0.3244  0.3353  0.7724
 3647TIP3    H232357   5.450   5.097   3.161  0.8884 -0.2368  0.9008
 3648TIP3   OH232358   4.032   2.453  13.610  0.8374 -0.3594 -0.1122
 3648TIP3    H132359   3.960   2.478  13.668  1.7305 -0.2804  1.0078
 3648TIP3    H232360   4.104   2.513  13.634  1.3030 -0.4729 -1.1591
 3649TIP3   OH232361   5.273   5.922   0.855 -0.2672 -0.0945 -1.3144
 3649TIP3    H132362   5.247   5.982   0.925 -0.5189  0.5051 -1.9184
 3649TIP3    H232363   5.258   5.970   0.774 -0.9835 -1.1564 -1.8380
 3650TIP3   OH232364   6.462   0.630   5.655  0.2685 -0.1188 -0.4181
 3650TIP3    H132365   6.486   0.658   5.743 -0.5987  0.8561 -0.4707
 3650TIP3    H232366   6.527   0.670   5.598  1.3366 -1.4384 -0.1751
 3651TIP3   OH232367   5.572   4.159  12.764  0.2970  0.0230  0.2342
 3651TIP3    H132368   5.573   4.113  12.680  0.1724 -2.0154  1.2889
 3651TIP3    H232369   5.508   4.111  12.817  1.8665 -0.0906  2.1731
 3652TIP3   OH232370   0.973   5.942   1.108  0.0726 -0.0629  0.7099
 3652TIP3    H132371   1.010   5.941   1.196  1.3723 -0.3857  0.1943
 3652TIP3    H232372   0.880   5.956   1.120  0.1943 -0.4076  2.1499
 3653TIP3   OH232373   5.497   5.296   3.164  0.0556  0.3128  0.7874
 3653TIP3    H132374   5.552   5.343   3.101  1.0454 -0.7443  0.8332
 3653TIP3    H232375   5.414   5.344   3.164  0.1092  0.4764 -1.1486
 3654TIP3   OH232376   5.297   6.613  10.936 -0.6508  0.0423 -0.3196
 3654TIP3    H132377   5.357   6.644  10.868 -2.3899  1.5435 -1.2633
 3654TIP3    H232378   5.351   6.559  10.993  1.2420  0.0667 -1.9771
 3655TIP3   OH232379   1.951   3.996   0.546  0.2459 -0.6661 -0.5051
 3655TIP3    H132380   1.950   3.986   0.642  0.4014 -1.8695 -0.6158
 3655TIP3    H232381   1.913   4.083   0.531  1.3100  0.0519  0.7018
 3656TIP3   OH232382   0.834   0.265   6.033 -0.2278 -0.1829 -0.4981
 3656TIP3    H132383   0.855   0.179   5.995  0.9311  0.3719 -1.1647
 3656TIP3    H232384   0.914   0.289   6.081 -1.4295 -0.5929  1.8630
 3657TIP3   OH232385   3.966   6.351   4.368 -0.2869 -0.4583  0.4729
 3657TIP3    H132386   3.982   6.368   4.460 -0.9601 -0.9228  0.6861
 3657TIP3    H232387   3.972   6.256   4.360 -3.4672 -0.7849  0.7255
 3658TIP3   OH232388   0.920   5.319   2.808  0.2362 -0.2801  0.0104
 3658TIP3    H132389   0.979   5.345   2.737 -0.2010  0.8399  0.0249
 3658TIP3    H232390   0.902   5.226   2.792  3.6992 -1.2985  1.2561
 3659TIP3   OH232391   1.290   1.173  13.155 -0.2505 -0.5974  0.1651
 3659TIP3    H132392   1.248   1.163  13.240  0.2499  1.9484  0.7765
 3659TIP3    H232393   1.224   1.215  13.100  0.4030  0.5842  0.2370
 3660TIP3   OH232394   0.785   5.543   0.547 -0.5211 -0.4615 -0.1143
 3660TIP3    H132395   0.712   5.591   0.586 -1.0555 -0.3239 -1.2403
 3660TIP3    H232396   0.761   5.451   0.559 -1.4498 -0.4292 -1.4233
 3661TIP3   OH232397   1.494   0.334  10.958  0.0636 -0.0663  0.8921
 3661TIP3    H132398   1.412   0.286  10.944  0.5496 -0.3244 -1.5639
 3661TIP3    H232399   1.518   0.316  11.048 -1.9572 -0.9869  1.2920
 3662TIP3   OH232400   5.744   6.094   4.470  0.4375 -0.1432  0.0462
 3662TIP3    H132401   5.672   6.094   4.407 -0.2353  0.2118  0.7885
 3662TIP3    H232402   5.822   6.106   4.418 -0.1143  0.2168 -0.7136
 3663TIP3   OH232403   0.872   6.726  12.464 -0.6020 -0.0125  0.5926
 3663TIP3    H132404   0.805   6.699  12.401  1.0344 -2.3562 -0.2780
 3663TIP3    H232405   0.882   6.652  12.523  0.1880  0.8824  1.6302
 3664TIP3   OH232406   4.520   1.424  11.259 -0.0789 -0.2010 -0.2856
 3664TIP3    H132407   4.512   1.400  11.167 -0.8443 -0.1272 -0.2445
 3664TIP3    H232408   4.503   1.343  11.307  0.2552 -0.2254 -0.2060
 3665TIP3   OH232409   1.706   6.257   4.680 -0.2678  0.0429  0.2393
 3665TIP3    H132410   1.728   6.180   4.629  0.4639 -0.8757  1.8542
 3665TIP3    H232411   1.789   6.302   4.695 -0.5832  0.7448 -0.0439
 3666TIP3   OH232412   1.730   1.984  13.047  0.3779 -0.3063 -0.6841
 3666TIP3    H132413   1.798   2.051  13.037 -1.3352  1.6191 -0.0647
 3666TIP3    H232414   1.648   2.030  13.032 -0.9084 -2.2023  0.0984
 3667TIP3   OH232415   0.831   3.337  16.775 -0.0519 -0.1025  0.0016
 3667TIP3    H132416   0.805   3.299  16.691 -2.0572 -0.4764  0.7398
 3667TIP3    H232417   0.882   3.268  16.817 -0.4022 -0.5281 -0.2584
 3668TIP3   OH232418   4.368   2.791  16.522 -0.4937  0.3420  0.1918
 3668TIP3    H132419   4.349   2.716  16.465  0.0813  0.0815  0.3322
 3668TIP3    H232420   4.357   2.867  16.466 -0.1419  0.0987 -0.2207
 3669TIP3   OH232421   4.441   3.436  13.211  0.4432 -0.2766  0.2241
 3669TIP3    H132422   4.364   3.396  13.170  1.0747  0.8632 -2.2997
 3669TIP3    H232423   4.505   3.365  13.217  0.8139 -0.2379 -2.2136
 3670TIP3   OH232424   1.058   4.585  12.141  0.4994 -0.1872 -0.2336
 3670TIP3    H132425   1.001   4.531  12.087  0.7802  0.6933 -1.4533
 3670TIP3    H232426   1.145   4.571  12.106  0.4415  1.9653 -1.4277
 3671TIP3   OH232427   1.551   2.118   5.674  0.6651 -0.2146 -0.2372
 3671TIP3    H132428   1.641   2.110   5.704  0.3893  0.0613  0.7017
 3671TIP3    H232429   1.528   2.030   5.643  1.2510 -0.2834 -0.4911
 3672TIP3   OH232430   3.121   0.687  16.947 -0.5803  0.3883  0.2101
 3672TIP3    H132431   3.125   0.608  16.999 -0.7508  1.6863  2.3028
 3672TIP3    H232432   3.064   0.746  16.996  0.3615  2.1889 -0.7453
 3673TIP3   OH232433   6.330   0.018   1.078  0.1104  0.4723  0.3325
 3673TIP3    H132434   6.415   0.039   1.038  0.6324  1.7677  2.0171
 3673TIP3    H232435   6.352  -0.035   1.154 -0.5645  1.0131  0.9141
 3674TIP3   OH232436   4.291   2.396   2.695 -0.1450 -0.3218  0.0780
 3674TIP3    H132437   4.241   2.477   2.709  2.2475  1.2677  0.0020
 3674TIP3    H232438   4.326   2.375   2.782  0.6079 -0.3053 -0.2188
 3675TIP3   OH232439   2.915   5.880   4.712 -0.2241 -0.2422  0.4343
 3675TIP3    H132440   2.853   5.809   4.697 -0.6148 -0.5144  2.9647
 3675TIP3    H232441   2.861   5.959   4.710 -0.1305 -0.1914 -0.3373
 3676TIP3   OH232442   5.293   3.567  10.721 -0.2390 -0.3460  0.0757
 3676TIP3    H132443   5.322   3.657  10.710 -2.1720  0.2025 -0.9983
 3676TIP3    H232444   5.302   3.550  10.815  0.6683  0.7486  0.2092
 3677TIP3   OH232445   4.041   3.058  13.123 -0.3183  0.3602 -0.4949
 3677TIP3    H132446   4.057   2.985  13.183  1.4262  0.5803 -0.6462
 3677TIP3    H232447   4.031   3.017  13.037 -1.2073  0.1690 -0.3057
 3678TIP3   OH232448   5.325   4.127  12.485  0.2603  0.7156  0.3948
 3678TIP3    H132449   5.408   4.078  12.481  0.7907  1.5873  0.4159
 3678TIP3    H232450   5.259   4.063  12.458  0.7596 -0.3963  1.6818
 3679TIP3   OH232451   0.341   3.855   5.306  0.5767 -0.4029  0.3750
 3679TIP3    H132452   0.246   3.848   5.292  0.5882  0.7423 -0.3490
 3679TIP3    H232453   0.351   3.934   5.359  1.1559 -0.3072  0.1279
 3680TIP3   OH232454   2.080   3.782  14.073  0.2818  0.3471  0.0437
 3680TIP3    H132455   2.018   3.854  14.064  0.7306  0.7643  0.2579
 3680TIP3    H232456   2.113   3.768  13.984 -1.9361 -1.5565 -0.5990
 3681TIP3   OH232457   4.423   1.875  13.726 -0.6951  0.4917  0.4096
 3681TIP3    H132458   4.479   1.905  13.798  0.2099  0.8628 -0.4301
 3681TIP3    H232459   4.334   1.881  13.761 -0.1492 -2.3256  2.5842
 3682TIP3   OH232460   5.303   3.234   0.048  0.0403 -0.1604 -0.2043
 3682TIP3    H132461   5.218   3.207   0.014  0.9336 -0.5547 -2.2320
 3682TIP3    H232462   5.312   3.326   0.022  1.8180 -1.1327 -3.5892
 3683TIP3   OH232463   3.435   5.405  12.093 -0.0393 -0.6366  0.3534
 3683TIP3    H132464   3.472   5.490  12.116  0.6518 -1.0729  0.9128
 3683TIP3    H232465   3.500   5.341  12.124 -0.4646 -1.3607 -0.2044
 3684TIP3   OH232466   3.924   3.947  11.422 -0.2763 -0.8694  0.2496
 3684TIP3    H132467   3.993   3.889  11.453  2.6627  1.5836 -1.1035
 3684TIP3    H232468   3.899   3.999  11.498  1.5647  0.1474  0.2264
 3685TIP3   OH232469   2.225   6.165  11.414 -0.0520  0.0401 -0.0185
 3685TIP3    H132470   2.276   6.123  11.345 -0.6967 -0.5099 -0.1758
 3685TIP3    H232471   2.270   6.248  11.430  0.7597 -0.3338 -0.2965
 3686TIP3   OH232472   3.744   2.535   6.080  0.3256 -0.7239 -0.4046
 3686TIP3    H132473   3.801   2.458   6.088 -0.6284 -1.4614 -0.4419
 3686TIP3    H232474   3.706   2.545   6.168  0.4953 -0.2435 -0.3828
 3687TIP3   OH232475   5.657   5.275  14.309 -0.3365 -0.3006  0.0582
 3687TIP3    H132476   5.589   5.228  14.356 -0.4111 -1.1256 -0.8246
 3687TIP3    H232477   5.643   5.367  14.330  0.3935 -0.6851  2.6167
 3688TIP3   OH232478   2.326   2.671  15.970  0.4648 -0.0675 -0.3280
 3688TIP3    H132479   2.388   2.626  16.028  0.4067  0.2059 -0.0508
 3688TIP3    H232480   2.344   2.764  15.983  0.5822 -0.0093 -0.9021
 3689TIP3   OH232481   5.852   1.034  17.291  0.1356  0.6025  0.2548
 3689TIP3    H132482   5.898   1.082  17.359  2.0708  2.2329 -2.0320
 3689TIP3    H232483   5.865   1.085  17.212 -1.7322 -1.3450 -1.4644
 3690TIP3   OH232484   2.289   0.476   3.654  0.0895  0.8744 -0.4002
 3690TIP3    H132485   2.208   0.496   3.606 -0.4006 -1.0827 -0.4856
 3690TIP3    H232486   2.357   0.525   3.609 -1.0057  2.4387 -0.4341
 3691TIP3   OH232487   0.014   3.359  14.569 -0.0235  0.3905  0.3890
 3691TIP3    H132488  -0.014   3.386  14.657  1.1158  1.2386  0.5045
 3691TIP3    H232489   0.019   3.263  14.574 -1.4975  0.2980  0.7596
 3692TIP3   OH232490   2.116   6.179  11.734  0.0587  0.0478 -0.0091
 3692TIP3    H132491   2.203   6.139  11.731  0.4523  0.8479  0.5627
 3692TIP3    H232492   2.056   6.106  11.714  0.7014 -0.9733  1.6170
 3693TIP3   OH232493   1.730   1.082  11.883  0.1471  0.0421 -0.3255
 3693TIP3    H132494   1.738   0.998  11.929  0.2394  0.9673  1.4384
 3693TIP3    H232495   1.643   1.080  11.844 -0.6664 -0.0686  1.4249
 3694TIP3   OH232496   1.263   0.665   0.520 -0.1765  0.2108  0.2713
 3694TIP3    H132497   1.177   0.643   0.485  0.9126 -1.0468 -1.8147
 3694TIP3    H232498   1.279   0.755   0.491  0.1240 -0.3371 -1.3630
 3695TIP3   OH232499   6.558   1.037   1.048 -0.2497 -0.0750  0.0285
 3695TIP3    H132500   6.620   1.042   1.121  0.1234  0.1925 -0.3077
 3695TIP3    H232501   6.497   0.967   1.074 -0.4602  0.3975  0.8570
 3696TIP3   OH232502   3.872   2.848   3.192  0.4918  0.0244  0.1379
 3696TIP3    H132503   3.791   2.898   3.190  0.6896  0.6416  2.9813
 3696TIP3    H232504   3.941   2.911   3.170  0.4692  0.3387  0.9229
 3697TIP3   OH232505   4.573   5.710   5.725  0.2524  0.0598 -0.5060
 3697TIP3    H132506   4.637   5.639   5.724 -3.1464 -3.3505 -1.6560
 3697TIP3    H232507   4.528   5.702   5.809 -0.4410  0.5539 -0.8124
 3698TIP3   OH232508   1.304   2.715  14.653 -0.0374 -0.4296  0.0093
 3698TIP3    H132509   1.333   2.730  14.563  0.0813 -0.8662 -0.0301
 3698TIP3    H232510   1.236   2.781  14.668  0.0269 -0.2771 -0.3587
 3699TIP3   OH232511   2.847   1.450  14.105 -0.1400 -0.6088  0.0330
 3699TIP3    H132512   2.860   1.493  14.020  1.8943  1.2250  1.1761
 3699TIP3    H232513   2.767   1.491  14.140  0.9989  1.3321  0.4963
 3700TIP3   OH232514   0.621   5.672   2.420 -0.0025  0.5473 -0.3922
 3700TIP3    H132515   0.687   5.731   2.458 -0.3778  0.5007  0.3372
 3700TIP3    H232516   0.598   5.613   2.491 -1.2178  0.8923 -0.4824
 3701TIP3   OH232517   6.080   2.014  13.873 -0.1496  0.0427  0.4648
 3701TIP3    H132518   5.995   2.054  13.855  0.0647  0.1763 -0.2667
 3701TIP3    H232519   6.081   1.935  13.819 -0.6579 -1.0928  2.0576
 3702TIP3   OH232520   4.321   2.745  13.558 -0.1668  0.3675  0.8088
 3702TIP3    H132521   4.251   2.809  13.554 -0.9591 -0.4789  0.8508
 3702TIP3    H232522   4.396   2.788  13.517 -0.6148  1.3897  1.0466
 3703TIP3   OH232523   4.590   4.122  12.458  0.1270  0.0154  0.0037
 3703TIP3    H132524   4.565   4.031  12.444  1.3176 -0.3421  0.0257
 3703TIP3    H232525   4.541   4.171  12.393 -2.3109 -0.3172  1.4473
 3704TIP3   OH232526   0.565   4.886  12.001 -0.3098 -0.2674 -0.4361
 3704TIP3    H132527   0.500   4.818  11.981  1.3487 -2.0030 -0.2261
 3704TIP3    H232528   0.586   4.925  11.916  0.0646 -1.3294 -0.8531
 3705TIP3   OH232529   2.684   4.745   6.042 -0.4314  0.8544 -0.2097
 3705TIP3    H132530   2.651   4.749   5.953 -1.1034  2.2138  0.0679
 3705TIP3    H232531   2.619   4.793   6.094  0.3859  0.8496  0.8699
 3706TIP3   OH232532   3.111   4.636   4.345  0.5134 -0.1417  0.0119
 3706TIP3    H132533   3.170   4.562   4.363 -0.0914 -0.5768  0.2358
 3706TIP3    H232534   3.169   4.711   4.335  1.2599 -0.8911 -1.6496
 3707TIP3   OH232535   2.095   3.366   6.358  0.4024 -0.5898  0.0601
 3707TIP3    H132536   2.123   3.284   6.316  1.1942 -1.5939  2.3257
 3707TIP3    H232537   2.064   3.338   6.445  0.9869  1.5498  1.0178
 3708TIP3   OH232538   2.378   1.369  14.081  0.3858  0.0500  0.1169
 3708TIP3    H132539   2.316   1.417  14.026  1.0514  0.5688 -0.2099
 3708TIP3    H232540   2.334   1.287  14.102 -0.2668  0.2585 -0.3926
 3709TIP3   OH232541   4.210   0.978  16.444 -0.2502 -0.1778 -0.4114
 3709TIP3    H132542   4.221   0.883  16.447 -1.2387 -0.3433 -1.3463
 3709TIP3    H232543   4.298   1.012  16.429 -0.2139 -1.1059 -2.6406
 3710TIP3   OH232544   3.743   5.311  15.776 -0.4198 -0.3338  0.3804
 3710TIP3    H132545   3.777   5.235  15.729 -3.4352 -1.1193 -0.8160
 3710TIP3    H232546   3.725   5.279  15.864 -0.4657 -0.6534  0.2567
 3711TIP3   OH232547   6.702   1.458  15.607 -0.5018 -0.4994  0.2747
 3711TIP3    H132548   6.684   1.396  15.536 -2.3074 -0.0866  0.3083
 3711TIP3    H232549   6.718   1.541  15.563  0.6581 -0.7011  0.2840
 3712TIP3   OH232550   0.621   0.897   2.055 -0.0579  0.1877  0.4032
 3712TIP3    H132551   0.624   0.802   2.061  0.6663  0.2252  0.7109
 3712TIP3    H232552   0.606   0.914   1.962  0.4277 -0.2258  0.2417
 3713TIP3   OH232553   3.111   1.252  14.580  0.0084  0.0020 -0.1959
 3713TIP3    H132554   3.160   1.192  14.636 -0.8507 -1.6319 -1.1137
 3713TIP3    H232555   3.132   1.339  14.613  0.6683 -0.8352  1.7042
 3714TIP3   OH232556   5.335   1.679  14.123 -0.0261  0.2503 -0.3120
 3714TIP3    H132557   5.298   1.600  14.084 -0.0505  0.3062 -0.4031
 3714TIP3    H232558   5.314   1.749  14.061 -0.0619  0.3398 -0.2012
 3715TIP3   OH232559   6.191   3.899   1.146 -0.0891 -0.2662 -0.0766
 3715TIP3    H132560   6.155   3.838   1.210  0.6189 -0.5469  0.0696
 3715TIP3    H232561   6.118   3.919   1.087 -0.7578  0.0355  0.8454
 3716TIP3   OH232562   1.692   4.176  15.183  0.9164  0.2215  0.3424
 3716TIP3    H132563   1.653   4.252  15.140 -0.9873  0.4828  2.3698
 3716TIP3    H232564   1.745   4.213  15.254 -0.0434 -0.2982  1.3607
 3717TIP3   OH232565   6.397   6.539  14.639 -0.2528 -0.0667  0.3018
 3717TIP3    H132566   6.395   6.628  14.602  1.7617 -0.4489 -0.8833
 3717TIP3    H232567   6.428   6.551  14.729 -0.2149  0.4455  0.2223
 3718TIP3   OH232568   5.616   4.626  16.771  0.3101  0.3181  0.2021
 3718TIP3    H132569   5.586   4.714  16.793  1.2326  0.6137  0.3045
 3718TIP3    H232570   5.700   4.639  16.728 -0.2374 -0.4212 -1.1464
 3719TIP3   OH232571   5.330   1.082  11.418 -0.0195 -0.4527 -0.2724
 3719TIP3    H132572   5.369   1.069  11.331 -0.4028  1.5495 -0.7862
 3719TIP3    H232573   5.405   1.101  11.475  0.2696 -2.0838 -0.0373
 3720TIP3   OH232574   2.150   3.825  15.407  0.2582 -0.1351 -0.0743
 3720TIP3    H132575   2.072   3.770  15.401 -1.2874  1.8026  0.9881
 3720TIP3    H232576   2.217   3.777  15.358 -1.1598 -2.5797  0.2311
 3721TIP3   OH232577   5.330   1.826  13.250  0.1454  0.1424  0.3299
 3721TIP3    H132578   5.410   1.879  13.242 -2.3211  4.4501  0.8506
 3721TIP3    H232579   5.282   1.843  13.169 -1.4886  0.1410  1.2577
 3722TIP3   OH232580   5.022   4.351  13.959 -0.1389  1.1020  0.2545
 3722TIP3    H132581   4.940   4.358  14.009  0.1020 -1.2024  1.1138
 3722TIP3    H232582   5.000   4.385  13.873 -1.9593  0.8032  0.5378
 3723TIP3   OH232583   2.519   6.055  17.235  0.0934  0.0477  0.0114
 3723TIP3    H132584   2.468   6.133  17.213 -0.1713 -0.1441 -0.0617
 3723TIP3    H232585   2.544   6.018  17.151 -0.6620 -0.5174  0.0191
 3724TIP3   OH232586   5.998   5.709  15.849 -0.2505  0.0434  0.5242
 3724TIP3    H132587   6.007   5.652  15.773  0.3430  1.7492 -0.7690
 3724TIP3    H232588   6.075   5.767  15.844 -0.6183  0.7113  1.9868
 3725TIP3   OH232589   5.103   5.709   0.845 -0.3061 -0.3547 -0.1554
 3725TIP3    H132590   5.165   5.780   0.858  0.2041 -0.9314  0.6498
 3725TIP3    H232591   5.131   5.667   0.764  1.2350 -1.4504  0.8809
 3726TIP3   OH232592   2.499   6.183  15.463  0.2239 -0.1115 -0.0064
 3726TIP3    H132593   2.494   6.141  15.549  2.4693 -1.0912 -0.2868
 3726TIP3    H232594   2.420   6.238  15.458 -0.4225 -0.7425  2.2771
 3727TIP3   OH232595   3.936   0.717   2.125  0.0213  0.0562 -0.1550
 3727TIP3    H132596   3.856   0.682   2.085 -0.4247  1.1247 -0.2266
 3727TIP3    H232597   3.938   0.676   2.212 -0.9151  0.4370  0.0670
 3728TIP3   OH232598   3.611   4.982   1.506  0.7613  0.0203  0.4962
 3728TIP3    H132599   3.699   4.945   1.500  0.4463 -0.5803 -1.0285
 3728TIP3    H232600   3.560   4.933   1.441 -1.1500 -0.8114  2.5157
 3729TIP3   OH232601   5.546   0.987   4.624 -0.2153  0.1743  0.0920
 3729TIP3    H132602   5.618   1.020   4.677  0.8995 -1.2239 -0.4768
 3729TIP3    H232603   5.531   1.055   4.558  0.8712  0.3076 -0.0312
 3730TIP3   OH232604   3.611   3.104   1.465  0.0522 -0.2713 -0.2788
 3730TIP3    H132605   3.583   3.077   1.377  0.9146 -0.8486 -0.3836
 3730TIP3    H232606   3.693   3.151   1.450  1.1136 -1.8473  0.3530
 3731TIP3   OH232607   6.117   2.883  12.918 -0.3401 -0.2922 -0.3273
 3731TIP3    H132608   6.162   2.903  13.000 -1.3234 -2.6106  0.8833
 3731TIP3    H232609   6.187   2.874  12.854  0.6683 -0.7107  0.7807
 3732TIP3   OH232610   6.351   1.742   0.861  0.3785 -0.2310  0.2553
 3732TIP3    H132611   6.325   1.816   0.915  1.5579  1.5731 -1.5374
 3732TIP3    H232612   6.269   1.704   0.830 -0.2245  0.9713  0.3594
 3733TIP3   OH232613   2.096   1.659  16.969  0.3313 -0.4036  0.0585
 3733TIP3    H132614   2.065   1.578  16.928 -0.2234 -0.0891 -0.1506
 3733TIP3    H232615   2.191   1.650  16.972  0.3952 -0.3828 -1.3891
 3734TIP3   OH232616   5.018   2.413   0.706  0.3547 -0.3684  0.0125
 3734TIP3    H132617   5.000   2.438   0.616  0.6438  1.6361  0.4700
 3734TIP3    H232618   4.979   2.325   0.715 -2.1561  0.5165 -1.2726
 3735TIP3   OH232619   3.754   0.612  13.605 -0.3458  0.6690 -0.5561
 3735TIP3    H132620   3.708   0.531  13.627 -2.9714  2.0667 -0.4140
 3735TIP3    H232621   3.773   0.605  13.512  0.4383 -0.5301 -0.3234
 3736TIP3   OH232622   0.008   0.765   3.575 -0.0340 -0.0932 -0.3389
 3736TIP3    H132623   0.093   0.787   3.611  0.4580 -0.7232 -1.0804
 3736TIP3    H232624  -0.016   0.840   3.521 -0.2115  0.3199  0.2989
 3737TIP3   OH232625   2.399   6.758   3.074 -0.3496  0.1886  0.4455
 3737TIP3    H132626   2.406   6.814   3.151 -0.6808  0.0839  0.5504
 3737TIP3    H232627   2.371   6.673   3.108 -2.0304  0.5532  0.0574
 3738TIP3   OH232628   5.742   0.876   1.463 -0.1980  0.4551 -0.4246
 3738TIP3    H132629   5.692   0.795   1.447 -0.0957  0.4937 -0.9769
 3738TIP3    H232630   5.679   0.935   1.503 -0.6050  0.4980 -1.1047
 3739TIP3   OH232631   5.316   5.261   5.359  0.5238 -0.2662  0.7005
 3739TIP3    H132632   5.256   5.306   5.300 -0.7956 -1.5657  0.9859
 3739TIP3    H232633   5.394   5.317   5.362 -0.6799  1.4963  0.3495
 3740TIP3   OH232634   5.086   4.439  12.630  0.3975  0.3232  0.2412
 3740TIP3    H132635   5.141   4.510  12.664  0.4342 -0.3650  1.6835
 3740TIP3    H232636   5.089   4.372  12.698  0.0370 -0.9072 -0.9193
 3741TIP3   OH232637   2.492   3.887   0.857 -0.2446  0.4475 -0.0885
 3741TIP3    H132638   2.428   3.868   0.788 -0.5583 -1.8253  0.7287
 3741TIP3    H232639   2.441   3.928   0.926 -0.3615  0.7056 -0.3249
 3742TIP3   OH232640   2.227   6.505   0.112 -0.3038  0.3011  0.3219
 3742TIP3    H132641   2.209   6.560   0.035  0.5282 -0.9087 -0.7883
 3742TIP3    H232642   2.198   6.557   0.186  1.2147  2.6226 -0.5976
 3743TIP3   OH232643   2.549   3.181   2.543 -0.5549  0.7643  0.5211
 3743TIP3    H132644   2.455   3.179   2.528 -0.5191  0.4192  0.3240
 3743TIP3    H232645   2.587   3.184   2.455 -0.3935  1.6313  0.6165
 3744TIP3   OH232646   1.960   0.538  14.809  0.1141  0.4091  0.3191
 3744TIP3    H132647   1.909   0.619  14.810 -1.6125 -0.5744 -0.9773
 3744TIP3    H232648   1.923   0.485  14.879 -1.5399 -0.7356 -1.3031
 3745TIP3   OH232649   6.474   6.678  16.060 -0.3032  0.2088 -1.1370
 3745TIP3    H132650   6.503   6.587  16.061  2.3513  0.8760 -4.1524
 3745TIP3    H232651   6.540   6.725  16.111 -1.7039  0.5541  0.4796
 3746TIP3   OH232652   3.755   4.097   1.830 -0.1067  0.0268 -0.1435
 3746TIP3    H132653   3.778   4.036   1.899  0.7477  1.6009  1.0373
 3746TIP3    H232654   3.838   4.134   1.801 -0.6602  1.8355  0.3793
 3747TIP3   OH232655   5.739   6.734  12.928 -0.2871 -0.0982 -0.2683
 3747TIP3    H132656   5.756   6.814  12.978 -1.6709  0.5383 -0.7536
 3747TIP3    H232657   5.821   6.717  12.881  0.2123  0.7015  0.2875
 3748TIP3   OH232658   2.114   2.257   4.691 -0.0654 -0.6930 -0.1359
 3748TIP3    H132659   2.113   2.343   4.648 -2.7332 -0.3854  0.3957
 3748TIP3    H232660   2.154   2.274   4.777  1.5476 -0.5053 -0.8839
 3749TIP3   OH232661   4.682   1.301  15.136  0.1513 -0.5317 -0.4123
 3749TIP3    H132662   4.653   1.264  15.219 -2.1547  4.6220  1.5234
 3749TIP3    H232663   4.605   1.298  15.079 -0.0305  0.8726 -0.2814
 3750TIP3   OH232664   2.051   4.627  11.926 -0.0282 -0.6363  0.1160
 3750TIP3    H132665   2.066   4.593  11.838  1.0536 -0.2843  0.1441
 3750TIP3    H232666   1.963   4.664  11.923  0.1152 -0.3407 -0.9122
 3751TIP3   OH232667   1.244   3.993  15.217 -0.2580  0.2842  0.1215
 3751TIP3    H132668   1.154   3.962  15.225 -0.1253  0.1024  1.0231
 3751TIP3    H232669   1.288   3.925  15.166 -0.2682 -0.4166  1.0215
 3752TIP3   OH232670   4.123   5.285  16.133  0.0090  0.0912 -0.0506
 3752TIP3    H132671   4.089   5.340  16.063 -0.2211  0.0869  0.0558
 3752TIP3    H232672   4.120   5.196  16.097  0.1211  0.1158 -0.1237
 3753TIP3   OH232673   3.787   2.269  14.054  0.3691  0.4718 -0.8447
 3753TIP3    H132674   3.730   2.346  14.044  1.0649  0.9032 -1.5851
 3753TIP3    H232675   3.727   2.198  14.075 -0.1164  1.5806  1.9900
 3754TIP3   OH232676   2.389   5.395   5.394 -0.5398 -0.2903 -0.0168
 3754TIP3    H132677   2.417   5.357   5.477  1.0774 -0.9941 -0.8456
 3754TIP3    H232678   2.358   5.483   5.417  0.5803 -0.2004  1.2251
 3755TIP3   OH232679   4.552   6.155   4.826  0.0690 -0.3448 -0.1685
 3755TIP3    H132680   4.512   6.092   4.886  1.1418 -0.0258  0.9249
 3755TIP3    H232681   4.606   6.211   4.883  0.7991  0.2224 -1.3888
 3756TIP3   OH232682   4.274   4.642  14.842 -0.3518  0.2377  0.1648
 3756TIP3    H132683   4.242   4.718  14.795  0.0597 -0.0809 -0.6575
 3756TIP3    H232684   4.365   4.663  14.863 -0.2260 -0.0381 -0.0967
 3757TIP3   OH232685   4.467   4.028  10.245  0.4830 -0.5829  0.5370
 3757TIP3    H132686   4.446   4.088  10.316  1.8414  0.0510  0.4491
 3757TIP3    H232687   4.401   3.959  10.250 -2.8192  2.1465 -0.9227
 3758TIP3   OH232688   0.933   3.759  16.352  0.2516 -0.2747 -0.5767
 3758TIP3    H132689   0.929   3.838  16.298  0.4929  1.4738  1.8206
 3758TIP3    H232690   1.025   3.751  16.377  0.0998 -0.8598 -0.1799
 3759TIP3   OH232691   0.105   2.905  14.746  0.2054  0.6835  0.2257
 3759TIP3    H132692   0.098   2.859  14.663 -0.2323 -0.5475  0.9207
 3759TIP3    H232693   0.191   2.947  14.743  0.6405 -0.2351 -0.4121
 3760TIP3   OH232694   4.992   2.888  14.392  1.0070  0.6912  0.6144
 3760TIP3    H132695   4.960   2.948  14.324 -0.8292  0.2158  0.9971
 3760TIP3    H232696   5.048   2.826  14.346 -2.9587 -1.8533 -1.3051
 3761TIP3   OH232697   3.535   2.084  13.835 -0.6490  0.0751  0.1462
 3761TIP3    H132698   3.616   2.125  13.805 -1.4046  0.1147 -2.0407
 3761TIP3    H232699   3.564   2.011  13.890  0.9781 -1.0213 -2.0146
 3762TIP3   OH232700   2.917   3.174  16.863 -0.0449  0.2525 -0.1353
 3762TIP3    H132701   2.952   3.245  16.916 -1.1301  0.5269  0.2371
 3762TIP3    H232702   2.832   3.154  16.902 -0.5636 -0.0108 -1.3461
 3763TIP3   OH232703   4.042   0.723  13.397 -0.1626 -0.4910  0.0919
 3763TIP3    H132704   3.998   0.639  13.387 -0.0650 -0.6522  0.9344
 3763TIP3    H232705   4.128   0.701  13.434  0.6889 -0.1917 -1.6169
 3764TIP3   OH232706   6.492   1.283   5.868  0.1192  0.1731  0.1399
 3764TIP3    H132707   6.489   1.198   5.825  0.5380 -0.6814  1.7297
 3764TIP3    H232708   6.425   1.335   5.824  0.7588 -0.5329 -1.7440
 3765TIP3   OH232709   0.132   0.424   3.201  0.2631  0.0344 -0.1739
 3765TIP3    H132710   0.187   0.492   3.240  0.2353 -0.5983  1.0117
 3765TIP3    H232711   0.048   0.468   3.185  0.1199  0.2095  0.9417
 3766TIP3   OH232712   2.666   5.974   4.386  0.2690 -0.1067 -0.4823
 3766TIP3    H132713   2.656   5.941   4.476 -1.9216  1.0848 -0.2074
 3766TIP3    H232714   2.673   5.895   4.333 -0.5496 -0.9197  0.5512
 3767TIP3   OH232715   1.606   4.217  12.116  0.2523  0.1206 -0.1950
 3767TIP3    H132716   1.538   4.183  12.175  0.5055  1.8469  1.1731
 3767TIP3    H232717   1.684   4.224  12.170  0.7984  0.7447 -1.0370
 3768TIP3   OH232718   6.497   5.825  13.978  0.1266  0.2075  0.4565
 3768TIP3    H132719   6.537   5.832  13.891  0.6363  1.4226  0.7773
 3768TIP3    H232720   6.409   5.861  13.968 -1.1843 -2.8595 -0.3546
 3769TIP3   OH232721   5.689   5.945  11.579 -0.0118 -0.1631  0.0083
 3769TIP3    H132722   5.765   5.990  11.541 -0.0839 -0.2946 -0.2997
 3769TIP3    H232723   5.643   6.013  11.629  1.1647 -0.4451  1.5376
 3770TIP3   OH232724   6.233   3.190  16.391 -0.1579 -0.4904  0.7788
 3770TIP3    H132725   6.314   3.213  16.436  1.0469 -1.7128 -0.6484
 3770TIP3    H232726   6.172   3.260  16.413  0.7539 -0.3720  3.1959
 3771TIP3   OH232727   1.722   0.309  10.273  0.4038 -0.2745 -0.2588
 3771TIP3    H132728   1.643   0.292  10.325  1.0029 -0.9623  0.4475
 3771TIP3    H232729   1.786   0.245  10.304  0.8594 -0.5648 -1.7021
 3772TIP3   OH232730   4.515   2.812   0.135 -0.2305 -0.1000 -0.0917
 3772TIP3    H132731   4.434   2.863   0.128 -0.1633 -0.1147 -1.0475
 3772TIP3    H232732   4.542   2.824   0.226  0.4543  2.6538 -0.5700
 3773TIP3   OH232733   4.176   5.878  12.919  0.0954 -0.5909 -0.1750
 3773TIP3    H132734   4.100   5.931  12.942 -0.0038 -1.3332  1.3163
 3773TIP3    H232735   4.200   5.907  12.831  0.0006  1.8744  0.5428
 3774TIP3   OH232736   0.031   2.166   0.847 -0.3925  0.3250 -0.2963
 3774TIP3    H132737   0.003   2.113   0.921 -3.1137 -0.1389 -1.5380
 3774TIP3    H232738   0.094   2.111   0.800 -1.0178 -0.6539 -0.0089
 3775TIP3   OH232739   5.569   3.519  15.554 -0.1572  0.2279  0.1937
 3775TIP3    H132740   5.647   3.572  15.572  0.8994 -1.1167 -0.2239
 3775TIP3    H232741   5.509   3.579  15.511  1.0025  1.1016 -0.2748
 3776TIP3   OH232742   0.105   5.518  12.100 -0.1500  0.0612 -0.5673
 3776TIP3    H132743   0.093   5.583  12.031  0.6828  0.2150 -0.5701
 3776TIP3    H232744   0.200   5.507  12.108 -0.2707 -1.8212 -1.1861
 3777TIP3   OH232745   3.652   1.535   0.379 -0.6134  0.2019 -0.2169
 3777TIP3    H132746   3.624   1.461   0.324 -1.1840  1.7998 -2.2168
 3777TIP3    H232747   3.747   1.537   0.369 -0.5422 -0.5655  0.2687
 3778TIP3   OH232748   2.669   5.222  11.390 -0.0918 -0.2462  0.2039
 3778TIP3    H132749   2.724   5.295  11.364  1.6573 -1.1734  1.1174
 3778TIP3    H232750   2.691   5.152  11.329 -0.8458 -0.4048  0.1024
 3779TIP3   OH232751   3.557   1.206  14.623  0.0322  0.4922  0.3498
 3779TIP3    H132752   3.644   1.196  14.662  0.8995 -0.2510 -1.6707
 3779TIP3    H232753   3.557   1.146  14.549 -2.9025 -0.9896  1.3714
 3780TIP3   OH232754   6.706   3.286   3.622  0.2772 -0.2671  0.0316
 3780TIP3    H132755   6.682   3.374   3.594 -1.8383 -0.7415  0.1884
 3780TIP3    H232756   6.623   3.245   3.646  1.1069 -2.5389 -0.7048
 3781TIP3   OH232757   2.132   0.532   6.164  0.2666  0.3900 -0.4419
 3781TIP3    H132758   2.036   0.527   6.159  0.1827  0.9804  0.3456
 3781TIP3    H232759   2.161   0.525   6.073 -0.5345  0.3500 -0.7040
 3782TIP3   OH232760   3.710   3.354  14.205 -0.0977  0.3328 -0.5639
 3782TIP3    H132761   3.766   3.382  14.132 -2.6528  1.3944 -2.2339
 3782TIP3    H232762   3.692   3.434  14.253 -0.2747  0.0209 -0.1047
 3783TIP3   OH232763   6.432   2.070   3.134  0.3729 -0.5684  0.4867
 3783TIP3    H132764   6.386   2.140   3.088  0.9523 -0.4169  0.1351
 3783TIP3    H232765   6.377   2.052   3.210  0.3998  0.5264  0.7831
 3784TIP3   OH232766   1.714   2.762   4.460  0.2258 -0.1232 -0.2608
 3784TIP3    H132767   1.678   2.797   4.541  0.2448 -0.8291  0.0611
 3784TIP3    H232768   1.745   2.674   4.483  0.7054 -0.1323 -0.9062
 3785TIP3   OH232769   3.475   6.153  12.361  0.4245  0.3324 -0.2546
 3785TIP3    H132770   3.509   6.070  12.394 -1.5200  0.2784  1.8374
 3785TIP3    H232771   3.464   6.208  12.438 -1.3357  1.3806 -1.1636
 3786TIP3   OH232772   5.895   5.876   2.533  0.3610 -0.1875 -0.4111
 3786TIP3    H132773   5.934   5.838   2.612  1.3671  1.4452 -0.0899
 3786TIP3    H232774   5.801   5.878   2.552  0.6321  0.6604  0.9735
 3787TIP3   OH232775   5.264   5.190   1.637 -0.2595 -0.0880  0.1074
 3787TIP3    H132776   5.296   5.274   1.605 -0.6772 -0.2802 -0.8391
 3787TIP3    H232777   5.168   5.195   1.628 -0.5236  0.2812  2.4089
 3788TIP3   OH232778   4.466   3.397  17.044 -0.8232  0.1179 -0.5224
 3788TIP3    H132779   4.535   3.439  17.095 -0.0798 -0.3734 -1.1038
 3788TIP3    H232780   4.385   3.437  17.075 -0.2942  0.5622  0.3083
 3789TIP3   OH232781   0.422   2.535   2.499 -0.5481  0.2356 -0.1624
 3789TIP3    H132782   0.511   2.514   2.471 -1.0888 -0.4261 -1.4807
 3789TIP3    H232783   0.391   2.598   2.433 -0.9309  0.7562  0.5041
 3790TIP3   OH232784   3.729   4.299  14.322  0.3570 -0.4987  0.4354
 3790TIP3    H132785   3.786   4.272  14.394  0.5735  0.5275  0.6721
 3790TIP3    H232786   3.735   4.395  14.321 -2.5184 -0.2193  1.4056
 3791TIP3   OH232787   0.788   1.889   4.810 -0.5850 -0.3781  0.3187
 3791TIP3    H132788   0.720   1.827   4.782 -0.1273  0.0371 -1.9585
 3791TIP3    H232789   0.762   1.972   4.770  0.9892 -0.1097 -0.2095
 3792TIP3   OH232790   3.904   3.014   4.387 -0.2380 -0.6465  0.1034
 3792TIP3    H132791   3.895   2.919   4.383 -2.5125 -0.4458 -1.3141
 3792TIP3    H232792   3.826   3.043   4.434 -0.0492  0.5878 -0.3160
 3793TIP3   OH232793   2.503   5.489  17.356 -0.6661  0.6389 -0.4029
 3793TIP3    H132794   2.516   5.480  17.451 -1.8119 -0.9075 -0.3558
 3793TIP3    H232795   2.513   5.583  17.340 -0.6391  0.9615  1.2896
 3794TIP3   OH232796   3.433   1.494   2.441  0.0200 -0.2268  0.7582
 3794TIP3    H132797   3.384   1.560   2.392  1.1813  0.3099  0.2704
 3794TIP3    H232798   3.439   1.530   2.529 -0.3614 -0.2447  0.7929
 3795TIP3   OH232799   1.395   1.758   4.521 -0.1362  0.0589  0.2001
 3795TIP3    H132800   1.418   1.755   4.614  0.8048 -2.5397 -0.0191
 3795TIP3    H232801   1.301   1.738   4.519  0.1327 -1.3760  0.5700
 3796TIP3   OH232802   4.396   5.091   5.488 -0.6244 -0.1231 -0.0662
 3796TIP3    H132803   4.454   5.165   5.470 -1.3573  0.3064 -0.7113
 3796TIP3    H232804   4.401   5.079   5.582 -2.4592  2.4340  0.4708
 3797TIP3   OH232805   4.250   2.674  16.737 -0.1185 -0.4802 -1.1487
 3797TIP3    H132806   4.245   2.727  16.658  0.8589 -1.2246 -1.7311
 3797TIP3    H232807   4.343   2.651  16.745 -0.0850  0.0469  0.5415
 3798TIP3   OH232808   4.350   6.402  17.002 -0.4562 -0.7600  0.3290
 3798TIP3    H132809   4.278   6.461  16.982 -1.4067 -1.7234  0.7727
 3798TIP3    H232810   4.411   6.411  16.929 -0.4223  0.9656  0.5307
 3799TIP3   OH232811   2.685   4.007  17.268  0.2503  0.0016  0.0397
 3799TIP3    H132812   2.592   4.013  17.289  0.1098  0.5472 -0.7170
 3799TIP3    H232813   2.697   4.066  17.194  1.0794 -0.5414 -0.2707
 3800TIP3   OH232814   3.565   2.269  12.758 -0.0730  0.0136 -0.2504
 3800TIP3    H132815   3.572   2.282  12.853  0.4069  0.0972 -0.2941
 3800TIP3    H232816   3.612   2.344  12.720 -1.1257  0.5326 -0.5712
 3801TIP3   OH232817   5.215   6.628  13.089 -0.0736 -0.0225 -0.3100
 3801TIP3    H132818   5.204   6.622  13.184  0.8215  0.6994 -0.1444
 3801TIP3    H232819   5.151   6.567  13.053 -0.5657 -0.1513  0.7535
 3802TIP3   OH232820   2.649   2.198  13.174 -0.1854  0.8482 -0.7435
 3802TIP3    H132821   2.670   2.116  13.220 -0.5259  0.6139 -1.0028
 3802TIP3    H232822   2.734   2.243  13.167  0.1036  0.2673 -1.0820
 3803TIP3   OH232823   4.852   5.805   3.384 -0.0562 -0.0113  0.3200
 3803TIP3    H132824   4.837   5.728   3.329 -1.9543 -0.8315  1.8876
 3803TIP3    H232825   4.779   5.806   3.445  0.5543  2.3993  1.1218
 3804TIP3   OH232826   3.570   4.336  11.481  0.0571  0.1568 -0.0535
 3804TIP3    H132827   3.643   4.379  11.436 -0.9493  0.0916 -1.8468
 3804TIP3    H232828   3.516   4.408  11.513  0.1710  0.2076  0.0268
 3805TIP3   OH232829   0.266   1.557  12.853 -0.1992  0.3392 -0.0222
 3805TIP3    H132830   0.331   1.520  12.913 -0.6317  1.5437  1.2329
 3805TIP3    H232831   0.315   1.618  12.799 -0.3507  1.7972  1.4098
 3806TIP3   OH232832   2.366   5.241   3.838 -0.1528  0.0897  0.4960
 3806TIP3    H132833   2.325   5.319   3.802 -3.0787 -1.1429  0.8910
 3806TIP3    H232834   2.460   5.254   3.823 -0.6606  2.9416 -0.7990
 3807TIP3   OH232835   3.875   6.021   5.081 -0.0327  0.2009 -0.1086
 3807TIP3    H132836   3.784   6.025   5.110  0.4659  0.0563  1.5727
 3807TIP3    H232837   3.925   6.008   5.161  1.6088  1.7575 -0.8186
 3808TIP3   OH232838   0.592   4.565  13.853  0.0737  0.0233 -0.5108
 3808TIP3    H132839   0.682   4.596  13.860  0.4342 -1.3081  1.8721
 3808TIP3    H232840   0.539   4.644  13.856  1.1138  0.7550 -0.7855
 3809TIP3   OH232841   4.335   2.113  14.483 -0.2638 -0.2476 -0.3955
 3809TIP3    H132842   4.311   2.206  14.485  0.3450 -0.0879  0.5891
 3809TIP3    H232843   4.279   2.075  14.416 -1.7945  0.4774  0.4082
 3810TIP3   OH232844   0.969   3.170   4.660 -0.5896 -0.8647 -0.2750
 3810TIP3    H132845   0.891   3.179   4.605 -0.3616  1.5525 -0.3020
 3810TIP3    H232846   0.940   3.199   4.746  0.0199 -0.9978 -0.0250
 3811TIP3   OH232847   1.662   6.620  14.345  0.6517  0.1892  1.0756
 3811TIP3    H132848   1.695   6.530  14.354  3.8740  1.0990 -0.2988
 3811TIP3    H232849   1.639   6.627  14.252  2.7786  1.4039  0.5780
 3812TIP3   OH232850   6.014   0.153  13.434  0.0522  0.1240  0.1001
 3812TIP3    H132851   6.046   0.242  13.450 -2.6790  1.1802  0.2936
 3812TIP3    H232852   6.048   0.102  13.507 -0.4255  1.6383  1.4397
 3813TIP3   OH232853   4.186   3.217  15.483  0.1062 -0.1812 -0.1565
 3813TIP3    H132854   4.200   3.123  15.491  0.4351 -0.0150  1.5356
 3813TIP3    H232855   4.157   3.245  15.569  1.2671  1.4814 -0.2487
 3814TIP3   OH232856   2.077   4.874   0.685 -0.1573 -0.4369  0.4606
 3814TIP3    H132857   2.109   4.888   0.774  0.9006  0.5072 -0.0551
 3814TIP3    H232858   1.994   4.921   0.682  0.7349  1.1825  0.3829
 3815TIP3   OH232859   0.839   5.968   5.022 -0.0903 -0.3819 -0.4184
 3815TIP3    H132860   0.777   5.900   4.996 -0.8513  0.4993 -0.9622
 3815TIP3    H232861   0.871   6.004   4.940  0.9833 -0.6633 -0.1390
 3816TIP3   OH232862   3.139   3.411  11.990 -0.1683  0.0703 -0.2322
 3816TIP3    H132863   3.072   3.392  11.925  0.3123  1.2928 -1.1119
 3816TIP3    H232864   3.097   3.472  12.051  0.1096  0.7536 -0.7239
 3817TIP3   OH232865   0.541   1.213  12.437  0.2050  0.0216  0.2748
 3817TIP3    H132866   0.455   1.173  12.432  0.3505 -0.1254 -2.3330
 3817TIP3    H232867   0.529   1.291  12.491 -1.2474 -0.6438  0.9544
 3818TIP3   OH232868   4.330   2.495   4.110 -0.1174  0.0828 -0.2066
 3818TIP3    H132869   4.303   2.529   4.025 -0.7712  0.0694 -0.0155
 3818TIP3    H232870   4.302   2.404   4.110 -1.4275  0.4462  0.5381
 3819TIP3   OH232871   4.230   0.280  16.346  0.0250 -0.2591 -0.7245
 3819TIP3    H132872   4.160   0.217  16.367 -0.2173 -0.1579 -1.2105
 3819TIP3    H232873   4.191   0.366  16.361  0.4519 -0.2244  0.2311
 3820TIP3   OH232874   6.289   1.416  17.075  0.4545  0.0100  0.3843
 3820TIP3    H132875   6.292   1.501  17.030 -1.5701 -0.2803 -0.4073
 3820TIP3    H232876   6.297   1.352  17.005  2.5817 -0.5151  1.0368
 3821TIP3   OH232877   5.417   2.773   3.724  0.0782 -0.3250  0.2895
 3821TIP3    H132878   5.407   2.841   3.657  0.4513 -0.6915 -0.1483
 3821TIP3    H232879   5.511   2.752   3.723 -0.0398 -0.8723  0.3924
 3822TIP3   OH232880   3.190   0.456  15.317  0.2827 -0.0353 -0.0839
 3822TIP3    H132881   3.120   0.514  15.286 -0.9908 -0.9506  0.9682
 3822TIP3    H232882   3.145   0.375  15.342  1.7738 -0.7758  0.2920
 3823TIP3   OH232883   2.051   5.065   0.111 -1.2470 -0.3586  0.0999
 3823TIP3    H132884   2.089   5.146   0.075  1.8798 -0.9443  1.7162
 3823TIP3    H232885   2.030   5.013   0.034  0.5233  0.4098 -0.9724
 3824TIP3   OH232886   6.642   3.021   3.363  0.2200 -0.1978  0.7029
 3824TIP3    H132887   6.584   2.947   3.346  0.6246 -0.2599 -0.5080
 3824TIP3    H232888   6.725   2.981   3.389  2.0023 -0.5325 -4.4548
 3825TIP3   OH232889   0.018   0.730  12.912  0.3453  0.4005  0.9044
 3825TIP3    H132890   0.095   0.785  12.900  0.3456  0.5791  1.6567
 3825TIP3    H232891  -0.031   0.773  12.982 -0.8627  0.7396 -0.1143
 3826TIP3   OH232892   0.167   3.609   6.865 -0.3480 -0.2067 -0.5128
 3826TIP3    H132893   0.161   3.516   6.885  1.1851 -0.5011 -1.2817
 3826TIP3    H232894   0.159   3.652   6.950 -0.8051 -1.0518 -0.1168
 3827TIP3   OH232895   4.894   6.275   0.660  0.4451  0.4013 -0.1368
 3827TIP3    H132896   4.817   6.253   0.607  1.3653 -1.7349 -0.7031
 3827TIP3    H232897   4.912   6.366   0.640  0.1848 -0.0678 -2.7844
 3828TIP3   OH232898   3.277   1.248  12.613  0.3551 -0.2724  0.0845
 3828TIP3    H132899   3.280   1.319  12.549 -0.6363  0.2083  0.5447
 3828TIP3    H232900   3.368   1.217  12.619  0.6180  0.2569 -0.8842
 3829TIP3   OH232901   6.322   2.899  12.722 -0.4568 -0.3629  0.1212
 3829TIP3    H132902   6.363   2.983  12.699  1.1263 -1.0040  0.4836
 3829TIP3    H232903   6.260   2.883  12.651 -0.9696  1.2058  0.1603
 3830TIP3   OH232904   6.153   6.435  16.793 -0.0738 -0.0918 -0.0593
 3830TIP3    H132905   6.125   6.356  16.840 -0.3934  0.0015 -0.0889
 3830TIP3    H232906   6.072   6.486  16.783  0.2325  0.5160  0.4958
 3831TIP3   OH232907   1.998   3.564  12.664  0.1451 -0.2873  0.2807
 3831TIP3    H132908   1.944   3.617  12.722 -0.8763 -0.0938 -0.8190
 3831TIP3    H232909   1.988   3.604  12.578  0.2521 -1.5799 -0.3606
 3832TIP3   OH232910   2.398   2.363   3.575  0.1581 -0.2676 -0.4379
 3832TIP3    H132911   2.345   2.437   3.547 -2.6271 -0.9963  2.2827
 3832TIP3    H232912   2.441   2.333   3.495 -3.2542  0.6953 -2.9108
 3833TIP3   OH232913   4.471   1.534   1.652 -0.1062  0.1242  0.1598
 3833TIP3    H132914   4.470   1.438   1.655  0.3773  0.1169  0.1292
 3833TIP3    H232915   4.552   1.556   1.606 -2.5183  0.4156 -4.5769
 3834TIP3   OH232916   1.570   4.128  14.429  0.2712 -0.3575  0.6082
 3834TIP3    H132917   1.577   4.224  14.430  0.1564 -0.2994 -1.2347
 3834TIP3    H232918   1.507   4.110  14.360  0.6648 -1.7882  0.6034
 3835TIP3   OH232919   3.000   2.613  14.350  0.1851  0.7806 -0.4139
 3835TIP3    H132920   3.052   2.602  14.430  1.3363  2.3861 -0.8928
 3835TIP3    H232921   3.055   2.667  14.293 -0.2640 -0.9722 -2.6396
 3836TIP3   OH232922   3.175   4.115  16.173 -0.2085  0.1793  0.4733
 3836TIP3    H132923   3.083   4.141  16.174 -0.4930 -0.7484 -0.1185
 3836TIP3    H232924   3.202   4.124  16.082  0.6912  1.7227  0.8604
 3837TIP3   OH232925   0.520   6.110  15.135  0.3687 -0.0021  0.1035
 3837TIP3    H132926   0.469   6.102  15.054 -0.8832  1.8710  0.6439
 3837TIP3    H232927   0.611   6.113  15.106 -0.0848  1.0718 -1.2882
 3838TIP3   OH232928   0.130   1.159  15.545  0.1657  0.4772  0.1182
 3838TIP3    H132929   0.067   1.228  15.569 -0.1727  0.5183 -0.8457
 3838TIP3    H232930   0.185   1.199  15.478 -0.7246 -0.4906 -1.2634
 3839TIP3   OH232931   5.158   5.232   0.628 -0.8622 -0.3022 -0.1200
 3839TIP3    H132932   5.184   5.197   0.713 -1.2303 -0.6773 -0.1580
 3839TIP3    H232933   5.139   5.155   0.575 -0.3029 -0.0792 -0.6534
 3840TIP3   OH232934   2.078   4.081  11.272 -0.3805  0.1557 -0.1086
 3840TIP3    H132935   2.116   4.147  11.330 -0.0817 -0.4211  0.3578
 3840TIP3    H232936   2.123   4.000  11.295 -1.3597 -0.3867 -0.0738
 3841TIP3   OH232937   3.024   3.739  15.554 -0.0097 -0.4188 -0.1097
 3841TIP3    H132938   3.073   3.819  15.572  0.7586 -1.1727  1.3257
 3841TIP3    H232939   3.090   3.678  15.520 -0.0136 -1.2487  1.2725
 3842TIP3   OH232940   0.165   3.053   4.541 -0.0756  0.0605  0.3637
 3842TIP3    H132941   0.079   3.055   4.584 -0.3368  0.3477 -0.1694
 3842TIP3    H232942   0.146   3.069   4.449  0.5894  0.5115  0.3001
 3843TIP3   OH232943   2.239   4.651  17.018  0.4552  0.0211 -0.2431
 3843TIP3    H132944   2.302   4.723  17.016 -0.6581  1.0907  1.3561
 3843TIP3    H232945   2.259   4.600  16.940  2.1511  1.3042 -0.7053
 3844TIP3   OH232946   3.381   2.649  15.500 -0.7550  0.2407  0.0031
 3844TIP3    H132947   3.433   2.699  15.563 -1.4523  0.3902  0.4606
 3844TIP3    H232948   3.339   2.715  15.445  0.7572  0.1168 -1.4131
 3845TIP3   OH232949   5.943   4.676   4.248  0.2021  0.6545 -0.1273
 3845TIP3    H132950   5.900   4.594   4.271  0.6807  0.2291 -0.7253
 3845TIP3    H232951   5.871   4.739   4.236 -0.0887  1.0712  2.9891
 3846TIP3   OH232952   1.985   1.456  12.837 -0.6469  0.2292 -0.3447
 3846TIP3    H132953   2.024   1.541  12.857 -0.6805 -0.0430  0.9205
 3846TIP3    H232954   1.939   1.431  12.917 -0.3180 -1.1601 -0.5751
 3847TIP3   OH232955   2.387   2.823   1.927  0.7594  0.3231 -0.0117
 3847TIP3    H132956   2.410   2.841   2.018 -0.6356  1.5539  0.1378
 3847TIP3    H232957   2.328   2.747   1.931  0.7605  0.3291  0.1074
 3848TIP3   OH232958   1.264   4.291  16.057 -0.6957 -0.3334 -0.1520
 3848TIP3    H132959   1.320   4.364  16.031 -1.7982  0.5296 -0.1916
 3848TIP3    H232960   1.323   4.217  16.064  1.2106  1.2816  3.5304
 3849TIP3   OH232961   5.560   1.487   1.327 -0.6185  0.7019  0.1020
 3849TIP3    H132962   5.585   1.578   1.341 -1.1268  0.7774  0.5529
 3849TIP3    H232963   5.641   1.442   1.304 -0.1137  0.9828  1.2764
 3850TIP3   OH232964   5.630   4.539  16.087 -0.7269  0.2036  0.0488
 3850TIP3    H132965   5.536   4.551  16.095 -0.7645  0.2045 -0.4180
 3850TIP3    H232966   5.664   4.625  16.060 -0.0541  1.5829  4.4087
 3851TIP3   OH232967   2.106   1.186   4.848  0.6946  0.3079 -0.5381
 3851TIP3    H132968   2.128   1.237   4.926 -0.9132 -0.4442  0.4697
 3851TIP3    H232969   2.081   1.100   4.882  1.3252 -0.4998 -2.0300
 3852TIP3   OH232970   6.044   4.100   4.649  0.8654 -0.2258  0.0592
 3852TIP3    H132971   6.084   4.036   4.590  1.6444  0.7476 -0.4908
 3852TIP3    H232972   6.096   4.179   4.638  0.1413  0.4055  1.0015
 3853TIP3   OH232973   0.296   4.216   4.527 -0.7307  0.2924 -0.0056
 3853TIP3    H132974   0.381   4.241   4.490 -1.5004  2.3719 -0.5003
 3853TIP3    H232975   0.285   4.275   4.603 -0.4351 -1.9992  1.9435
 3854TIP3   OH232976   1.762   1.514   0.744 -0.4473 -0.1895  0.3996
 3854TIP3    H132977   1.818   1.440   0.769 -1.1835 -1.0075 -0.3082
 3854TIP3    H232978   1.700   1.476   0.682 -1.2269  0.9009  0.5062
 3855TIP3   OH232979   4.321   4.310  13.785  0.4023 -0.2027 -0.3196
 3855TIP3    H132980   4.251   4.302  13.849  1.1689  0.2711  0.6138
 3855TIP3    H232981   4.298   4.386  13.732  0.3474  0.1138  0.1580
 3856TIP3   OH232982   4.151   6.172  15.607  0.5282  0.1791  0.1363
 3856TIP3    H132983   4.185   6.146  15.693  0.5281 -2.9300 -0.6935
 3856TIP3    H232984   4.118   6.091  15.568 -0.0702  1.5886 -2.5721
 3857TIP3   OH232985   1.069   5.163  11.474 -0.1856 -0.0804  0.1958
 3857TIP3    H132986   1.130   5.196  11.539  0.1098 -0.3459  0.0567
 3857TIP3    H232987   1.124   5.135  11.401 -0.5040  0.1293 -0.1362
 3858TIP3   OH232988   2.528   3.806  13.522  0.3558  0.3956 -1.0695
 3858TIP3    H132989   2.614   3.764  13.520  0.0391 -0.2709 -0.6764
 3858TIP3    H232990   2.524   3.848  13.608 -1.1039 -2.5649  0.4623
 3859TIP3   OH232991   2.837   6.768   5.892 -0.1069 -0.8777 -0.5997
 3859TIP3    H132992   2.831   6.820   5.812 -1.9638 -0.5983 -0.3191
 3859TIP3    H232993   2.813   6.679   5.865 -0.2044 -0.8932 -0.4647
 3860TIP3   OH232994   5.325   1.767   0.368 -0.6475  0.1792 -0.2586
 3860TIP3    H132995   5.318   1.680   0.407 -0.8357 -0.1561 -1.0080
 3860TIP3    H232996   5.325   1.750   0.273  0.0989  0.9349 -0.4072
 3861TIP3   OH232997   2.544   3.324   0.273  0.5236 -0.0685  0.0289
 3861TIP3    H132998   2.483   3.394   0.296  0.6833  0.5854 -1.4980
 3861TIP3    H232999   2.615   3.333   0.337 -0.2005  0.1578  0.8264
 3862TIP3   OH233000   2.757   2.949  14.382  0.2584  0.1206 -0.5219
 3862TIP3    H133001   2.742   3.044  14.381 -1.4340 -0.1019  0.1809
 3862TIP3    H233002   2.831   2.936  14.324  1.3336  2.0024  0.3321
 3863TIP3   OH233003   0.130   4.187  16.694 -0.1384 -0.3050  0.2827
 3863TIP3    H133004   0.179   4.236  16.760 -0.9452 -1.0266  1.4745
 3863TIP3    H233005   0.061   4.248  16.666  0.0457 -0.0834  0.3093
 3864TIP3   OH233006   4.939   4.184   4.054 -0.4983 -0.0263  0.3148
 3864TIP3    H133007   5.011   4.247   4.046  0.4869 -0.9115  1.7658
 3864TIP3    H233008   4.932   4.145   3.967  0.9104 -0.0583  0.1960
 3865TIP3   OH233009   2.830   2.215   0.296 -0.1008 -0.0973 -0.2537
 3865TIP3    H133010   2.861   2.155   0.364  0.4365  0.1103 -0.3113
 3865TIP3    H233011   2.870   2.299   0.318  0.1457 -0.0494 -0.8684
 3866TIP3   OH233012   2.328   6.503   4.349 -0.1475  0.1113 -0.1118
 3866TIP3    H133013   2.239   6.532   4.331 -0.0386  0.1892 -0.5491
 3866TIP3    H233014   2.379   6.536   4.275 -0.0965 -1.5541 -0.8822
 3867TIP3   OH233015   6.533   1.685   4.584 -0.1690  0.6824 -0.5366
 3867TIP3    H133016   6.526   1.765   4.636 -1.1811  0.4208 -0.2380
 3867TIP3    H233017   6.450   1.638   4.600 -0.2446  0.2884 -1.8735
 3868TIP3   OH233018   2.551   0.799  12.326 -0.0865 -0.4079 -0.3010
 3868TIP3    H133019   2.553   0.741  12.403 -1.2004 -0.8522 -0.5804
 3868TIP3    H233020   2.520   0.743  12.255  0.5368  0.1044 -0.9861
 3869TIP3   OH233021   2.301   5.729   0.029 -0.5456 -0.5051  0.0539
 3869TIP3    H133022   2.237   5.763  -0.033  1.5754  1.8503 -1.0286
 3869TIP3    H233023   2.386   5.756  -0.006  0.9296 -1.5007  2.5474
 3870TIP3   OH233024   3.533   5.580  13.031  0.2292 -0.3053  0.3102
 3870TIP3    H133025   3.455   5.625  13.064 -0.6263 -0.4520 -1.4323
 3870TIP3    H233026   3.588   5.568  13.109  0.3487  3.3881  0.9647
 3871TIP3   OH233027   5.324   5.028  15.760 -0.3165  0.3310 -0.5319
 3871TIP3    H133028   5.344   4.968  15.832 -1.8884  2.3343  1.7489
 3871TIP3    H233029   5.408   5.043  15.716  0.4561 -1.8982  0.0906
 3872TIP3   OH233030   2.575   3.560   3.580  0.0591  0.3118  0.0527
 3872TIP3    H133031   2.657   3.515   3.598  0.1412 -0.2426 -1.5418
 3872TIP3    H233032   2.587   3.598   3.493 -1.0211  1.0517  0.2109
 3873TIP3   OH233033   1.234   5.296  15.440  0.3155 -0.4505  0.1327
 3873TIP3    H133034   1.327   5.317  15.448  0.6875 -2.4090  1.9146
 3873TIP3    H233035   1.231   5.218  15.384 -0.3601  0.0760 -0.5963
 3874TIP3   OH233036   6.077   6.251  14.750  0.3696 -0.1670  0.0311
 3874TIP3    H133037   6.079   6.163  14.787 -2.1042 -0.2638  0.1052
 3874TIP3    H233038   6.089   6.309  14.825 -4.3829 -0.3679  1.2409
 3875TIP3   OH233039   1.455   5.063  11.633  0.2218  0.3726  0.0753
 3875TIP3    H133040   1.505   5.043  11.712 -0.0452  0.5898  0.2989
 3875TIP3    H233041   1.434   4.977  11.596 -1.0967  0.1985  1.1455
 3876TIP3   OH233042   1.878   5.223  13.559 -0.0320 -0.0014  0.6738
 3876TIP3    H133043   1.839   5.143  13.594 -1.3928 -0.1310 -0.9563
 3876TIP3    H233044   1.802   5.275  13.529  0.9178  0.9792 -0.1206
 3877TIP3   OH233045   0.536   5.186  16.085  0.5185 -0.2925 -0.1303
 3877TIP3    H133046   0.555   5.262  16.140  1.6808  0.7473 -1.8553
 3877TIP3    H233047   0.498   5.223  16.005 -0.4725 -1.6799 -0.3293
 3878TIP3   OH233048   0.684   2.709  10.832 -0.3927 -0.1323  0.1526
 3878TIP3    H133049   0.737   2.727  10.909  0.8413 -0.0273 -0.6792
 3878TIP3    H233050   0.647   2.794  10.808 -1.0151 -0.2194  0.7793
 3879TIP3   OH233051   5.636   3.430   4.609  0.3569  0.2243 -0.2771
 3879TIP3    H133052   5.652   3.419   4.703  0.3230 -0.3014 -0.3294
 3879TIP3    H233053   5.578   3.505   4.603  1.1543  0.8736  0.0565
 3880TIP3   OH233054   0.465   1.704   1.266  0.8215 -0.1400  0.0487
 3880TIP3    H133055   0.384   1.749   1.292  0.0247 -1.5504  0.0963
 3880TIP3    H233056   0.467   1.626   1.321  1.7555 -0.5920 -0.6084
 3881TIP3   OH233057   5.439   4.452  16.941 -0.2777 -0.4289  0.3899
 3881TIP3    H133058   5.522   4.467  16.896 -0.3439  0.7854  0.6424
 3881TIP3    H233059   5.465   4.431  17.031 -0.2518  0.5726  0.6248
 3882TIP3   OH233060   4.927   4.945  13.189  0.1110  0.2526 -0.7779
 3882TIP3    H133061   4.860   4.994  13.141  0.5728 -0.4010 -2.1210
 3882TIP3    H233062   4.880   4.874  13.232 -0.0652 -0.2487 -1.7805
 3883TIP3   OH233063   0.142   4.890  14.514  0.0993 -0.0248  0.1551
 3883TIP3    H133064   0.056   4.850  14.504  0.0100 -0.0344  0.9024
 3883TIP3    H233065   0.164   4.876  14.606  0.3678  1.0426  0.2623
 3884TIP3   OH233066   2.778   4.834   1.839  0.5851  0.2073  0.3661
 3884TIP3    H133067   2.691   4.852   1.875  0.6403 -1.5927  1.5399
 3884TIP3    H233068   2.771   4.746   1.801  1.9836 -0.1947  0.9463
 3885TIP3   OH233069   1.210   1.598   5.985  0.0617  0.5780  0.2603
 3885TIP3    H133070   1.189   1.682   6.026  2.4301  1.4641 -0.2543
 3885TIP3    H233071   1.279   1.617   5.923 -0.6249 -1.4693 -1.2459
 3886TIP3   OH233072   2.705   2.527  17.178  0.4679 -0.0327 -0.3392
 3886TIP3    H133073   2.761   2.457  17.212 -1.2213 -0.0692  2.6952
 3886TIP3    H233074   2.661   2.563  17.255 -0.8133  2.5570 -2.1260
 3887TIP3   OH233075   5.506   6.447   4.535 -0.1746  0.3066 -0.0020
 3887TIP3    H133076   5.482   6.355   4.525  0.5231  0.1460 -0.2194
 3887TIP3    H233077   5.465   6.473   4.617 -1.2199  0.0848 -0.4379
 3888TIP3   OH233078   1.866   3.382   3.833  0.4532 -0.5057 -0.0908
 3888TIP3    H133079   1.802   3.453   3.827  0.5860 -0.5118 -2.9323
 3888TIP3    H233080   1.949   3.422   3.805  0.9951 -1.2620  0.4046
 3889TIP3   OH233081   2.758   5.631  10.987 -0.7577  0.1726  0.4415
 3889TIP3    H133082   2.755   5.715  11.033  0.1567 -0.2622  1.3419
 3889TIP3    H233083   2.707   5.645  10.907  0.7620  2.0851 -0.2660
 3890TIP3   OH233084   5.686   4.211  17.212 -0.4583  0.3861  0.3697
 3890TIP3    H133085   5.746   4.148  17.251 -0.0748  1.1054  0.9718
 3890TIP3    H233086   5.655   4.263  17.285  0.6703  2.1035 -0.3080
 3891TIP3   OH233087   3.704   3.087  11.829 -0.9225  0.3733  0.7016
 3891TIP3    H133088   3.724   3.135  11.910  0.4768  0.1312  0.5341
 3891TIP3    H233089   3.701   2.995  11.857 -1.1950  0.3519  0.6037
 3892TIP3   OH233090   3.429   6.378   2.087  0.2902 -0.3985  0.4368
 3892TIP3    H133091   3.460   6.445   2.147 -0.6844  0.7142 -0.2363
 3892TIP3    H233092   3.418   6.300   2.141  0.7571  0.1784  1.3962
 3893TIP3   OH233093   3.714   5.254   0.379 -0.3694 -0.2906 -0.3490
 3893TIP3    H133094   3.803   5.225   0.395 -0.0085  1.2278  0.5395
 3893TIP3    H233095   3.719   5.303   0.297  0.0642  1.4605  0.6586
 3894TIP3   OH233096   0.736   3.642   1.588  0.2198 -0.2328  0.6192
 3894TIP3    H133097   0.810   3.678   1.636  0.5682 -0.4378  0.2419
 3894TIP3    H233098   0.753   3.664   1.496  0.0106 -0.6039  0.4863
 3895TIP3   OH233099   4.006   6.035  11.764 -0.1165 -0.2953 -0.9358
 3895TIP3    H133100   3.991   6.094  11.690  0.9724  0.7411 -0.3656
 3895TIP3    H233101   4.082   6.072  11.810 -1.5322 -0.1424  1.4510
 3896TIP3   OH233102   6.726   1.055   4.127  0.5455 -0.8534  0.5040
 3896TIP3    H133103   6.710   1.103   4.045 -0.5333 -1.7890  0.1492
 3896TIP3    H233104   6.645   1.065   4.177  1.3688  0.1417  1.7119
 3897TIP3   OH233105   2.829   0.313  16.312 -0.3802 -0.4915  0.6779
 3897TIP3    H133106   2.752   0.280  16.358 -1.4179  0.3315 -0.3951
 3897TIP3    H233107   2.834   0.405  16.336 -0.8344 -0.0863 -0.6475
 3898TIP3   OH233108   5.646   1.584  16.430  0.0574 -0.6305  0.1160
 3898TIP3    H133109   5.716   1.615  16.487 -0.7384 -1.8951  1.8541
 3898TIP3    H233110   5.690   1.563  16.347  1.6194 -0.8247  0.9662
 3899TIP3   OH233111   3.909   4.192   5.509 -0.2987 -0.3952 -0.2168
 3899TIP3    H133112   3.912   4.097   5.509 -0.5988 -0.4259  1.1398
 3899TIP3    H233113   4.000   4.220   5.505 -0.1582 -0.7686  0.2736
 3900TIP3   OH233114   0.072   0.265  11.564 -0.5510  0.6663  0.1603
 3900TIP3    H133115  -0.004   0.208  11.577  0.0913 -0.5757 -1.1576
 3900TIP3    H233116   0.083   0.311  11.647 -0.4685 -1.9685  1.7287
 3901TIP3   OH233117   1.886   0.984   5.241 -0.6304 -0.3665 -0.5629
 3901TIP3    H133118   1.858   1.075   5.250 -1.1751 -0.6597  1.2729
 3901TIP3    H233119   1.909   0.974   5.149  0.3964  1.8826 -0.6151
 3902TIP3   OH233120   5.039   3.075   4.031 -0.7017 -0.2495 -0.5961
 3902TIP3    H133121   4.957   3.035   4.001 -0.2233 -1.6780 -0.0502
 3902TIP3    H233122   5.086   3.005   4.076 -0.7979  1.4401  2.4156
 3903TIP3   OH233123   2.677   4.082  13.972  0.1943  0.1977 -0.3791
 3903TIP3    H133124   2.694   4.103  14.064  0.9999 -0.7332 -0.2956
 3903TIP3    H233125   2.764   4.078  13.932 -0.0443 -0.8061 -0.8425
 3904TIP3   OH233126   0.361   4.085   5.455  0.3600 -0.0931 -0.0183
 3904TIP3    H133127   0.353   4.071   5.549  1.0105 -0.6917 -0.0383
 3904TIP3    H233128   0.361   4.180   5.444 -1.4581 -0.0137  0.4011
 3905TIP3   OH233129   6.367   1.285  11.653 -0.0266  0.4014  0.9425
 3905TIP3    H133130   6.294   1.229  11.628  0.3502 -0.5318  1.8287
 3905TIP3    H233131   6.334   1.374  11.644 -0.6854  0.0512 -0.3723
 3906TIP3   OH233132   3.236   5.463   3.179  0.0152 -0.2495  0.2080
 3906TIP3    H133133   3.163   5.501   3.228  0.2157  0.2740  0.1078
 3906TIP3    H233134   3.296   5.430   3.247  0.1803  0.2627  0.3148
 3907TIP3   OH233135   3.629   5.455   5.881  0.0841 -0.1764 -0.1085
 3907TIP3    H133136   3.649   5.544   5.911 -0.0274 -0.0077 -0.5264
 3907TIP3    H233137   3.596   5.410   5.959  0.0041  0.1906  0.0705
 3908TIP3   OH233138   3.800   5.249  14.010  0.5215  0.2722  0.4199
 3908TIP3    H133139   3.782   5.333  14.053  1.7589  0.9391 -0.3316
 3908TIP3    H233140   3.854   5.271  13.935  1.1463 -1.2427  0.3888
 3909TIP3   OH233141   5.846   4.719  11.951  0.3449  0.4545 -0.0049
 3909TIP3    H133142   5.923   4.669  11.923  0.6976  1.2978 -0.6270
 3909TIP3    H233143   5.782   4.654  11.976  1.5967 -0.2735  1.4600
 3910TIP3   OH233144   2.364   6.501   5.350  0.0684 -0.1812  0.0250
 3910TIP3    H133145   2.293   6.558   5.379  0.3022 -0.1447  0.5240
 3910TIP3    H233146   2.350   6.420   5.399  2.9082  1.2360  3.5914
 3911TIP3   OH233147   0.407   6.423  13.827  0.4732  0.4205  0.2073
 3911TIP3    H133148   0.354   6.425  13.748  0.2180 -0.7664  0.3293
 3911TIP3    H233149   0.445   6.510  13.833  1.2364  0.2660 -1.7233
 3912TIP3   OH233150   2.951   6.427  13.596 -0.2039 -0.2315 -0.0118
 3912TIP3    H133151   2.863   6.454  13.571  0.6917  1.2232 -1.8496
 3912TIP3    H233152   2.981   6.497  13.655  0.2110  0.0364 -0.5311
 3913TIP3   OH233153   0.377   3.082   1.009  0.0763  0.0744  0.2941
 3913TIP3    H133154   0.326   3.163   1.008  0.4293  0.3048  0.4571
 3913TIP3    H233155   0.352   3.038   1.090 -1.3316 -0.7827 -0.5764
 3914TIP3   OH233156   2.743   2.263  12.196  0.3220 -0.2536 -0.5517
 3914TIP3    H133157   2.711   2.316  12.269  1.9682  0.0970 -0.0618
 3914TIP3    H233158   2.817   2.214  12.232 -0.4925 -2.1177 -1.2781
 3915TIP3   OH233159   5.980   0.929   3.881  0.6963  0.1674 -0.2415
 3915TIP3    H133160   5.950   0.882   3.803  0.9188  2.2168 -1.6367
 3915TIP3    H233161   5.899   0.948   3.929  0.5142 -0.7398 -0.1692
 3916TIP3   OH233162   5.615   2.582   1.203 -0.2588 -0.1628  0.2853
 3916TIP3    H133163   5.690   2.627   1.242 -0.8682  1.7639 -0.6505
 3916TIP3    H233164   5.636   2.577   1.110 -1.4097  0.6555 -0.0254
 3917TIP3   OH233165   5.973   2.146  13.573 -0.1738  0.2446  0.6073
 3917TIP3    H133166   5.916   2.207  13.526 -1.0442 -0.2448  0.9871
 3917TIP3    H233167   6.021   2.101  13.504 -1.5842 -0.6122  0.1256
 3918TIP3   OH233168   1.302   1.660  14.881 -0.5156 -0.0550  0.3793
 3918TIP3    H133169   1.323   1.754  14.885 -0.9101  0.0723 -0.3508
 3918TIP3    H233170   1.305   1.639  14.787 -1.3887 -0.5458  0.4519
 3919TIP3   OH233171   6.272   3.272  12.313 -0.3072 -0.4064 -0.2948
 3919TIP3    H133172   6.322   3.225  12.246 -1.4872 -1.0827 -0.7325
 3919TIP3    H233173   6.316   3.357  12.321  0.6749 -0.8402 -0.9239
 3920TIP3   OH233174   0.305   1.380  14.262  0.4160 -0.1587 -0.3151
 3920TIP3    H133175   0.313   1.327  14.183  0.3025 -0.0623 -0.3934
 3920TIP3    H233176   0.227   1.346  14.306 -0.1940  0.5416 -0.8326
 3921TIP3   OH233177   0.465   3.071  13.084 -0.3771  0.2995  0.3782
 3921TIP3    H133178   0.394   3.078  13.147  0.8903 -1.6660  2.1879
 3921TIP3    H233179   0.444   2.992  13.034 -0.6518  1.0574 -0.7323
 3922TIP3   OH233180   3.189   4.882  10.857 -0.2451 -0.0822  0.0868
 3922TIP3    H133181   3.247   4.958  10.860  1.3130 -1.1803 -0.7763
 3922TIP3    H233182   3.182   4.861  10.764  1.4232 -2.4283  0.3765
 3923TIP3   OH233183   2.278   5.345  11.608 -0.1729  0.1286 -0.3967
 3923TIP3    H133184   2.253   5.254  11.624  3.7405 -0.9395  0.6210
 3923TIP3    H233185   2.318   5.344  11.521 -0.3288  0.9333 -0.4834
 3924TIP3   OH233186   3.853   4.680  14.093 -0.0729 -0.1599 -0.0673
 3924TIP3    H133187   3.908   4.733  14.036 -0.0531 -0.0454  0.0594
 3924TIP3    H233188   3.904   4.600  14.107  1.2680  0.9668  2.1597
 3925TIP3   OH233189   0.995   3.447   2.584  0.1751  0.0901 -0.3892
 3925TIP3    H133190   0.964   3.409   2.502  0.5396  1.0707 -0.9967
 3925TIP3    H233191   1.088   3.428   2.586 -0.0287 -0.9208  0.3639
 3926TIP3   OH233192   4.280   0.591  12.108  0.0635  0.1458 -0.6442
 3926TIP3    H133193   4.338   0.560  12.038  0.3795 -1.9425  0.4609
 3926TIP3    H233194   4.323   0.670  12.141  1.2689 -0.2766 -1.1232
 3927TIP3   OH233195   4.841   2.443  15.379  0.0825  0.3285 -0.6407
 3927TIP3    H133196   4.863   2.496  15.456  0.5293 -0.4053 -0.2505
 3927TIP3    H233197   4.881   2.489  15.305  0.7341  0.3738 -0.2652
 3928TIP3   OH233198   5.093   0.919  11.986  0.0272 -0.0201  0.0416
 3928TIP3    H133199   5.166   0.967  11.947  0.0964 -0.0708  0.1079
 3928TIP3    H233200   5.070   0.970  12.064  0.6764 -0.5596  0.6060
 3929TIP3   OH233201   4.820   0.868  12.489  0.1000 -0.2999 -0.1061
 3929TIP3    H133202   4.850   0.785  12.451 -0.9563 -1.7627  2.0427
 3929TIP3    H233203   4.743   0.891  12.437 -0.1642 -1.1901 -0.1259
 3930TIP3   OH233204   5.846   1.975  14.183  0.6126 -0.2110  0.1534
 3930TIP3    H133205   5.868   2.034  14.111 -0.7831 -0.7057 -0.7240
 3930TIP3    H233206   5.885   2.016  14.260 -1.7349  2.8920 -0.0988
 3931TIP3   OH233207   1.534   6.500  16.735 -0.0296  0.3034  0.1584
 3931TIP3    H133208   1.480   6.422  16.747  2.2306 -1.0406  2.4576
 3931TIP3    H233209   1.527   6.547  16.818  1.6810  0.4764  0.2364
 3932TIP3   OH233210   1.134   2.723  17.164  0.6545 -0.2520  0.0800
 3932TIP3    H133211   1.039   2.716  17.175  0.6874  0.1573  0.6513
 3932TIP3    H233212   1.145   2.788  17.095  0.5286  0.0841  0.3734
 3933TIP3   OH233213   0.066   3.183   3.253 -0.0180 -0.2858 -0.3202
 3933TIP3    H133214   0.059   3.135   3.171  0.2314 -0.4523 -0.2429
 3933TIP3    H233215   0.021   3.128   3.317  0.1600 -0.3567 -0.2568
 3934TIP3   OH233216   3.594   6.204   4.090 -0.3242  0.2609 -0.1350
 3934TIP3    H133217   3.512   6.240   4.125  0.9323  1.4957  1.7337
 3934TIP3    H233218   3.649   6.281   4.075  0.4453 -0.5252 -1.5636
 3935TIP3   OH233219   0.089   3.904  16.704 -0.1308 -0.2608  0.8452
 3935TIP3    H133220   0.122   3.868  16.621  0.1260  0.7604  0.4908
 3935TIP3    H233221   0.075   3.997  16.686 -1.2525 -0.2661  1.5983
 3936TIP3   OH233222   5.939   1.285   4.508 -0.3593  0.1898 -0.1577
 3936TIP3    H133223   5.859   1.241   4.478  0.0630  0.7665 -2.2473
 3936TIP3    H233224   5.960   1.347   4.438  2.3550 -0.4815 -0.0375
 3937TIP3   OH233225   0.442   0.290   3.970  0.4806 -0.6042  0.2184
 3937TIP3    H133226   0.487   0.303   4.053  1.0532  1.7238 -0.3661
 3937TIP3    H233227   0.459   0.199   3.946 -0.1076 -1.4664  2.8421
 3938TIP3   OH233228   1.397   3.400   1.375 -0.6217 -0.7917 -0.5046
 3938TIP3    H133229   1.342   3.363   1.444 -0.1139  0.1880  0.4530
 3938TIP3    H233230   1.360   3.365   1.294 -1.9460 -1.0553  0.1837
 3939TIP3   OH233231   6.650   2.491  17.262 -0.5781  0.1985  0.1844
 3939TIP3    H133232   6.601   2.525  17.336 -0.7313  2.0967 -0.7423
 3939TIP3    H233233   6.713   2.559  17.240 -0.8244 -0.1187 -1.6899
 3940TIP3   OH233234   3.014   3.154   1.168  0.6041  0.7869  0.3696
 3940TIP3    H133235   3.045   3.223   1.110  1.1382 -0.2792 -0.6437
 3940TIP3    H233236   2.973   3.090   1.110  1.6638 -0.5799  1.0763
 3941TIP3   OH233237   6.124   2.758   5.340  0.4892 -0.1320  0.2949
 3941TIP3    H133238   6.062   2.694   5.373 -0.0598 -0.1712 -0.7750
 3941TIP3    H233239   6.149   2.810   5.417 -0.7242 -0.2270  0.7685
 3942TIP3   OH233240   4.424   2.932  17.225  0.1590  0.3711  0.2797
 3942TIP3    H133241   4.479   2.902  17.297  0.0928  2.3738  1.2390
 3942TIP3    H233242   4.366   2.997  17.265 -0.5599  0.8144 -1.3899
 3943TIP3   OH233243   1.423   3.492  17.309 -0.7970 -0.5696 -0.1238
 3943TIP3    H133244   1.435   3.584  17.289  2.6924 -1.2142 -1.7572
 3943TIP3    H233245   1.425   3.487  17.404 -1.3917  1.0589 -0.0118
 3944TIP3   OH233246   1.150   2.221  16.948  0.0950  0.1820  0.8083
 3944TIP3    H133247   1.076   2.280  16.935  0.2525  0.1649 -0.2529
 3944TIP3    H233248   1.119   2.158  17.013 -0.9513 -0.0270  0.1312
 3945TIP3   OH233249   0.009   3.569   5.040  0.6755 -0.2127 -0.3348
 3945TIP3    H133250  -0.068   3.571   4.982  0.6388 -0.1856 -0.2855
 3945TIP3    H233251   0.011   3.479   5.074  1.1122 -0.4385 -0.9389
 3946TIP3   OH233252   5.239   5.550  12.469  0.3326  0.1240  0.1555
 3946TIP3    H133253   5.327   5.525  12.441 -0.2592 -1.0392 -0.7731
 3946TIP3    H233254   5.249   5.639  12.503  1.7279  0.2939 -0.6052
 3947TIP3   OH233255   6.462   0.131  13.484  0.2607  0.3140  0.0241
 3947TIP3    H133256   6.550   0.114  13.450 -0.8532 -0.5103 -2.7347
 3947TIP3    H233257   6.415   0.049  13.468 -1.3476  1.1673  0.2673
 3948TIP3   OH233258   4.691   4.624  12.204  0.2605  0.4086  0.1076
 3948TIP3    H133259   4.722   4.632  12.294 -0.7901  0.0567  0.5190
 3948TIP3    H233260   4.744   4.554  12.167  1.6589  1.4760  0.0010
 3949TIP3   OH233261   3.841   3.324  17.195 -0.0010 -0.3256  0.0790
 3949TIP3    H133262   3.927   3.367  17.203  0.3381  0.3238 -4.5414
 3949TIP3    H233263   3.799   3.367  17.121 -4.2418 -0.9893  1.8219
 3950TIP3   OH233264   5.259   1.244   0.261  0.3037  0.7697 -0.1284
 3950TIP3    H133265   5.329   1.181   0.245 -0.3733  0.1431 -0.6679
 3950TIP3    H233266   5.227   1.222   0.349  0.2255  0.5164 -0.2200
 3951TIP3   OH233267   3.060   1.960   1.473  0.0017 -0.1350 -0.0554
 3951TIP3    H133268   3.109   2.017   1.414  1.7401 -1.6846 -0.2044
 3951TIP3    H233269   3.079   1.994   1.560  1.9816 -1.0838 -0.0595
 3952TIP3   OH233270   1.925   0.693   3.002  0.4845 -0.3727 -0.1284
 3952TIP3    H133271   1.981   0.760   2.964  0.1062  0.8923  1.4551
 3952TIP3    H233272   1.888   0.647   2.927  1.6371  0.4305 -1.2252
 3953TIP3   OH233273   0.797   1.911  12.950 -0.2510 -0.0068 -0.6422
 3953TIP3    H133274   0.790   2.003  12.926 -0.1599  0.7954  2.0360
 3953TIP3    H233275   0.889   1.889  12.931 -0.4631  0.2007 -1.9920
 3954TIP3   OH233276   4.935   0.298  12.301 -0.0673  0.0238  0.0471
 3954TIP3    H133277   4.872   0.236  12.263  0.5509  0.0516 -1.0677
 3954TIP3    H233278   5.005   0.303  12.236  0.7676  0.5055  0.9687
 3955TIP3   OH233279   3.624   3.297  15.118  0.2075  0.9077  0.4235
 3955TIP3    H133280   3.543   3.267  15.076  1.0943  0.2492 -0.8840
 3955TIP3    H233281   3.666   3.216  15.148  2.4038  0.7268 -2.7186
 3956TIP3   OH233282   2.453   0.383   3.274 -0.1004 -0.3326  0.2109
 3956TIP3    H133283   2.403   0.458   3.305  0.2439  0.4278 -1.0244
 3956TIP3    H233284   2.540   0.394   3.314  1.2217  2.1307 -2.9450
 3957TIP3   OH233285   0.659   3.984  17.135  0.3102 -0.0912 -0.2833
 3957TIP3    H133286   0.704   3.901  17.149 -2.1480 -1.3708  0.7555
 3957TIP3    H233287   0.642   3.986  17.040 -0.8309 -1.5316 -0.1492
 3958TIP3   OH233288   0.481   5.059   4.915 -0.1774 -0.0261  0.0930
 3958TIP3    H133289   0.416   5.036   4.982 -0.2199 -2.0510 -0.5686
 3958TIP3    H233290   0.514   4.974   4.884  2.2548  0.9267 -0.1380
 3959TIP3   OH233291   5.021   2.530   3.736 -0.5107 -0.1892 -0.3209
 3959TIP3    H133292   5.110   2.565   3.737 -0.8228  0.7866 -1.9737
 3959TIP3    H233293   5.029   2.445   3.692 -0.1836 -0.8791  1.0238
 3960TIP3   OH233294   6.459   4.706   3.591  0.3320  0.3008  0.6650
 3960TIP3    H133295   6.501   4.751   3.517 -0.6883  3.0032  1.6026
 3960TIP3    H233296   6.375   4.676   3.556  1.4278 -1.9130 -0.2388
 3961TIP3   OH233297   4.949   0.043  14.018 -0.0317  0.4358  0.0045
 3961TIP3    H133298   4.936   0.137  14.026 -0.6767  0.3808 -0.3320
 3961TIP3    H233299   4.881   0.014  13.957  2.9405  0.4390 -3.6665
 3962TIP3   OH233300   6.067   0.463  15.302  0.8008  0.8744 -0.2256
 3962TIP3    H133301   6.123   0.510  15.363  0.4230  0.2202  0.6467
 3962TIP3    H233302   6.012   0.531  15.262  1.0299  1.2979  0.1740
 3963TIP3   OH233303   1.914   2.736  16.679  0.0004 -0.4081  0.2125
 3963TIP3    H133304   2.003   2.702  16.677  0.1118 -0.2023  1.1555
 3963TIP3    H233305   1.870   2.685  16.748 -1.1949 -1.8621 -1.5403
 3964TIP3   OH233306   0.816   2.017   6.307 -0.6445 -0.1605 -0.2310
 3964TIP3    H133307   0.756   1.978   6.244  0.8056  0.0969 -1.8346
 3964TIP3    H233308   0.902   2.008   6.268  0.2577  0.5461  1.4660
 3965TIP3   OH233309   1.519   2.750   3.585  0.0318 -0.7380  0.2986
 3965TIP3    H133310   1.492   2.738   3.676  0.6313  0.1634  0.6048
 3965TIP3    H233311   1.600   2.700   3.577  0.1558 -0.5475  0.3545
 3966TIP3   OH233312   4.885   6.441   6.005 -0.3605  0.3395  0.4350
 3966TIP3    H133313   4.976   6.413   5.995 -0.0762  1.7882 -1.5907
 3966TIP3    H233314   4.840   6.403   5.930 -1.0879  0.8845  0.5887
 3967TIP3   OH233315   3.809   0.618   5.204  0.2366  0.1477 -0.7957
 3967TIP3    H133316   3.846   0.569   5.130  0.5665 -1.4068  0.3310
 3967TIP3    H233317   3.883   0.665   5.241  0.7266 -1.3595  0.2377
 3968TIP3   OH233318   6.639   3.632  12.444 -0.1301  0.2090 -0.2548
 3968TIP3    H133319   6.711   3.594  12.495 -0.6890  1.1790  1.3578
 3968TIP3    H233320   6.624   3.717  12.484 -0.7905  0.9209 -1.9335
 3969TIP3   OH233321   0.372   5.887   0.873 -0.5400  0.5470  0.1691
 3969TIP3    H133322   0.364   5.841   0.790  1.1810  3.4368 -1.7938
 3969TIP3    H233323   0.377   5.979   0.849  0.8544  1.4754  3.4187
 3970TIP3   OH233324   6.107   2.037   4.633 -0.4501  0.2750  0.0005
 3970TIP3    H133325   6.028   2.077   4.667  0.0628  1.0290  0.3346
 3970TIP3    H233326   6.179   2.084   4.676  0.1827 -0.2773 -0.4162
 3971TIP3   OH233327   2.226   1.082   4.604 -0.2613 -0.4201  0.3598
 3971TIP3    H133328   2.164   1.135   4.653 -1.7287  1.3320 -3.0370
 3971TIP3    H233329   2.171   1.020   4.555  0.8961 -0.7866 -0.5403
 3972TIP3   OH233330   6.655   2.847   2.107  0.4829  0.1253  0.1367
 3972TIP3    H133331   6.734   2.830   2.056  0.8594  1.6968  0.1323
 3972TIP3    H233332   6.603   2.768   2.098  0.4206  0.4126 -2.8891
 3973TIP3   OH233333   0.985   0.318  17.220 -0.3138 -0.6063  0.1000
 3973TIP3    H133334   1.008   0.226  17.207 -0.7719 -0.5617 -1.1991
 3973TIP3    H233335   0.987   0.356  17.132 -1.5287  0.2883  0.4288
 3974TIP3   OH233336   4.345   3.215  13.881 -0.1126  0.1469  0.5979
 3974TIP3    H133337   4.279   3.149  13.861  1.0104 -0.9486  0.3404
 3974TIP3    H233338   4.428   3.169  13.872  0.7460  1.7312 -0.0742
 3975TIP3   OH233339   3.296   6.650   0.027  0.6778  0.1016  0.1187
 3975TIP3    H133340   3.285   6.721   0.091  0.2385  0.1044  0.0444
 3975TIP3    H233341   3.265   6.572   0.073  0.4040  0.0960 -0.0722
 3976TIP3   OH233342   0.576   1.856  15.354  0.8187 -0.0049 -0.0827
 3976TIP3    H133343   0.597   1.880  15.444  1.6817 -1.1685  0.0487
 3976TIP3    H233344   0.596   1.935  15.303  0.2711  0.6798  0.7359
 3977TIP3   OH233345   3.355   0.042   1.003  0.4506  0.4030  0.1027
 3977TIP3    H133346   3.363  -0.049   1.029 -1.8814  0.0906 -0.0775
 3977TIP3    H233347   3.351   0.040   0.907 -0.7764  0.5451  0.1357
 3978TIP3   OH233348   3.262   5.990  12.296  0.1378  0.4387 -0.5197
 3978TIP3    H133349   3.340   6.045  12.287 -1.5100  3.3375  1.2549
 3978TIP3    H233350   3.213   6.004  12.215 -0.9671  3.0115  0.4685
 3979TIP3   OH233351   5.731   1.526  13.218 -0.0496  0.1884 -0.1732
 3979TIP3    H133352   5.696   1.561  13.136 -1.0098 -1.4844 -0.5064
 3979TIP3    H233353   5.713   1.595  13.282 -0.5257  0.9500 -1.0941
 3980TIP3   OH233354   5.908   1.133   1.764  0.1285  0.3315 -0.2375
 3980TIP3    H133355   5.823   1.135   1.808 -0.2789  0.7196 -1.0185
 3980TIP3    H233356   5.903   1.203   1.699 -0.1566 -1.6191 -2.4559
 3981TIP3   OH233357   3.890   5.227   3.406 -0.0638 -0.7146 -0.0665
 3981TIP3    H133358   3.816   5.207   3.463  0.1130 -1.2898 -0.0315
 3981TIP3    H233359   3.949   5.279   3.460 -1.1581  1.1475 -0.5708
 3982TIP3   OH233360   0.762   5.040   2.251  0.6253  0.6944  0.0655
 3982TIP3    H133361   0.716   5.061   2.170  0.3327  0.7717  0.2521
 3982TIP3    H233362   0.792   5.125   2.285  0.7712  0.6595  0.0236
 3983TIP3   OH233363   3.014   0.022   5.023  0.4368  0.5650 -0.4563
 3983TIP3    H133364   3.079  -0.003   4.957  0.6758 -1.1095  0.3521
 3983TIP3    H233365   3.017   0.117   5.025  0.6154  0.6483 -2.6476
 3984TIP3   OH233366   1.888   1.974  16.585 -0.0868 -0.0489 -0.5525
 3984TIP3    H133367   1.802   1.966  16.544  0.7487 -0.3348 -2.3403
 3984TIP3    H233368   1.933   2.041  16.535  0.1385  1.4671  1.5333
 3985TIP3   OH233369   1.645   5.426  15.335  0.0412  0.0633  0.1945
 3985TIP3    H133370   1.733   5.460  15.347 -0.0042 -0.0124  0.8035
 3985TIP3    H233371   1.597   5.455  15.413 -0.8401  1.2358 -0.7493
 3986TIP3   OH233372   0.937   4.791  16.063 -0.1603  0.1165  0.0844
 3986TIP3    H133373   0.862   4.850  16.059 -1.7759 -1.5765  2.5321
 3986TIP3    H233374   0.992   4.816  15.988 -1.8633  3.1118 -0.3125
 3987TIP3   OH233375   0.776   0.456   5.484  1.2765 -0.0002 -0.8564
 3987TIP3    H133376   0.742   0.474   5.396 -1.4134 -1.5658 -0.2573
 3987TIP3    H233377   0.817   0.370   5.476  1.4567  0.0683 -0.6709
 3988TIP3   OH233378   5.943   6.446  14.163 -0.3128  0.0056  0.0361
 3988TIP3    H133379   6.021   6.396  14.140  0.9843  1.4416  1.1863
 3988TIP3    H233380   5.876   6.413  14.102  0.5836 -2.7136  0.3582
 3989TIP3   OH233381   1.786   2.843  15.408 -0.2178  0.1635  0.6018
 3989TIP3    H133382   1.708   2.820  15.460 -1.4988  0.2104 -1.2090
 3989TIP3    H233383   1.803   2.764  15.356 -0.9339  1.1574 -1.2126
 3990TIP3   OH233384   1.809   3.029   1.138 -0.1659 -0.3064  0.2610
 3990TIP3    H133385   1.722   3.045   1.102  0.3347  0.2650 -0.7474
 3990TIP3    H233386   1.793   2.977   1.217 -1.4418  0.1601  0.3403
 3991TIP3   OH233387   6.120   1.790  10.471 -0.1999 -0.1579 -0.1727
 3991TIP3    H133388   6.103   1.878  10.436 -0.7807 -0.4259 -0.5774
 3991TIP3    H233389   6.135   1.736  10.394  0.5855 -0.3357  0.0950
 3992TIP3   OH233390   3.465   1.611  15.374  0.6433 -0.3995 -0.0665
 3992TIP3    H133391   3.415   1.662  15.310 -2.2164 -2.2938  0.4496
 3992TIP3    H233392   3.503   1.676  15.433 -1.0080  1.2182 -0.6800
 3993TIP3   OH233393   3.916   1.486   4.903 -0.2376 -0.6424 -0.0590
 3993TIP3    H133394   3.938   1.565   4.854  1.4172 -0.5783  0.6998
 3993TIP3    H233395   3.821   1.475   4.892 -0.4794  1.3960 -0.2269
 3994TIP3   OH233396   3.503   4.232  12.725 -0.2237  0.2263  0.1401
 3994TIP3    H133397   3.523   4.294  12.654 -0.3128  2.8858  2.2868
 3994TIP3    H233398   3.408   4.234  12.732 -0.3537 -1.3655 -0.7098
 3995TIP3   OH233399   0.843   5.177  12.526 -0.5295 -0.6029 -0.0867
 3995TIP3    H133400   0.820   5.146  12.438 -1.3682 -1.7062  0.5054
 3995TIP3    H233401   0.794   5.259  12.536 -1.9885 -1.4756  0.0799
 3996TIP3   OH233402   4.218   1.862   5.239  0.2916 -0.1955 -0.0369
 3996TIP3    H133403   4.177   1.779   5.213  0.1714  0.2511 -1.3533
 3996TIP3    H233404   4.209   1.864   5.334 -0.9665 -1.0420 -0.1125
 3997TIP3   OH233405   5.489   4.011  11.191  0.5211 -0.1562  0.0370
 3997TIP3    H133406   5.432   3.935  11.179 -0.0599  0.4361 -1.0189
 3997TIP3    H233407   5.506   4.043  11.103 -0.5938  1.9455  0.5281
 3998TIP3   OH233408   0.026   2.357  14.490 -0.3470  0.5234  1.0487
 3998TIP3    H133409   0.060   2.275  14.453 -0.8058  1.3980 -1.5201
 3998TIP3    H233410   0.100   2.418  14.483 -1.1776  1.3703 -0.8598
 3999TIP3   OH233411   3.097   1.614  11.832 -0.2833 -0.0457  0.2435
 3999TIP3    H133412   3.165   1.594  11.768  0.1290  0.1495  0.6229
 3999TIP3    H233413   3.135   1.591  11.917 -0.0324  1.6945  0.6360
 4000TIP3   OH233414   6.690   0.649   1.414 -0.0179 -0.1510  0.2619
 4000TIP3    H133415   6.753   0.583   1.441 -0.9271 -0.0083  3.1334
 4000TIP3    H233416   6.705   0.722   1.474 -1.5549  0.6828 -0.3067
 4001TIP3   OH233417   3.361   5.168  12.285  0.3699 -0.4937 -0.0077
 4001TIP3    H133418   3.444   5.196  12.247 -0.1975  1.4315  0.0711
 4001TIP3    H233419   3.317   5.250  12.309 -0.2460 -1.5222  2.7807
 4002TIP3   OH233420   4.633   5.839  13.637  0.0509  0.2120 -0.0184
 4002TIP3    H133421   4.611   5.762  13.585 -1.6366  2.1803 -2.4635
 4002TIP3    H233422   4.721   5.863  13.608 -0.0990  0.1562 -0.5322
 4003TIP3   OH233423   4.405   3.799  13.950  0.0016  0.1515  0.8264
 4003TIP3    H133424   4.448   3.853  13.884  1.0890  0.2057  1.5548
 4003TIP3    H233425   4.477   3.756  13.996 -0.7752 -0.5301  1.4344
 4004TIP3   OH233426   4.231   5.663   1.742 -0.4874 -0.7744 -0.0772
 4004TIP3    H133427   4.230   5.689   1.834  1.1543 -2.2040  0.4032
 4004TIP3    H233428   4.194   5.738   1.695  3.2554  2.2576  1.2515
 4005TIP3   OH233429   4.087   3.013  12.862  0.1479  0.0959  0.1868
 4005TIP3    H133430   4.099   2.923  12.832 -0.2854 -0.5762  1.9192
 4005TIP3    H233431   4.175   3.051  12.859  0.3414 -0.3872 -0.5134
 4006TIP3   OH233432   2.462   3.235   1.318  0.0220 -0.0023  0.1480
 4006TIP3    H133433   2.518   3.159   1.302 -1.0478 -0.5105 -1.5387
 4006TIP3    H233434   2.403   3.207   1.388  0.2783 -0.3617  0.2225
 4007TIP3   OH233435   4.329   4.988  11.662  0.1819 -0.1956  0.0140
 4007TIP3    H133436   4.338   5.046  11.587  1.5441 -0.2433  0.1252
 4007TIP3    H233437   4.245   5.013  11.702  0.6683  1.6035 -0.0131
 4008TIP3   OH233438   4.601   1.761  15.262  0.5854  0.1258  0.3695
 4008TIP3    H133439   4.645   1.780  15.345 -1.3184  1.3208  1.1926
 4008TIP3    H233440   4.534   1.829  15.255  0.8491  0.2080 -2.3078
 4009TIP3   OH233441   0.371   0.565  12.263  0.1487 -0.5642  0.3861
 4009TIP3    H133442   0.354   0.530  12.350 -0.6361  0.1575  0.5356
 4009TIP3    H233443   0.299   0.627  12.247  1.8982  1.6046  0.4852
 4010TIP3   OH233444   1.260   3.281   2.616 -0.4319 -0.4499  0.1976
 4010TIP3    H133445   1.226   3.243   2.697  0.5111  0.4382  1.0389
 4010TIP3    H233446   1.307   3.359   2.645  0.2284 -0.3223 -1.1816
 4011TIP3   OH233447   6.628   5.053   1.805  0.7166 -0.0621 -0.2252
 4011TIP3    H133448   6.661   5.070   1.716  0.0102 -0.9842 -0.6782
 4011TIP3    H233449   6.540   5.019   1.791  0.7890 -0.6899  0.8174
 4012TIP3   OH233450   4.886   3.718  17.149  0.0858  0.0799  0.1122
 4012TIP3    H133451   4.885   3.806  17.187 -0.3992  0.7093 -1.2617
 4012TIP3    H233452   4.975   3.707  17.117  0.8756 -0.9684  2.4507
 4013TIP3   OH233453   2.330   3.140   3.205 -0.0889 -0.2319  0.0713
 4013TIP3    H133454   2.390   3.182   3.143  0.6060 -0.9708  0.2375
 4013TIP3    H233455   2.290   3.068   3.156 -1.9965  1.1297 -0.5116
 4014TIP3   OH233456   2.139   5.177  13.460  0.5484  0.2115  0.2719
 4014TIP3    H133457   2.066   5.168  13.522  0.2803  2.4083  0.3586
 4014TIP3    H233458   2.108   5.242  13.397  1.3222 -1.0151 -1.4588
 4015TIP3   OH233459   5.932   2.030  17.053 -0.0922  0.1117  0.2093
 4015TIP3    H133460   5.860   2.084  17.022  0.1495  1.7594  2.3426
 4015TIP3    H233461   5.897   1.982  17.128  1.0481  1.1089  1.4239
 4016TIP3   OH233462   4.417   5.904  15.603 -0.4608 -0.1634 -0.0860
 4016TIP3    H133463   4.466   5.890  15.684 -2.8843 -0.2342  1.5008
 4016TIP3    H233464   4.483   5.917  15.536  1.6784  1.5693  2.1819
 4017TIP3   OH233465   0.291   5.263  15.553  0.1471 -0.5410  0.2063
 4017TIP3    H133466   0.373   5.220  15.577  0.5337  0.9223  1.6614
 4017TIP3    H233467   0.224   5.195  15.561  1.0396 -1.4294  0.2203
 4018TIP3   OH233468   4.373   4.996   5.738  0.1197  0.0063 -0.1500
 4018TIP3    H133469   4.438   4.930   5.759  0.2058 -0.1520 -0.9027
 4018TIP3    H233470   4.290   4.959   5.769  0.3494  0.1289  0.6376
 4019TIP3   OH233471   2.112   4.600  12.653 -0.0016  0.8769 -0.3702
 4019TIP3    H133472   2.087   4.693  12.657  1.7628  1.3964 -0.6383
 4019TIP3    H233473   2.029   4.554  12.639 -1.1148  2.2784  1.1641
 4020TIP3   OH233474   2.200   6.459   2.119 -0.4582  0.7534  0.7410
 4020TIP3    H133475   2.111   6.492   2.102 -1.2175 -0.7129  1.6478
 4020TIP3    H233476   2.220   6.489   2.208 -1.2248 -1.1995  1.6461
 4021TIP3   OH233477   0.966   5.693  14.726 -0.6600 -0.5912  0.2920
 4021TIP3    H133478   0.913   5.656  14.656 -1.8875  1.1973  0.2112
 4021TIP3    H233479   1.054   5.698  14.689 -1.4593  1.3352 -1.6367
 4022TIP3   OH233480   6.479   6.439   5.682 -0.0538  0.2537 -0.7519
 4022TIP3    H133481   6.551   6.493   5.714  0.7690 -2.3438  2.3280
 4022TIP3    H233482   6.503   6.416   5.592  2.4575  0.3571 -0.1718
 4023TIP3   OH233483   2.599   0.840   1.721  0.1811  0.2442  0.2686
 4023TIP3    H133484   2.689   0.826   1.748  0.8856  2.4707 -0.6567
 4023TIP3    H233485   2.556   0.875   1.798  0.4472  0.3767  0.3567
 4024TIP3   OH233486   1.881   3.040  15.190  0.3323  0.2093  0.2465
 4024TIP3    H133487   1.849   2.973  15.251  0.6286  0.9135  1.1925
 4024TIP3    H233488   1.868   3.123  15.236  1.2062  0.6996 -0.3606
 4025TIP3   OH233489   6.128   4.571  12.637 -0.3281  0.3775 -0.3479
 4025TIP3    H133490   6.131   4.666  12.626  0.2447  0.2607 -1.4088
 4025TIP3    H233491   6.076   4.540  12.562 -1.9288 -0.0420  0.8904
 4026TIP3   OH233492   6.471   5.860   3.950 -0.2064 -0.5646  0.3055
 4026TIP3    H133493   6.505   5.799   3.885 -0.1590  2.2687 -2.5821
 4026TIP3    H233494   6.531   5.851   4.024  0.9653 -2.5220 -0.7868
 4027TIP3   OH233495   1.313   2.266   5.633  0.3162  0.2756  0.1245
 4027TIP3    H133496   1.385   2.211   5.663  0.7324 -1.4365 -3.5474
 4027TIP3    H233497   1.234   2.223   5.666  0.7928  0.7449  2.0099
 4028TIP3   OH233498   6.498   3.969   6.340 -0.0195  0.1007  0.1349
 4028TIP3    H133499   6.422   3.991   6.394 -0.2026 -2.6936  1.1553
 4028TIP3    H233500   6.573   3.989   6.395 -0.0602  1.0408 -0.1393
 4029TIP3   OH233501   2.935   4.528  17.220 -0.1455 -0.9813  0.1385
 4029TIP3    H133502   2.866   4.573  17.268 -0.7405 -0.4167 -1.2027
 4029TIP3    H233503   2.937   4.440  17.258 -0.4275 -0.4976  1.3319
 4030TIP3   OH233504   0.965   3.047   2.108 -0.0384  0.2644 -0.8531
 4030TIP3    H133505   1.010   2.964   2.095 -0.8985  0.1495 -3.8176
 4030TIP3    H233506   1.017   3.111   2.059  0.2300  1.3949  0.8193
 4031TIP3   OH233507   4.705   0.783   0.145  0.0626 -0.7167  0.5843
 4031TIP3    H133508   4.756   0.703   0.156 -0.7605 -1.6048 -1.4034
 4031TIP3    H233509   4.770   0.850   0.124  0.9934 -0.2687  4.2345
 4032TIP3   OH233510   2.846   0.128   3.433 -0.4842  0.0306 -0.5582
 4032TIP3    H133511   2.767   0.095   3.476 -0.0545 -0.0359  0.2070
 4032TIP3    H233512   2.827   0.220   3.414 -1.0867 -0.2326 -1.2205
 4033TIP3   OH233513   0.417   6.706   2.268  0.1935  0.2999  0.4753
 4033TIP3    H133514   0.451   6.656   2.194 -1.0361  1.8572 -1.2668
 4033TIP3    H233515   0.484   6.772   2.286  0.7252 -0.4026  1.1362
 4034TIP3   OH233516   0.826   1.334  12.122 -0.1665  0.0254  0.5162
 4034TIP3    H133517   0.893   1.273  12.092  1.3378  1.1431  1.4916
 4034TIP3    H233518   0.744   1.300  12.085  0.7671 -1.9846  0.2058
 4035TIP3   OH233519   5.439   3.922  14.632 -0.1430  0.0984 -0.3367
 4035TIP3    H133520   5.463   3.992  14.571 -2.2608  0.3587 -0.9355
 4035TIP3    H233521   5.351   3.945  14.662 -0.6384 -1.9837 -0.0641
 4036TIP3   OH233522   0.558   3.716   5.996  0.3253  0.2943 -0.0498
 4036TIP3    H133523   0.515   3.649   6.049  2.4707 -1.0057  0.1277
 4036TIP3    H233524   0.515   3.798   6.023 -0.6945 -0.6829  1.4853
 4037TIP3   OH233525   3.431   2.125   5.422 -0.1125  0.5334  0.1379
 4037TIP3    H133526   3.483   2.046   5.439 -0.1430  0.6877  1.0055
 4037TIP3    H233527   3.487   2.178   5.365  0.4665  0.4528  0.6157
 4038TIP3   OH233528   3.017   6.615  12.511  0.1144 -0.0037 -0.8904
 4038TIP3    H133529   3.009   6.656  12.598 -1.2780  0.0267 -1.0169
 4038TIP3    H233530   3.062   6.681  12.458 -1.7235  1.2560 -0.9771
 4039TIP3   OH233531   6.103   1.200   3.649  0.6320  0.4880  0.4579
 4039TIP3    H133532   6.076   1.109   3.634  0.3554  0.8015 -1.2080
 4039TIP3    H233533   6.137   1.229   3.564  1.5090  1.6863  1.1844
 4040TIP3   OH233534   1.198   6.028   2.855 -0.1783 -0.0397  0.4787
 4040TIP3    H133535   1.244   6.104   2.889  0.5646  0.1504 -0.8896
 4040TIP3    H233536   1.142   6.062   2.786 -0.0368 -0.6859  0.0318
 4041TIP3   OH233537   0.630   1.802  11.601  0.3474 -0.1567 -0.5114
 4041TIP3    H133538   0.576   1.798  11.522 -0.9661  0.2681  0.3439
 4041TIP3    H233539   0.674   1.887  11.596 -0.2829  0.1807 -0.4530
 4042TIP3   OH233540   5.894   2.870   5.034  0.1037  0.9584  0.2843
 4042TIP3    H133541   5.846   2.812   4.975 -1.1314  2.3554 -0.1260
 4042TIP3    H233542   5.853   2.857   5.120 -0.1376  1.1991  0.2038
 4043TIP3   OH233543   1.684   6.055  16.693  0.2724 -0.6021 -0.2260
 4043TIP3    H133544   1.719   5.966  16.704  0.5191 -0.3171  1.5667
 4043TIP3    H233545   1.708   6.100  16.774  0.7130  1.3082 -1.3538
 4044TIP3   OH233546   1.840   3.736  14.799  0.2155 -0.2993  0.4990
 4044TIP3    H133547   1.873   3.646  14.808 -1.0237 -0.6454  1.9910
 4044TIP3    H233548   1.845   3.753  14.705 -0.5213 -2.3531  0.0203
 4045TIP3   OH233549   1.285   0.535  10.753  0.3812 -0.2096 -0.5401
 4045TIP3    H133550   1.198   0.573  10.765  0.7134  0.5212 -0.4221
 4045TIP3    H233551   1.274   0.442  10.773  0.2330  0.3657  2.4311
 4046TIP3   OH233552   1.211   4.641  12.866 -0.1307 -0.5565 -0.3530
 4046TIP3    H133553   1.214   4.717  12.924  1.4179 -2.0956  1.7427
 4046TIP3    H233554   1.128   4.650  12.820 -1.1099  1.1721  1.5645
 4047TIP3   OH233555   6.637   4.454  14.143  0.8267  0.5283  0.6484
 4047TIP3    H133556   6.676   4.393  14.081  0.1044 -1.9244  2.4478
 4047TIP3    H233557   6.543   4.441  14.134  0.7016  0.3320  1.9887
 4048TIP3   OH233558   3.909   4.101  14.205  0.3505 -0.2518 -0.6173
 4048TIP3    H133559   3.846   4.173  14.193  0.9900  0.3068 -0.7123
 4048TIP3    H233560   3.884   4.036  14.140 -0.8230 -0.5498  0.0845
 4049TIP3   OH233561   0.875   0.928   1.338  0.3357  0.0933  0.1607
 4049TIP3    H133562   0.952   0.878   1.311  1.5583  2.3894 -0.8476
 4049TIP3    H233563   0.820   0.932   1.260  0.2772  0.3662  0.2155
 4050TIP3   OH233564   3.195   1.245   4.351  0.0200  0.0125  0.0230
 4050TIP3    H133565   3.132   1.304   4.391  1.4360  1.6506 -0.0346
 4050TIP3    H233566   3.175   1.247   4.257  0.0299  0.3979  0.0260
 4051TIP3   OH233567   6.041   2.599   1.575  0.0273 -0.7121 -0.8063
 4051TIP3    H133568   6.130   2.603   1.541 -0.4089  0.5958 -1.8755
 4051TIP3    H233569   6.049   2.554   1.659  1.5961 -1.1702 -1.1763
 4052TIP3   OH233570   2.402   1.668  13.575  0.2366  0.3171 -0.2885
 4052TIP3    H133571   2.403   1.631  13.487 -1.1750 -0.0419 -0.1709
 4052TIP3    H233572   2.334   1.736  13.572 -0.3179 -0.1782  0.7058
 4053TIP3   OH233573   4.294   2.385  17.143 -0.1392 -0.4168  0.2035
 4053TIP3    H133574   4.330   2.452  17.200  0.5748 -0.0401 -0.6824
 4053TIP3    H233575   4.364   2.320  17.135 -0.0792 -0.2664 -0.5648
 4054TIP3   OH233576   2.501   5.588   3.430  0.6049 -0.0120  0.3637
 4054TIP3    H133577   2.556   5.529   3.378  1.1609  1.2607 -0.5520
 4054TIP3    H233578   2.447   5.633   3.366 -1.2405 -0.9105  1.2271
 4055TIP3   OH233579   3.986   3.619  13.296  0.5948 -0.3694 -0.2666
 4055TIP3    H133580   3.891   3.614  13.285  0.2559  2.0919  0.9922
 4055TIP3    H233581   4.020   3.550  13.238 -1.8915 -0.8651 -1.2701
 4056TIP3   OH233582   4.139   5.753   0.543  0.8060  0.5499  0.0417
 4056TIP3    H133583   4.169   5.703   0.468  2.6649 -0.0271  1.1101
 4056TIP3    H233584   4.078   5.817   0.507  0.5191 -0.6617 -1.7304
 4057TIP3   OH233585   4.418   2.534   0.879  0.0928  0.1482  0.2876
 4057TIP3    H133586   4.484   2.604   0.878  1.2362 -0.8916 -1.1871
 4057TIP3    H233587   4.401   2.518   0.972  2.2971  0.1218  0.7373
 4058TIP3   OH233588   4.026   5.277   2.209  0.1163  0.1123  0.3912
 4058TIP3    H133589   4.122   5.277   2.215  0.0812  0.2052  1.0286
 4058TIP3    H233590   4.006   5.352   2.153  0.4585 -0.6206 -0.7561
 4059TIP3   OH233591   6.573   2.404  16.469 -0.4517  0.4060 -0.3663
 4059TIP3    H133592   6.548   2.338  16.534 -2.1977  1.2970 -0.0728
 4059TIP3    H233593   6.576   2.486  16.517  0.4303  0.7528 -0.9849
 4060TIP3   OH233594   3.519   2.621   0.529 -0.3531  0.1394 -0.1177
 4060TIP3    H133595   3.570   2.566   0.469  0.5104  0.8308 -0.0338
 4060TIP3    H233596   3.570   2.623   0.610 -0.5256  0.8117 -0.0151
 4061TIP3   OH233597   4.121   2.418  12.431  0.2843  0.7385  0.2993
 4061TIP3    H133598   4.110   2.415  12.336 -0.5923  0.3192  0.4059
 4061TIP3    H233599   4.124   2.326  12.458 -1.1387  0.8101  0.8337
 4062TIP3   OH233600   3.436   4.606   2.779 -0.4092 -0.0711  0.8360
 4062TIP3    H133601   3.356   4.587   2.828 -0.4618 -0.8177  0.4739
 4062TIP3    H233602   3.406   4.631   2.692 -0.2754  0.4233  0.9263
 4063TIP3   OH233603   5.320   3.461  13.320 -0.0559 -0.3212  0.9176
 4063TIP3    H133604   5.353   3.529  13.260 -1.2733 -0.4625  0.0610
 4063TIP3    H233605   5.284   3.511  13.394  0.0473 -0.0772  0.8068
 4064TIP3   OH233606   3.985   2.132  11.629  0.2887 -0.0525  0.1201
 4064TIP3    H133607   4.039   2.101  11.556 -1.2703  0.2057 -1.2101
 4064TIP3    H233608   3.905   2.080  11.623 -0.7362  1.4378  0.2990
 4065TIP3   OH233609   5.772   4.768  16.047 -0.1097  0.0802  0.4421
 4065TIP3    H133610   5.840   4.747  16.110  0.2191  0.2485  0.1490
 4065TIP3    H233611   5.750   4.859  16.065  0.3225  0.2756  0.0109
 4066TIP3   OH233612   2.862   1.313   3.911 -0.2311 -0.0478 -0.2531
 4066TIP3    H133613   2.900   1.225   3.906  0.2391 -0.2111  3.4433
 4066TIP3    H233614   2.914   1.358   3.978 -1.0640  2.7757 -1.3490
 4067TIP3   OH233615   3.990   5.766   5.464  0.2480 -1.1581 -0.3457
 4067TIP3    H133616   4.024   5.797   5.380  2.4874 -1.4178  0.3939
 4067TIP3    H233617   4.068   5.742   5.514 -0.9717 -0.6278  1.9761
 4068TIP3   OH233618   3.843   1.506   3.550  0.0795  0.0048  0.1042
 4068TIP3    H133619   3.897   1.582   3.530 -1.4811  0.7890 -1.4723
 4068TIP3    H233620   3.799   1.486   3.467 -0.8074 -1.5784  0.9124
 4069TIP3   OH233621   3.963   3.001   3.711  0.2174 -0.3347 -0.5790
 4069TIP3    H133622   4.039   3.002   3.768  1.0940  0.7211 -1.7031
 4069TIP3    H233623   3.888   3.001   3.770  1.0597  2.2748  0.5992
 4070TIP3   OH233624   2.002   3.765  16.694 -1.0403  0.0854  0.1966
 4070TIP3    H133625   1.976   3.704  16.763  0.8688 -0.3050  0.6136
 4070TIP3    H233626   1.958   3.732  16.615 -1.8780 -0.4550  0.8698
 4071TIP3   OH233627   2.057   4.016   3.619 -0.0563 -0.4077 -0.0514
 4071TIP3    H133628   2.055   3.927   3.584 -0.1790 -0.8393  1.0006
 4071TIP3    H233629   1.992   4.014   3.690 -0.5412  0.7093 -0.4467
 4072TIP3   OH233630   1.345   4.893   0.156 -0.7299 -0.0420 -0.2287
 4072TIP3    H133631   1.340   4.828   0.226 -1.3254  0.5456  0.2965
 4072TIP3    H233632   1.429   4.937   0.170 -1.1737  0.5786  0.6012
 4073TIP3   OH233633   3.045   6.044  11.387 -0.1544  0.0024 -0.2311
 4073TIP3    H133634   3.111   6.013  11.324  1.9529  1.1682  1.2808
 4073TIP3    H233635   3.003   5.964  11.418  0.5199 -0.7922 -1.2522
 4074TIP3   OH233636   3.181   5.624  13.973  0.2195 -0.4697  0.6222
 4074TIP3    H133637   3.270   5.614  13.940 -0.2323 -1.2198 -0.4422
 4074TIP3    H233638   3.175   5.714  14.003  0.5560  0.4147 -1.7688
 4075TIP3   OH233639   6.377   0.409  12.963 -0.1494 -0.2995  0.3752
 4075TIP3    H133640   6.453   0.451  12.923 -1.3592  1.5079 -0.1655
 4075TIP3    H233641   6.315   0.400  12.890 -1.0865 -0.1742  1.1495
 4076TIP3   OH233642   5.683   1.801   2.973 -0.0050 -0.1971  0.2043
 4076TIP3    H133643   5.671   1.729   2.911 -1.1561  0.4591 -0.3743
 4076TIP3    H233644   5.616   1.865   2.948 -0.2316  0.2555  1.8784
 4077TIP3   OH233645   6.087   3.569  11.937 -0.8865  0.0242 -1.0767
 4077TIP3    H133646   6.174   3.550  11.902  0.5909  0.2978  2.1247
 4077TIP3    H233647   6.032   3.500  11.900  0.5527  0.0131 -3.4408
 4078TIP3   OH233648   4.071   3.876  16.754  0.3845  0.1378 -0.0213
 4078TIP3    H133649   3.986   3.873  16.711  0.0453 -0.4874  0.6845
 4078TIP3    H233650   4.129   3.917  16.689 -0.5001  0.8091 -0.4032
 4079TIP3   OH233651   5.715   2.441  12.668  0.5117  0.2998  0.2663
 4079TIP3    H133652   5.734   2.477  12.582  0.1708 -2.1069 -0.9142
 4079TIP3    H233653   5.622   2.418  12.665  0.7775 -0.9797  0.7675
 4080TIP3   OH233654   5.685   2.594  16.578  0.4968  0.9145 -0.4086
 4080TIP3    H133655   5.651   2.607  16.667 -0.7721  2.7853 -1.1082
 4080TIP3    H233656   5.766   2.544  16.591 -0.6065 -0.4973  1.6229
 4081TIP3   OH233657   2.514   6.313  12.548  0.6536  0.3346 -0.6689
 4081TIP3    H133658   2.499   6.332  12.455  0.7298  0.4441 -0.6597
 4081TIP3    H233659   2.447   6.249  12.571  1.3510 -0.5560 -1.0819
 4082TIP3   OH233660   3.192   3.930   2.898  0.7907 -0.5008  0.1118
 4082TIP3    H133661   3.126   3.926   2.829  0.4739 -1.8651  0.4727
 4082TIP3    H233662   3.180   4.017   2.937  0.3073 -0.1031 -0.8819
 4083TIP3   OH233663   6.646   3.062  16.357 -0.1247  0.2737 -0.1328
 4083TIP3    H133664   6.723   3.119  16.351  0.5399 -0.7198 -1.5012
 4083TIP3    H233665   6.680   2.978  16.388 -0.2006 -0.8804 -2.9066
 4084TIP3   OH233666   6.167   4.606  11.021  0.5306  0.6065  0.2701
 4084TIP3    H133667   6.252   4.566  11.001  1.1289  2.1765 -0.4984
 4084TIP3    H233668   6.103   4.550  10.977  1.3493  0.5837 -0.9393
 4085TIP3   OH233669   4.646   3.879   5.983 -0.1755  0.0960  0.1454
 4085TIP3    H133670   4.716   3.817   6.005 -0.5453 -0.0759  0.8692
 4085TIP3    H233671   4.674   3.917   5.899  0.5034 -0.3795  0.1402
 4086TIP3   OH233672   4.637   2.784   3.358  0.1187 -0.5051 -0.0763
 4086TIP3    H133673   4.545   2.789   3.380 -0.2011 -1.3290 -1.1350
 4086TIP3    H233674   4.669   2.707   3.405  0.1638 -0.4908 -0.0830
 4087TIP3   OH233675   1.444   2.853  13.131  0.0933 -0.1217 -0.0950
 4087TIP3    H133676   1.351   2.847  13.105  0.3216 -0.6241 -0.8366
 4087TIP3    H233677   1.487   2.785  13.079  0.8104 -0.1918  0.5812
 4088TIP3   OH233678   0.803   4.310   4.830 -0.0547 -0.0067 -0.0171
 4088TIP3    H133679   0.832   4.232   4.877 -0.3901 -1.1538 -1.6712
 4088TIP3    H233680   0.816   4.381   4.893  1.3938 -1.2040  1.1078
 4089TIP3   OH233681   2.344   6.579   2.862  0.3930 -0.0329 -1.4608
 4089TIP3    H133682   2.381   6.601   2.776 -1.7290  0.4674 -2.2903
 4089TIP3    H233683   2.371   6.652   2.918  0.8135  0.2285 -1.9862
 4090TIP3   OH233684   2.394   5.553  16.972  0.3078  0.0792  0.1993
 4090TIP3    H133685   2.450   5.624  17.005 -0.0438  0.1939  0.5614
 4090TIP3    H233686   2.455   5.489  16.935  0.6852  0.1668  0.6578
 4091TIP3   OH233687   0.155   3.618  11.996  0.2508 -0.5466  0.0750
 4091TIP3    H133688   0.076   3.660  11.960  1.3269  0.9020 -0.6759
 4091TIP3    H233689   0.122   3.567  12.070 -1.7130 -1.7430 -1.5114
 4092TIP3   OH233690   2.825   0.405   1.722  0.0566  0.1385 -0.2135
 4092TIP3    H133691   2.833   0.351   1.800  1.5777  0.3912 -0.1696
 4092TIP3    H233692   2.891   0.370   1.662 -1.0540 -0.0267 -1.4005
 4093TIP3   OH233693   6.316   4.897  12.272  0.0565 -0.2129  0.0575
 4093TIP3    H133694   6.246   4.832  12.268 -1.5978  1.3927  1.2398
 4093TIP3    H233695   6.358   4.881  12.357 -0.4617  0.3412  0.4251
 4094TIP3   OH233696   6.383   5.186   4.971 -0.2905  0.8892  0.2970
 4094TIP3    H133697   6.337   5.105   4.992 -1.8001  1.7586  0.5053
 4094TIP3    H233698   6.468   5.178   5.014 -0.5621 -0.4053  0.6343
 4095TIP3   OH233699   5.504   5.804  16.997 -0.0840  0.0283  0.3796
 4095TIP3    H133700   5.566   5.731  16.995 -1.1633 -0.9122 -1.8056
 4095TIP3    H233701   5.434   5.774  17.054  0.6179  0.3921  1.4610
 4096TIP3   OH233702   4.353   3.506  15.108  0.1139 -0.4807  0.2339
 4096TIP3    H133703   4.316   3.594  15.098  1.6022  0.1504  0.0319
 4096TIP3    H233704   4.315   3.473  15.189 -0.2332  0.4620  0.4663
 4097TIP3   OH233705   1.504   0.954   4.270  0.3293 -0.0882 -0.0881
 4097TIP3    H133706   1.412   0.980   4.281  1.1061  2.7573  0.6060
 4097TIP3    H233707   1.529   0.919   4.355  0.4748  1.3487  0.4855
 4098TIP3   OH233708   4.450   4.522  15.281 -0.1841  0.2495  0.4265
 4098TIP3    H133709   4.408   4.445  15.243 -2.6424  1.1549  1.1356
 4098TIP3    H233710   4.378   4.583  15.298  1.2386  1.3637  3.0303
 4099TIP3   OH233711   3.845   5.199  10.704 -0.3359 -0.3712 -0.2209
 4099TIP3    H133712   3.827   5.292  10.720  0.7683  0.0262 -1.1483
 4099TIP3    H233713   3.827   5.187  10.610  0.2486 -0.9119 -0.2704
 4100TIP3   OH233714   6.323   3.952  16.810  0.0840  0.7645 -0.5592
 4100TIP3    H133715   6.255   3.898  16.771 -0.2598 -0.5040  1.5933
 4100TIP3    H233716   6.403   3.901  16.800 -0.1776 -0.0476  1.1586
 4101TIP3   OH233717   2.581   1.473  13.718 -0.3007 -0.0702  0.0527
 4101TIP3    H133718   2.596   1.394  13.666 -2.2825 -2.0676  2.3227
 4101TIP3    H233719   2.520   1.525  13.666 -0.1253 -0.7131 -0.8143
 4102TIP3   OH233720   3.563   1.479   5.172 -0.4537  0.2860  0.0792
 4102TIP3    H133721   3.630   1.495   5.239 -0.6067 -0.8423  0.5161
 4102TIP3    H233722   3.607   1.423   5.108 -0.5863  0.6244 -0.3103
 4103TIP3   OH233723   4.100   3.352   0.351  0.4387 -0.4524  0.3689
 4103TIP3    H133724   4.049   3.367   0.431 -0.5834  0.6857 -0.4583
 4103TIP3    H233725   4.090   3.433   0.301  2.2648 -0.5861 -0.2791
 4104TIP3   OH233726   4.391   3.834  16.535  0.2589 -0.3426  0.1618
 4104TIP3    H133727   4.444   3.782  16.595  2.8052  2.8482  0.9852
 4104TIP3    H233728   4.380   3.778  16.458  1.4045 -2.6485  1.5623
 4105TIP3   OH233729   5.070   1.492   1.281 -0.6854  0.3053 -0.0992
 4105TIP3    H133730   5.135   1.514   1.215  0.6959 -0.2988  1.0056
 4105TIP3    H233731   5.116   1.505   1.365 -2.7218  2.1963  0.8186
 4106TIP3   OH233732   3.484   4.525   5.886 -0.3991  0.0531 -0.5693
 4106TIP3    H133733   3.573   4.556   5.869 -0.2368 -1.1243 -2.0959
 4106TIP3    H233734   3.481   4.513   5.981  0.5255  1.6524 -0.2994
 4107TIP3   OH233735   2.775   3.493   2.935  0.3885  0.0848 -0.3860
 4107TIP3    H133736   2.746   3.418   2.884 -2.3029  0.9136 -0.2687
 4107TIP3    H233737   2.761   3.467   3.026 -1.3403  0.9194 -0.3641
 4108TIP3   OH233738   0.215   4.104  16.994 -0.3547  0.1540  0.1673
 4108TIP3    H133739   0.137   4.159  17.002 -0.4351  0.4295 -1.9349
 4108TIP3    H233740   0.187   4.031  16.938  1.1217  0.7927 -1.4983
 4109TIP3   OH233741   1.052   2.184   4.484 -0.0472  0.0908  0.6247
 4109TIP3    H133742   0.978   2.245   4.492 -0.8833 -0.9900  1.4644
 4109TIP3    H233743   1.013   2.103   4.453  1.0632 -0.0297 -0.5308
 4110TIP3   OH233744   4.933   2.610  16.099 -0.7338  0.3002  0.5952
 4110TIP3    H133745   4.918   2.567  16.183 -0.3349  1.7854  1.4551
 4110TIP3    H233746   4.864   2.676  16.093 -0.2270  0.8036  0.1731
 4111TIP3   OH233747   6.749   1.393  13.971  0.2811  0.4041 -0.0630
 4111TIP3    H133748   6.660   1.383  13.938 -0.3173 -1.1132  1.7977
 4111TIP3    H233749   6.792   1.310  13.949  1.0824  0.9202 -0.4811
 4112TIP3   OH233750   5.345   6.076  14.431  0.1623  0.0972  0.2193
 4112TIP3    H133751   5.279   6.115  14.489 -1.2385 -1.6927 -0.0773
 4112TIP3    H233752   5.313   6.093  14.343 -0.0730 -1.0177  0.0759
 4113TIP3   OH233753   1.998   0.801   6.148 -0.4753 -0.8209  0.8202
 4113TIP3    H133754   1.946   0.759   6.216 -0.5125  0.7895  1.8460
 4113TIP3    H233755   2.080   0.826   6.192 -0.7451  0.7923  0.4832
 4114TIP3   OH233756   3.041   0.132  13.210  0.1214  0.3690 -0.3808
 4114TIP3    H133757   3.117   0.158  13.158  0.4436 -0.3441 -0.2760
 4114TIP3    H233758   3.032   0.202  13.276  1.5617 -0.2289  0.4996
 4115TIP3   OH233759   6.148   3.600   1.243 -0.1040  0.0004 -0.2057
 4115TIP3    H133760   6.165   3.586   1.150  1.4685  0.8479 -0.0889
 4115TIP3    H233761   6.232   3.583   1.285 -0.2397  1.6099  0.8170
 4116TIP3   OH233762   0.435   6.083   1.085  0.0564  0.1853  0.7871
 4116TIP3    H133763   0.390   6.137   1.150 -2.1893  0.8053 -1.1564
 4116TIP3    H233764   0.393   5.997   1.092 -1.0980  0.6050 -0.6436
 4117TIP3   OH233765   3.188   2.371  12.345  0.3011 -0.1126 -0.1933
 4117TIP3    H133766   3.256   2.315  12.385  0.5589 -1.0355 -1.8489
 4117TIP3    H233767   3.204   2.364  12.251 -1.1751  0.8706 -0.5381
 4118TIP3   OH233768   3.218   5.546   1.526 -1.0161  0.5149 -0.3203
 4118TIP3    H133769   3.136   5.499   1.517  0.4122 -1.8121 -2.3748
 4118TIP3    H233770   3.249   5.560   1.437  0.9416  1.0862  0.3863
 4119TIP3   OH233771   3.948   2.290   0.677  0.2081 -0.1193 -0.3118
 4119TIP3    H133772   3.989   2.225   0.620 -0.1910 -0.7433  0.1055
 4119TIP3    H233773   3.939   2.246   0.762  2.1605  1.2811  0.6976
 4120TIP3   OH233774   2.712   1.810   6.117  0.0032  0.1745 -0.2261
 4120TIP3    H133775   2.770   1.739   6.145  0.9100 -0.0294 -2.4316
 4120TIP3    H233776   2.756   1.890   6.146  1.0368 -0.0186 -1.1904
 4121TIP3   OH233777   3.537   6.518   0.848  0.2719  0.2248  0.4605
 4121TIP3    H133778   3.445   6.534   0.825  0.5173 -0.0173 -0.7500
 4121TIP3    H233779   3.575   6.606   0.856  0.0558  0.3203  0.4474
 4122TIP3   OH233780   6.449   5.965   4.750 -0.1739 -0.1291  0.4057
 4122TIP3    H133781   6.417   5.973   4.840 -1.5614 -0.6880 -0.0167
 4122TIP3    H233782   6.370   5.964   4.696  0.5176 -1.8378 -0.6660
 4123TIP3   OH233783   5.686   4.603  14.138 -0.0653  0.0777  0.5765
 4123TIP3    H133784   5.727   4.524  14.174  0.4896  0.1061  0.0033
 4123TIP3    H233785   5.645   4.645  14.214 -0.1063 -0.5978  0.9396
 4124TIP3   OH233786   6.213   1.239   4.585  0.0351 -0.4396 -0.2527
 4124TIP3    H133787   6.256   1.324   4.594 -0.1335 -0.1990 -1.5512
 4124TIP3    H233788   6.122   1.261   4.562 -0.0862 -0.9694 -0.2868
 4125TIP3   OH233789   1.164   6.249   3.033  0.1346  0.1960 -0.1409
 4125TIP3    H133790   1.112   6.292   2.965 -0.3635  2.9093  1.8004
 4125TIP3    H233791   1.255   6.262   3.005 -0.0741 -0.5868 -1.2743
 4126TIP3   OH233792   1.377   5.490  15.177  0.2562  0.5844 -0.2816
 4126TIP3    H133793   1.461   5.453  15.151 -0.4020 -2.6504  1.7143
 4126TIP3    H233794   1.392   5.528  15.264 -0.1257  1.0168 -0.3953
 4127TIP3   OH233795   1.396   2.298  11.080  0.2102  0.4598  0.3379
 4127TIP3    H133796   1.314   2.287  11.031  0.0536  1.5719  0.3252
 4127TIP3    H233797   1.367   2.324  11.168  0.5391  0.1587  0.5382
 4128TIP3   OH233798   4.666   5.196  11.798 -0.0685  0.0711 -0.0259
 4128TIP3    H133799   4.593   5.205  11.737  0.6189  0.6093 -0.7868
 4128TIP3    H233800   4.629   5.150  11.873 -0.7936 -1.1813 -1.1009
 4129TIP3   OH233801   0.696   3.201  15.581  0.7346 -0.2330  0.2131
 4129TIP3    H133802   0.685   3.278  15.525  0.4249 -1.0923 -0.9571
 4129TIP3    H233803   0.671   3.127  15.525  5.1875 -1.6904 -0.2085
 4130TIP3   OH233804   6.080   6.353   3.310  0.1194 -0.0105  0.1026
 4130TIP3    H133805   6.158   6.358   3.366  0.4770 -0.7568 -0.3146
 4130TIP3    H233806   6.114   6.326   3.224 -0.4478  0.8946 -0.4187
 4131TIP3   OH233807   3.936   0.828  11.028 -0.2371 -0.6393 -0.4271
 4131TIP3    H133808   3.892   0.750  10.992 -0.3999 -1.8239  2.0950
 4131TIP3    H233809   3.984   0.795  11.104 -0.4858  1.7477  0.8759
 4132TIP3   OH233810   0.338   3.430   1.721 -0.2331  0.1743 -0.5568
 4132TIP3    H133811   0.333   3.334   1.724 -0.8919  0.1980  2.3873
 4132TIP3    H233812   0.405   3.449   1.654  1.0163 -2.3790 -0.1542
 4133TIP3   OH233813   2.779   2.702   1.189  0.4242 -0.3370  0.0316
 4133TIP3    H133814   2.720   2.680   1.261 -2.0128  1.6766 -1.1414
 4133TIP3    H233815   2.867   2.684   1.222 -0.5616  0.5175  3.4881
 4134TIP3   OH233816   1.822   2.908  17.253 -0.5712 -0.0989  0.2460
 4134TIP3    H133817   1.874   2.829  17.270  1.0347  1.1118  1.2376
 4134TIP3    H233818   1.735   2.887  17.288 -0.8260 -2.1307 -1.3591
 4135TIP3   OH233819   5.372   2.353  15.184  0.4042 -0.0977  0.4853
 4135TIP3    H133820   5.400   2.261  15.184  0.9662  0.0746  0.2101
 4135TIP3    H233821   5.398   2.387  15.099 -0.1535  0.2175  0.4344
 4136TIP3   OH233822   4.903   5.100   6.793 -0.1731 -0.1746  0.0684
 4136TIP3    H133823   4.958   5.145   6.729 -0.1883  0.5183  0.5288
 4136TIP3    H233824   4.932   5.134   6.878 -1.4432  0.3843  0.3123
 4137TIP3   OH233825   6.230   3.895  16.374  0.3746 -0.1609 -0.2711
 4137TIP3    H133826   6.191   3.982  16.386  0.5923  0.0649 -1.1273
 4137TIP3    H233827   6.226   3.855  16.460 -0.2707  0.4778  0.0083
 4138TIP3   OH233828   1.001   2.169  11.931  0.4161 -0.2931  0.0067
 4138TIP3    H133829   0.911   2.151  11.957 -0.2875  1.3799 -1.0388
 4138TIP3    H233830   1.035   2.085  11.901 -0.1817 -1.3289  2.0447
 4139TIP3   OH233831   0.578   4.982   3.299 -0.6689 -0.4256  0.1822
 4139TIP3    H133832   0.571   4.927   3.377  0.0597 -1.0630 -0.1882
 4139TIP3    H233833   0.591   5.071   3.334  0.2890 -0.7863  0.8096
 4140TIP3   OH233834   0.393   1.193   5.078 -0.9264 -0.3441 -0.6169
 4140TIP3    H133835   0.382   1.125   5.144 -1.5116  0.9076  0.6168
 4140TIP3    H233836   0.455   1.156   5.015 -1.7441 -2.2740 -0.3562
 4141TIP3   OH233837   4.834   5.690   3.147 -0.1943 -0.4137  0.6316
 4141TIP3    H133838   4.895   5.760   3.124 -0.5452 -0.6983 -1.2809
 4141TIP3    H233839   4.759   5.702   3.089 -0.1783 -2.4792  0.0819
 4142TIP3   OH233840   4.664   1.221  14.185  0.3597  0.0122  0.4850
 4142TIP3    H133841   4.624   1.292  14.235  1.5267  0.6232  0.6015
 4142TIP3    H233842   4.750   1.255  14.160  0.5444 -0.9878 -0.3318
 4143TIP3   OH233843   0.485   2.043  14.395 -0.3123 -0.3250 -0.1875
 4143TIP3    H133844   0.519   2.023  14.308 -4.0788 -1.4333 -1.6146
 4143TIP3    H233845   0.421   1.974  14.412 -2.3953  1.8933  1.8068
 4144TIP3   OH233846   4.569   2.717  12.743 -0.7494 -0.4246 -0.3130
 4144TIP3    H133847   4.534   2.679  12.663 -2.1888  0.4223 -0.1239
 4144TIP3    H233848   4.575   2.811  12.725 -2.6204  0.0220  1.0447
 4145TIP3   OH233849   0.839   0.512   2.976 -0.0714 -0.6807  0.0231
 4145TIP3    H133850   0.918   0.494   2.925  0.9671 -1.1727  1.7239
 4145TIP3    H233851   0.851   0.464   3.058 -0.5056  2.0065  1.8014
 4146TIP3   OH233852   2.054   4.655   2.889  0.0768 -0.3024 -0.6823
 4146TIP3    H133853   1.963   4.656   2.859  0.6018  0.4720 -2.3298
 4146TIP3    H233854   2.062   4.734   2.943 -0.6444 -1.2615  0.9076
 4147TIP3   OH233855   3.927   4.468   3.119 -0.5401 -0.4044 -0.2686
 4147TIP3    H133856   3.993   4.488   3.053  2.9501 -1.9997  2.4444
 4147TIP3    H233857   3.858   4.423   3.070  1.5796 -1.0201 -2.9283
 4148TIP3   OH233858   0.615   4.493  12.798 -0.2912 -0.8005  0.1175
 4148TIP3    H133859   0.603   4.551  12.723 -0.5736 -3.0747 -1.7376
 4148TIP3    H233860   0.555   4.420  12.781  0.6272 -2.0257  1.8692
 4149TIP3   OH233861   2.017   5.809   5.447 -0.2181  0.1066 -0.3097
 4149TIP3    H133862   1.987   5.728   5.488 -0.0712  0.7131  1.0794
 4149TIP3    H233863   2.070   5.781   5.373 -1.7018 -1.0222 -0.9764
 4150TIP3   OH233864   4.382   4.779  12.329  0.8252 -0.6506  0.3609
 4150TIP3    H133865   4.442   4.782  12.404 -0.1691 -0.2480  1.1800
 4150TIP3    H233866   4.322   4.708  12.350  0.3202 -0.2997  0.1250
 4151TIP3   OH233867   0.201   0.715   4.779 -0.6583 -0.0202  0.0719
 4151TIP3    H133868   0.234   0.781   4.841  0.8268 -0.0240 -0.6667
 4151TIP3    H233869   0.213   0.756   4.693  1.1578 -1.5680 -0.4690
 4152TIP3   OH233870   6.192   2.592  15.358  0.0278 -0.6216 -0.6867
 4152TIP3    H133871   6.247   2.546  15.295 -1.7267 -1.7665 -1.4434
 4152TIP3    H233872   6.102   2.569  15.333 -0.8422  1.5442  0.2089
 4153TIP3   OH233873   4.156   3.047   4.274  0.1202 -0.1875 -0.2841
 4153TIP3    H133874   4.061   3.046   4.286  0.0320  2.5107 -0.0711
 4153TIP3    H233875   4.192   3.025   4.360 -0.3395 -0.1961 -0.0942
 4154TIP3   OH233876   2.032   1.402  10.732 -0.2533 -0.3812  0.2314
 4154TIP3    H133877   2.021   1.310  10.754  0.6090 -0.2379  1.3724
 4154TIP3    H233878   1.951   1.444  10.761 -0.5060 -0.7155  0.0185
 4155TIP3   OH233879   1.112   6.084  11.812  0.3558  0.1942 -0.2403
 4155TIP3    H133880   1.205   6.082  11.836 -0.1585  1.0671  2.0483
 4155TIP3    H233881   1.069   6.031  11.878 -0.7837 -0.3792 -1.4060
 4156TIP3   OH233882   2.638   2.577   0.991 -0.2558  0.0177 -0.7286
 4156TIP3    H133883   2.679   2.640   1.050  0.6194  0.4269 -1.7308
 4156TIP3    H233884   2.545   2.584   1.009  0.0116 -0.0290  0.7451
 4157TIP3   OH233885   3.884   3.581  12.033  0.7630  0.0186  0.2113
 4157TIP3    H133886   3.892   3.636  12.111  1.2118 -1.0292  0.9199
 4157TIP3    H233887   3.790   3.568  12.023  0.6431  1.0134 -0.0450
 4158TIP3   OH233888   0.108   4.063  12.470 -0.2148  0.1629 -0.0867
 4158TIP3    H133889   0.128   3.986  12.416 -2.7775  0.1363 -1.1725
 4158TIP3    H233890   0.022   4.043  12.508 -0.0341  1.6832  1.2229
 4159TIP3   OH233891   3.118   3.343  11.652  0.0934  0.0994  0.0487
 4159TIP3    H133892   3.078   3.312  11.572 -0.7833  1.6563 -0.1594
 4159TIP3    H233893   3.079   3.290  11.721 -0.0101 -0.4642 -0.4363
 4160TIP3   OH233894   3.127   6.518  10.588 -0.0835  0.3118  0.1830
 4160TIP3    H133895   3.089   6.566  10.660 -1.2255 -1.7166  1.0082
 4160TIP3    H233896   3.086   6.431  10.592  1.2381 -0.4759 -1.7249
 4161TIP3   OH233897   3.583   5.375  14.549 -0.8145 -0.0298  0.0265
 4161TIP3    H133898   3.563   5.402  14.638 -1.0091  0.8442 -0.2668
 4161TIP3    H233899   3.629   5.292  14.558 -0.4141  0.2845  0.9685
 4162TIP3   OH233900   4.562   1.404  12.657  0.2057 -0.0414 -0.1885
 4162TIP3    H133901   4.479   1.360  12.637  0.7077 -1.3931  0.5769
 4162TIP3    H233902   4.609   1.342  12.713  2.1916  0.2226 -1.4511
 4163TIP3   OH233903   2.008   2.574  12.536 -0.1490 -0.0847  0.1771
 4163TIP3    H133904   2.034   2.665  12.547  0.6088 -0.2372 -0.2528
 4163TIP3    H233905   2.079   2.524  12.576 -1.1007 -0.4706  1.4283
 4164TIP3   OH233906   1.557   1.173   2.946  0.4386 -0.0734  0.5542
 4164TIP3    H133907   1.629   1.110   2.946  0.1844 -0.3999  1.8973
 4164TIP3    H233908   1.567   1.221   3.029  0.3402  1.3297 -0.2116
 4165TIP3   OH233909   6.690   2.823   6.406  0.1503  0.1732  0.0267
 4165TIP3    H133910   6.713   2.863   6.490 -0.1609 -0.2085  0.2980
 4165TIP3    H233911   6.609   2.775   6.424 -0.0432  0.2705 -0.5461
 4166TIP3   OH233912   1.405   0.277   1.569 -0.3383  0.1158 -0.3194
 4166TIP3    H133913   1.451   0.242   1.493 -0.8681 -0.7781 -0.2379
 4166TIP3    H233914   1.321   0.231   1.571 -0.3218  0.0959  0.8284
 4167TIP3   OH233915   5.393   0.457   0.520  0.0863 -0.9400  0.1298
 4167TIP3    H133916   5.357   0.435   0.435 -1.0539 -0.0938  0.3695
 4167TIP3    H233917   5.319   0.445   0.581  0.7449 -1.0459  0.9235
 4168TIP3   OH233918   1.888   6.710   4.845  0.1284 -0.2521 -0.3821
 4168TIP3    H133919   1.877   6.616   4.828  0.5146 -0.2615 -0.5917
 4168TIP3    H233920   1.805   6.737   4.886  1.8913 -1.8732  5.0571
 4169TIP3   OH233921   2.501   0.799   4.449 -0.0281 -0.3303  0.0608
 4169TIP3    H133922   2.463   0.775   4.365  2.3842 -0.2690 -1.1158
 4169TIP3    H233923   2.521   0.892   4.442  0.4134 -0.3754  0.6095
 4170TIP3   OH233924   5.913   0.865  16.941 -0.1662 -0.0949  0.5588
 4170TIP3    H133925   6.008   0.864  16.944 -0.1956  0.2425  1.6835
 4170TIP3    H233926   5.889   0.773  16.930  0.2606 -0.2992  1.2884
 4171TIP3   OH233927   5.501   0.144  16.599  0.8603  0.2158  0.5721
 4171TIP3    H133928   5.427   0.164  16.541  1.0395 -0.2703  0.1702
 4171TIP3    H233929   5.576   0.188  16.559  1.1438 -0.7554 -0.0107
 4172TIP3   OH233930   2.562   2.222   6.577 -0.1336  0.2560  0.0890
 4172TIP3    H133931   2.503   2.257   6.510  0.6971 -0.8353 -1.2776
 4172TIP3    H233932   2.644   2.208   6.531  0.1622 -1.5151  1.0782
 4173TIP3   OH233933   2.825   5.356  14.362  0.5120  0.2076 -0.2394
 4173TIP3    H133934   2.909   5.363  14.408  0.1719 -0.9219  0.5935
 4173TIP3    H233935   2.806   5.262  14.359 -0.7293  0.4400 -0.3976
 4174TIP3   OH233936   5.970   2.318  12.654  0.4491 -0.3827  0.4483
 4174TIP3    H133937   5.886   2.365  12.653  0.7258  0.2452 -2.2478
 4174TIP3    H233938   5.964   2.260  12.730 -1.9659  0.4545  0.9943
 4175TIP3   OH233939   5.784   5.096   1.316 -0.4226 -0.6481  0.6462
 4175TIP3    H133940   5.705   5.048   1.339  0.4021 -1.6988  1.3970
 4175TIP3    H233941   5.832   5.037   1.258  0.0162 -0.1980  0.5393
 4176TIP3   OH233942   5.080   2.770   4.037 -0.1330  0.3287  0.3883
 4176TIP3    H133943   4.989   2.742   4.048 -0.3048  0.8251  0.2563
 4176TIP3    H233944   5.127   2.691   4.012 -0.2441 -0.2527  1.9212
 4177TIP3   OH233945   1.974   3.647   1.094 -0.3831  0.1616  0.1253
 4177TIP3    H133946   1.929   3.695   1.025 -0.7086  1.3395  1.1137
 4177TIP3    H233947   2.009   3.569   1.051 -1.4245  0.3634 -1.1432
 4178TIP3   OH233948   1.992   5.384   0.626  0.0430 -0.3459 -0.5920
 4178TIP3    H133949   1.986   5.458   0.565  0.6905  0.4735  0.3178
 4178TIP3    H233950   1.901   5.357   0.639 -0.2290  0.4982 -0.6914
 4179TIP3   OH233951   1.161   5.949  16.444  0.1707 -0.5227  0.0425
 4179TIP3    H133952   1.160   5.907  16.359  0.7787  1.2675 -0.8994
 4179TIP3    H233953   1.254   5.957  16.466  0.1669  1.7526 -0.5824
 4180TIP3   OH233954   6.194   1.924   0.630  0.3592  0.4236 -0.2535
 4180TIP3    H133955   6.145   1.965   0.701  1.0358  0.8080  0.0039
 4180TIP3    H233956   6.190   1.831   0.648  1.6769  0.5896  1.0635
 4181TIP3   OH233957   1.681   3.117  12.028 -0.0773  0.0799  0.0450
 4181TIP3    H133958   1.651   3.034  12.066 -1.1323  0.2214 -0.4571
 4181TIP3    H233959   1.763   3.136  12.074  1.0859 -2.0896 -0.9695
 4182TIP3   OH233960   0.788   0.003  13.439 -0.3588  0.4352 -0.3707
 4182TIP3    H133961   0.789  -0.067  13.374  2.3899  0.3282 -0.3344
 4182TIP3    H233962   0.880   0.015  13.462 -1.1068  1.5549  2.3634
 4183TIP3   OH233963   0.488   5.525  11.901 -0.4030 -0.2800  0.2628
 4183TIP3    H133964   0.401   5.507  11.864 -0.0299 -0.4922 -0.5469
 4183TIP3    H233965   0.548   5.484  11.839  0.3273  0.8623  0.1928
 4184TIP3   OH233966   0.213   2.673  13.526 -1.0906  0.1253 -0.3662
 4184TIP3    H133967   0.134   2.724  13.508 -1.0217  0.7393  0.9375
 4184TIP3    H233968   0.190   2.619  13.602 -0.1747  0.5358  0.2226
 4185TIP3   OH233969   5.323   5.703   1.971  0.2581  0.6577  0.1978
 4185TIP3    H133970   5.329   5.632   1.907  0.1948  1.2357 -0.4646
 4185TIP3    H233971   5.413   5.737   1.978  0.5286 -0.2570  1.4235
 4186TIP3   OH233972   4.584   4.665   0.930 -0.1720  0.3265  0.1599
 4186TIP3    H133973   4.534   4.594   0.890  0.6943  0.1678 -0.6871
 4186TIP3    H233974   4.641   4.697   0.860  1.2819  0.1512  1.2002
 4187TIP3   OH233975   1.562   5.138   5.022  0.4640 -0.1729 -0.4551
 4187TIP3    H133976   1.564   5.101   5.110  1.9373  0.7067 -0.0796
 4187TIP3    H233977   1.650   5.174   5.009 -0.1994  1.1011 -1.6840
 4188TIP3   OH233978   3.248   3.264   2.348 -0.3841 -0.5401 -0.4825
 4188TIP3    H133979   3.316   3.314   2.304 -1.2291  1.1000 -0.0045
 4188TIP3    H233980   3.179   3.255   2.283 -0.7847  0.1182 -0.1682
 4189TIP3   OH233981   5.903   2.524   0.918  0.1398 -0.4269 -0.6023
 4189TIP3    H133982   5.876   2.605   0.960  1.4429  0.4193 -1.3371
 4189TIP3    H233983   5.863   2.527   0.831  1.2880  0.0913 -1.1248
 4190TIP3   OH233984   4.680   1.420   0.478  0.0951  0.7408  0.1298
 4190TIP3    H133985   4.636   1.348   0.433  0.9783  0.3170 -0.0932
 4190TIP3    H233986   4.771   1.391   0.485  0.5193  1.9449 -0.1916
 4191TIP3   OH233987   2.148   6.205   1.506 -0.4486  0.1942  0.2916
 4191TIP3    H133988   2.062   6.242   1.487 -0.2967  0.7673  0.7104
 4191TIP3    H233989   2.159   6.218   1.600  0.8054  1.6411 -0.0202
 4192TIP3   OH233990   4.551   4.089  15.420  0.7053  0.7547  0.1362
 4192TIP3    H133991   4.554   4.134  15.335 -0.7243 -0.3938 -0.5586
 4192TIP3    H233992   4.527   3.999  15.399  1.8019  0.0534  1.6516
 4193TIP3   OH233993   1.637   3.831   4.288 -0.5220  0.1146 -0.1926
 4193TIP3    H133994   1.728   3.859   4.301 -0.2927  0.2181 -1.8396
 4193TIP3    H233995   1.616   3.857   4.198 -2.3274  0.4637  0.2824
 4194TIP3   OH233996   5.962   0.906   4.982  0.3172  0.2511  0.0764
 4194TIP3    H133997   6.051   0.936   4.999  1.4337 -1.4164 -2.2644
 4194TIP3    H233998   5.944   0.934   4.892 -0.7305 -1.1604 -0.1939
 4195TIP3   OH233999   6.045   3.326  15.019 -0.3828  0.3887 -0.0980
 4195TIP3    H134000   6.051   3.338  14.924  0.5835 -0.2586 -0.1361
 4195TIP3    H234001   5.957   3.356  15.042 -0.4825  0.9289 -1.1401
 4196TIP3   OH234002   2.691   3.148   0.129 -0.0220 -0.2122 -0.0260
 4196TIP3    H134003   2.618   3.186   0.177 -0.1100  0.1437 -0.4336
 4196TIP3    H234004   2.768   3.167   0.183 -0.1951 -0.3444  0.2678
 4197TIP3   OH234005   1.381   2.510  15.146  0.1051  0.8360 -0.2622
 4197TIP3    H134006   1.386   2.557  15.063  1.0147 -3.1050 -2.6906
 4197TIP3    H234007   1.288   2.486  15.155  0.1407  0.5433 -0.6393
 4198TIP3   OH234008   0.702   5.359  10.713 -0.1606  0.6538  0.4908
 4198TIP3    H134009   0.717   5.336  10.804 -1.2992 -0.1407  0.5022
 4198TIP3    H234010   0.724   5.280  10.664 -0.1918  0.8634  0.1330
 4199TIP3   OH234011   0.281   5.346  16.263  0.5441 -0.6667  0.3289
 4199TIP3    H134012   0.295   5.270  16.319  0.7587  0.5113  1.9629
 4199TIP3    H234013   0.362   5.356  16.214  0.9290 -0.8442  0.9230
 4200TIP3   OH234014   0.531   6.544  11.744 -0.0582  0.0224 -0.4541
 4200TIP3    H134015   0.564   6.463  11.782 -0.7340  0.3429  0.8922
 4200TIP3    H234016   0.547   6.536  11.650  2.0065 -0.6650 -0.0874
 4201TIP3   OH234017   0.971   1.916  17.013 -0.4085 -0.0577 -0.4618
 4201TIP3    H134018   0.940   1.948  16.928 -0.2020 -2.2994 -1.4675
 4201TIP3    H234019   0.901   1.939  17.074 -0.3362  2.0598 -1.0999
 4202TIP3   OH234020   4.128   0.185  14.086 -0.4473  0.7196 -0.5693
 4202TIP3    H134021   4.041   0.225  14.081 -0.4785  0.7003 -0.1923
 4202TIP3    H234022   4.153   0.193  14.178  0.4435  1.7600 -0.8868
 4203TIP3   OH234023   6.268   0.687  13.473  0.1422 -0.0448 -0.1515
 4203TIP3    H134024   6.213   0.741  13.531  4.2373  1.7782  2.5338
 4203TIP3    H234025   6.293   0.612  13.528  1.3174 -0.1271 -0.7683
 4204TIP3   OH234026   5.853   2.171   1.193  0.4483 -0.3061  0.0165
 4204TIP3    H134027   5.761   2.184   1.219  0.4927  0.8080 -0.3316
 4204TIP3    H234028   5.902   2.233   1.247  1.0066 -0.8869  0.1897
 4205TIP3   OH234029   6.675   2.453   5.146 -0.0324  0.0840  0.7220
 4205TIP3    H134030   6.729   2.377   5.126 -1.4378 -0.7528 -0.0202
 4205TIP3    H234031   6.738   2.523   5.165  1.3624 -0.4677 -1.5007
 4206TIP3   OH234032   5.446   2.036  14.725  0.7161  0.1147  0.0178
 4206TIP3    H134033   5.478   1.974  14.790 -2.8202 -0.9409  0.9332
 4206TIP3    H234034   5.458   1.991  14.641  0.8413 -0.5768  0.3968
 4207TIP3   OH234035   1.869   6.033  11.684 -0.3357 -0.0075 -0.5015
 4207TIP3    H134036   1.850   5.943  11.708 -0.2059 -0.4001 -1.7795
 4207TIP3    H234037   1.799   6.056  11.622 -0.6760  0.9592  0.2099
 4208TIP3   OH234038   2.072   6.513  16.968  0.5573  0.8685 -0.3838
 4208TIP3    H134039   2.043   6.481  17.054  1.6614  1.6176  0.2917
 4208TIP3    H234040   2.110   6.599  16.986  0.1926  1.3277 -1.7412
 4209TIP3   OH234041   4.043   0.580   1.627  0.1752  0.2962 -0.0253
 4209TIP3    H134042   4.010   0.652   1.681 -0.1591 -0.2308  0.4735
 4209TIP3    H234043   3.979   0.510   1.638  0.9360 -0.3799  0.1555
 4210TIP3   OH234044   2.830   2.021   3.565 -0.2286 -0.1475 -0.4460
 4210TIP3    H134045   2.850   1.998   3.474  0.0494  0.8263 -0.6438
 4210TIP3    H234046   2.797   2.111   3.561 -1.3695 -0.5101  0.2885
 4211TIP3   OH234047   2.289   6.685  12.123 -0.0819  0.3350  0.4862
 4211TIP3    H134048   2.343   6.632  12.065 -0.1860  1.1626 -0.3938
 4211TIP3    H234049   2.275   6.630  12.200  0.4470 -0.6031 -0.0706
 4212TIP3   OH234050   5.120   6.356   5.855  0.1292 -0.3457  0.2629
 4212TIP3    H134051   5.112   6.379   5.762 -0.2727  0.0538  0.3941
 4212TIP3    H234052   5.214   6.358   5.872  0.1662  0.1467  0.0061
 4213TIP3   OH234053   6.337   3.079   1.693 -0.0401 -0.5683  0.8749
 4213TIP3    H134054   6.270   3.016   1.717 -1.4016 -0.3867 -2.0014
 4213TIP3    H234055   6.410   3.060   1.752 -0.1921 -5.1590 -0.0448
 4214TIP3   OH234056   3.782   5.961  13.871 -0.1037 -0.3453 -0.0029
 4214TIP3    H134057   3.715   5.972  13.804  2.0090  1.8223 -1.9648
 4214TIP3    H234058   3.829   5.881  13.844 -0.9051 -0.9943  0.4893
 4215TIP3   OH234059   1.126   4.533   5.597  0.4527 -0.1014 -0.0656
 4215TIP3    H134060   1.053   4.514   5.539  1.0277  0.2654 -0.9237
 4215TIP3    H234061   1.137   4.454   5.650 -0.0975 -0.4215 -0.4256
 4216TIP3   OH234062   3.964   1.037   3.093 -0.3097 -0.8551 -0.6713
 4216TIP3    H134063   4.038   1.079   3.049 -0.8660  0.2322 -0.5984
 4216TIP3    H234064   3.956   0.952   3.051  0.9199 -0.9501 -0.7479
 4217TIP3   OH234065   3.043   1.956   0.227  0.1416  0.5393 -0.3375
 4217TIP3    H134066   3.083   1.874   0.199  1.1222  0.7962  0.2851
 4217TIP3    H234067   2.951   1.947   0.203  0.3253 -0.5611 -0.6689
 4218TIP3   OH234068   2.540   3.789   0.369 -0.1871 -0.0732  0.0163
 4218TIP3    H134069   2.525   3.870   0.321 -1.0811 -0.1279  0.1981
 4218TIP3    H234070   2.571   3.817   0.455  0.3656  0.0467 -0.2148
 4219TIP3   OH234071   5.072   2.058   4.921  0.3793 -0.4891  0.2850
 4219TIP3    H134072   5.032   2.059   4.834  0.5507 -1.4211  0.1828
 4219TIP3    H234073   5.034   1.981   4.963  0.4189 -0.1335  0.9809
 4220TIP3   OH234074   3.596   5.450   1.153 -0.5917  0.3988  0.0486
 4220TIP3    H134075   3.512   5.494   1.141  0.2284  1.4955 -2.2662
 4220TIP3    H234076   3.573   5.361   1.181 -2.5543  0.4677 -1.1606
 4221TIP3   OH234077   3.761   1.854   3.053  0.0521  0.0730  0.1909
 4221TIP3    H134078   3.802   1.768   3.052 -2.1887 -1.1184  1.4763
 4221TIP3    H234079   3.816   1.909   2.997  0.7241 -2.5735 -1.9061
 4222TIP3   OH234080   5.861   1.795   4.086 -0.6019  0.2756  0.0753
 4222TIP3    H134081   5.885   1.869   4.029  2.1123 -0.4745  0.1129
 4222TIP3    H234082   5.933   1.733   4.076 -0.2392 -0.1462  3.9104
 4223TIP3   OH234083   6.597   0.452   0.440  0.3949 -0.1188 -0.6067
 4223TIP3    H134084   6.539   0.382   0.469  1.1584 -0.6092 -0.2262
 4223TIP3    H234085   6.677   0.438   0.490 -0.1983  2.4035  1.2177
 4224TIP3   OH234086   3.010   6.571  14.764  0.2525 -0.4223  0.1664
 4224TIP3    H134087   3.007   6.568  14.859  1.4219 -0.5664  0.2170
 4224TIP3    H234088   3.086   6.627  14.744 -1.7072  2.1485 -0.7081
 4225TIP3   OH234089   6.426   3.970  12.326  0.4691 -0.2099  0.1813
 4225TIP3    H134090   6.339   3.960  12.286  0.1298 -1.6058  1.1949
 4225TIP3    H234091   6.485   3.980  12.251 -0.2865 -1.6040 -0.6617
 4226TIP3   OH234092   0.763   1.404   3.397  0.1527  0.1050  0.3054
 4226TIP3    H134093   0.774   1.364   3.311  0.8125 -1.2202  0.9683
 4226TIP3    H234094   0.745   1.330   3.456 -0.8347  1.0352  1.2271
 4227TIP3   OH234095   2.815   2.413  12.633 -0.6108 -0.5034  0.6244
 4227TIP3    H134096   2.879   2.350  12.668 -1.6447 -1.9996 -0.0739
 4227TIP3    H234097   2.851   2.440  12.549 -1.0101 -1.5686  0.0966
 4228TIP3   OH234098   1.526   0.644  13.611  0.4606 -0.6058 -0.2712
 4228TIP3    H134099   1.514   0.659  13.704  1.3995  0.3045 -0.2791
 4228TIP3    H234100   1.610   0.598  13.604 -0.0258 -1.4678 -0.6151
 4229TIP3   OH234101   5.438   0.615  15.198 -0.2782 -0.1678 -0.0601
 4229TIP3    H134102   5.526   0.646  15.222  0.3835 -1.0802 -1.1567
 4229TIP3    H234103   5.451   0.572  15.113 -1.6974 -0.8051  0.0241
 4230TIP3   OH234104   3.050   1.832  13.790 -0.0857 -0.4624 -0.0812
 4230TIP3    H134105   3.094   1.817  13.706  0.6885  2.3742 -0.2963
 4230TIP3    H234106   3.078   1.759  13.845  1.2470 -1.1641 -1.5868
 4231TIP3   OH234107   5.590   3.654   2.581 -0.4642 -0.1645 -0.3457
 4231TIP3    H134108   5.544   3.714   2.639 -1.0005 -1.7294  0.9165
 4231TIP3    H234109   5.649   3.710   2.530 -1.0355  1.4245  0.6762
 4232TIP3   OH234110   3.599   6.443  16.738  0.3430 -0.7723 -0.6854
 4232TIP3    H134111   3.596   6.348  16.742 -0.0704 -0.7186  1.3570
 4232TIP3    H234112   3.684   6.463  16.699  1.0658 -1.9640  0.2206
 4233TIP3   OH234113   1.130   0.351   2.169  0.0432  0.6093  0.0216
 4233TIP3    H134114   1.144   0.419   2.102 -1.5066  1.2077  0.2559
 4233TIP3    H234115   1.059   0.386   2.223  0.1231 -0.6319  0.9588
 4234TIP3   OH234116   1.733   5.870  14.763  0.2273 -0.1289 -0.2583
 4234TIP3    H134117   1.645   5.872  14.801 -0.2303 -0.4463 -1.2505
 4234TIP3    H234118   1.750   5.961  14.737  0.6496  0.1360  0.9102
 4235TIP3   OH234119   2.776   1.262   2.304 -0.3016 -0.1370  0.7327
 4235TIP3    H134120   2.824   1.212   2.369  0.4400 -1.6012 -0.8695
 4235TIP3    H234121   2.692   1.217   2.295 -0.2098 -0.2372  0.3414
 4236TIP3   OH234122   5.577   3.792  13.934  0.0036 -0.8785  0.4151
 4236TIP3    H134123   5.512   3.772  13.867 -0.5852 -1.5148  1.1751
 4236TIP3    H234124   5.527   3.809  14.013  0.6735  0.3519  0.5967
 4237TIP3   OH234125   6.339   2.280   6.552 -0.1425 -0.4335  0.2639
 4237TIP3    H134126   6.261   2.259   6.602  0.6368 -0.7837  1.3734
 4237TIP3    H234127   6.314   2.356   6.499 -1.9790 -2.0170 -1.2930
 4238TIP3   OH234128   1.290   4.130   6.172 -0.0042  0.2635  0.2877
 4238TIP3    H134129   1.234   4.207   6.166 -0.8482 -0.3777 -0.4290
 4238TIP3    H234130   1.249   4.076   6.239 -0.0154 -0.0238  0.0509
 4239TIP3   OH234131   1.595   0.706  10.476  0.5445  0.0511  0.0085
 4239TIP3    H134132   1.509   0.666  10.484 -0.7569  2.4677 -0.7963
 4239TIP3    H234133   1.651   0.637  10.442 -0.9325 -1.7120  0.9606
 4240TIP3   OH234134   3.190   0.429   1.759 -0.7668  0.1062 -0.0661
 4240TIP3    H134135   3.273   0.472   1.739 -1.0584  0.7634  0.1161
 4240TIP3    H234136   3.155   0.479   1.832 -2.8587  1.8977 -2.1401
 4241TIP3   OH234137   3.321   5.203  14.639  0.5782  0.0710  0.4226
 4241TIP3    H134138   3.265   5.183  14.564 -0.1036  1.8246  0.4298
 4241TIP3    H234139   3.409   5.180  14.610  0.2970  0.5436 -0.8587
 4242TIP3   OH234140   3.717   4.317  15.125 -0.4979  0.3848 -0.6222
 4242TIP3    H134141   3.638   4.366  15.148 -1.9059 -0.1869 -3.6735
 4242TIP3    H234142   3.704   4.231  15.165 -0.5488  0.8508  0.3804
 4243TIP3   OH234143   5.296   3.547  12.748 -0.2632 -0.1312 -0.4175
 4243TIP3    H134144   5.367   3.501  12.702  0.1986 -0.3931  0.5218
 4243TIP3    H234145   5.225   3.483  12.751 -0.8444  0.4037 -2.0520
 4244TIP3   OH234146   3.376   0.136   4.777  0.4346 -0.2157  0.2756
 4244TIP3    H134147   3.372   0.230   4.760  1.5206 -0.4517 -1.5603
 4244TIP3    H234148   3.383   0.129   4.872 -1.7024  1.4422  0.6470
 4245TIP3   OH234149   1.457   4.692   5.152 -0.0171 -0.1205  0.5198
 4245TIP3    H134150   1.464   4.629   5.225  0.5620 -0.4396  0.1943
 4245TIP3    H234151   1.514   4.764   5.177  0.4421 -0.3829  0.2266
 4246TIP3   OH234152   4.527   3.345   6.715 -0.3507  0.1869 -0.1799
 4246TIP3    H134153   4.537   3.412   6.648  1.0573 -2.4524 -2.8927
 4246TIP3    H234154   4.612   3.344   6.760 -0.5187  0.4714  0.1497
 4247TIP3   OH234155   2.674   4.057  13.011  0.2036 -0.4689 -0.0364
 4247TIP3    H134156   2.597   4.110  13.031 -0.8927 -1.8777 -0.3542
 4247TIP3    H234157   2.744   4.096  13.063 -0.4682  1.4408 -0.4768
 4248TIP3   OH234158   2.797   0.595   0.963 -0.2759 -0.3656 -0.2864
 4248TIP3    H134159   2.771   0.652   0.891  0.5727 -0.1980 -0.4743
 4248TIP3    H234160   2.797   0.507   0.924 -2.9518 -0.7261  0.3661
 4249TIP3   OH234161   5.354   1.520   0.883 -0.5419 -0.1812 -0.0214
 4249TIP3    H134162   5.390   1.587   0.941  0.9391  0.2097 -1.3334
 4249TIP3    H234163   5.426   1.496   0.825 -1.8552 -0.7952 -1.4914
 4250TIP3   OH234164   4.489   0.242  14.953  0.6743  0.3680  0.2081
 4250TIP3    H134165   4.456   0.324  14.989 -2.1092 -0.1889 -0.7931
 4250TIP3    H234166   4.565   0.267  14.901  1.1942  1.9733  1.6905
 4251TIP3   OH234167   2.182   1.402   0.082  0.1187  0.5610  0.3037
 4251TIP3    H134168   2.091   1.422   0.104  0.4057  0.5713  1.5344
 4251TIP3    H234169   2.180   1.381  -0.012 -1.4014 -0.8963  0.6102
 4252TIP3   OH234170   0.324   6.074  14.941 -0.1139  0.5938  0.0148
 4252TIP3    H134171   0.337   6.019  14.863  0.8947  0.5469  0.2055
 4252TIP3    H234172   0.271   6.147  14.910 -2.2319 -0.8658 -0.0765
 4253TIP3   OH234173   2.704   2.708  12.165 -0.8915 -0.4615 -0.1985
 4253TIP3    H134174   2.716   2.655  12.243  0.0091  2.5242  1.8763
 4253TIP3    H234175   2.787   2.701  12.117 -0.3467 -0.0552  0.6663
 4254TIP3   OH234176   2.612   6.207  16.231 -0.0860  0.2038 -0.4453
 4254TIP3    H134177   2.700   6.170  16.227  0.4043  1.3688 -1.3498
 4254TIP3    H234178   2.610   6.255  16.314  0.4223  0.8039 -0.7680
 4255TIP3   OH234179   6.421   1.028   1.949 -0.2407  0.9005  0.2242
 4255TIP3    H134180   6.388   0.959   1.891  0.0779  0.8178  0.1387
 4255TIP3    H234181   6.463   1.091   1.890 -3.9581  3.2907 -0.2104
 4256TIP3   OH234182   6.768   5.428  12.595  0.1114 -0.1391  0.5076
 4256TIP3    H134183   6.804   5.443  12.508 -1.2953 -0.5984 -0.1632
 4256TIP3    H234184   6.766   5.515  12.635  3.2359 -0.2373  1.1254
 4257TIP3   OH234185   0.854   4.919   6.740 -0.2007  0.1204 -0.0690
 4257TIP3    H134186   0.786   4.932   6.675  0.7796  1.3812 -0.8885
 4257TIP3    H234187   0.823   4.846   6.793 -1.3449 -0.4951 -1.5181
 4258TIP3   OH234188   3.305   5.718   4.272 -0.7047  0.0011 -0.4130
 4258TIP3    H134189   3.341   5.723   4.183  0.1327  0.8676 -0.0383
 4258TIP3    H234190   3.365   5.769   4.325 -2.1265  0.9103  0.3752
 4259TIP3   OH234191   2.224   6.413  14.803 -0.1558  0.4811 -0.0231
 4259TIP3    H134192   2.151   6.357  14.831  0.6286 -0.4171  0.3089
 4259TIP3    H234193   2.273   6.358  14.742 -0.5174  1.5790 -1.3480
 4260TIP3   OH234194   4.275   1.546   5.399  0.5822  0.8116 -0.3425
 4260TIP3    H134195   4.360   1.589   5.399  0.0337  1.9369 -0.4871
 4260TIP3    H234196   4.233   1.575   5.317  0.3165 -0.2602 -0.6014
 4261TIP3   OH234197   0.855   5.840   4.527 -0.1605  0.4324  0.0427
 4261TIP3    H134198   0.863   5.806   4.616  2.1461 -0.5670 -0.4645
 4261TIP3    H234199   0.907   5.920   4.527 -0.5620  0.7020 -0.3086
 4262TIP3   OH234200   1.387   5.722   0.287  0.2258 -0.3409 -0.4523
 4262TIP3    H134201   1.468   5.743   0.332  0.3520 -1.6141 -0.0468
 4262TIP3    H234202   1.410   5.650   0.229 -0.0153  1.0458 -2.3501
 4263TIP3   OH234203   0.900   6.253  15.156 -0.2815  0.3413 -0.5187
 4263TIP3    H134204   0.830   6.291  15.209 -0.3810  1.5035 -1.4331
 4263TIP3    H234205   0.980   6.293  15.189 -0.1716 -0.1320 -0.2111
 4264TIP3   OH234206   0.807   2.838  15.731 -1.2031  0.0355  0.8026
 4264TIP3    H134207   0.738   2.900  15.753 -0.9227  0.2005  1.2312
 4264TIP3    H234208   0.877   2.892  15.695 -0.8406  0.0105  1.4556
 4265TIP3   OH234209   1.097   3.990  14.303  0.4555  0.3183  0.4509
 4265TIP3    H134210   1.120   4.082  14.294 -0.1327  0.4367  0.1009
 4265TIP3    H234211   1.136   3.963  14.386  1.3981  0.6420  0.1149
 4266TIP3   OH234212   5.201   4.627   6.005  0.5538  0.3071  0.1771
 4266TIP3    H134213   5.110   4.658   5.999  0.1742 -1.0759 -3.2726
 4266TIP3    H234214   5.246   4.673   5.934  1.7619 -1.3032 -0.1429
 4267TIP3   OH234215   1.270   4.489   0.413 -0.0478 -0.0553  0.0244
 4267TIP3    H134216   1.343   4.549   0.397 -0.9353  1.1662  0.4239
 4267TIP3    H234217   1.312   4.405   0.432  1.2452  0.5466 -0.0689
 4268TIP3   OH234218   6.641   4.717  14.226  0.6324 -0.3108  0.3480
 4268TIP3    H134219   6.670   4.632  14.192  0.7377  0.9065 -2.9603
 4268TIP3    H234220   6.579   4.749  14.161 -0.4218  1.5922  2.1943
 4269TIP3   OH234221   0.057   0.485  13.802  0.5968  0.4716  0.4791
 4269TIP3    H134222   0.143   0.455  13.832  1.6771  3.9173  1.3335
 4269TIP3    H234223   0.002   0.482  13.880  0.5125  0.1195  0.4064
 4270TIP3   OH234224   6.667   4.439   4.099 -0.0481  0.3633 -0.0217
 4270TIP3    H134225   6.644   4.475   4.014  1.4592  0.2026 -0.5301
 4270TIP3    H234226   6.692   4.348   4.081  0.1490  0.2844  0.6170
 4271TIP3   OH234227   1.233   1.950   5.703  0.9750 -0.3338 -0.9572
 4271TIP3    H134228   1.299   1.918   5.764 -0.0333 -1.0976 -0.2273
 4271TIP3    H234229   1.183   2.014   5.753 -0.6997 -1.9220 -0.4767
 4272TIP3   OH234230   1.860   6.718  13.593 -0.3689  0.2221 -0.2549
 4272TIP3    H134231   1.955   6.724  13.591 -0.4520  1.9486 -0.5102
 4272TIP3    H234232   1.837   6.733  13.685 -0.3499 -1.7520  0.1111
 4273TIP3   OH234233   3.068   6.328  12.454  0.3935 -0.3703 -0.4453
 4273TIP3    H134234   3.076   6.284  12.369  0.8827 -0.3185 -0.4330
 4273TIP3    H234235   3.059   6.420  12.432  1.8766 -0.1942 -0.4252
 4274TIP3   OH234236   3.312   1.651   4.433  0.1633 -0.3056  0.7213
 4274TIP3    H134237   3.321   1.746   4.435  2.9988 -0.2750 -2.8653
 4274TIP3    H234238   3.225   1.636   4.397  0.2570  1.0377 -0.1305
 4275TIP3   OH234239   6.629   0.501  15.060 -0.6321 -0.2886  0.5760
 4275TIP3    H134240   6.630   0.596  15.075  1.0692 -0.2275  0.2476
 4275TIP3    H234241   6.721   0.477  15.055 -1.0463 -1.7145 -0.9192
 4276TIP3   OH234242   2.428   4.964   2.545 -0.4908  0.5161 -0.3767
 4276TIP3    H134243   2.382   4.900   2.600 -1.5711  1.4172 -0.1750
 4276TIP3    H234244   2.398   4.944   2.456 -0.5570  0.5088 -0.3535
 4277TIP3   OH234245   2.199   3.323  13.833  0.8568 -0.7223 -0.3191
 4277TIP3    H134246   2.177   3.231  13.816  1.0074 -1.0292  1.0111
 4277TIP3    H234247   2.115   3.368  13.837  0.4405 -1.5306  2.7677
 4278TIP3   OH234248   6.333   1.682  15.624 -0.2287 -0.5170 -0.2622
 4278TIP3    H134249   6.293   1.768  15.618 -1.8523 -1.2951 -1.3883
 4278TIP3    H234250   6.395   1.678  15.552  1.8940  0.6383  1.3969
 4279TIP3   OH234251   0.549   3.366  11.683  0.0622  0.2532  0.0881
 4279TIP3    H134252   0.513   3.288  11.640 -0.2590  0.7256 -0.5157
 4279TIP3    H234253   0.472   3.413  11.716  0.2900  0.0207  0.9958
 4280TIP3   OH234254   3.026   5.432  15.910 -0.3575  0.3203 -0.4292
 4280TIP3    H134255   2.983   5.489  15.845  0.2090  0.4951 -0.6587
 4280TIP3    H234256   2.983   5.348  15.900 -1.0893  0.6571 -0.2095
 4281TIP3   OH234257   2.783   3.743   3.692 -0.4362 -0.3022  0.4316
 4281TIP3    H134258   2.694   3.772   3.675 -1.2868 -3.2014 -0.5651
 4281TIP3    H234259   2.774   3.672   3.756  1.3106  0.1499  1.2538
 4282TIP3   OH234260   1.710   2.901  12.222  0.6420  0.1529 -0.0725
 4282TIP3    H134261   1.719   2.978  12.278 -0.7536  1.2963 -1.2879
 4282TIP3    H234262   1.621   2.870  12.239  0.0198  0.7876 -1.8599
 4283TIP3   OH234263   5.724   2.205   5.592 -1.0545 -0.1419 -0.0143
 4283TIP3    H134264   5.789   2.160   5.647  0.7286  2.0360 -0.1785
 4283TIP3    H234265   5.736   2.166   5.505  0.3158  0.4308 -0.1132
 4284TIP3   OH234266   6.468   2.689   2.010 -0.2750 -0.0697  0.0584
 4284TIP3    H134267   6.378   2.674   2.037 -0.2080 -0.1530  0.2369
 4284TIP3    H234268   6.508   2.602   2.010 -0.5256 -0.2067 -1.2217
 4285TIP3   OH234269   2.752   4.222   1.164 -0.0520  0.3316 -0.2498
 4285TIP3    H134270   2.827   4.218   1.223  0.4947  1.6969 -0.8113
 4285TIP3    H234271   2.781   4.276   1.091 -1.9365  1.9994  0.1250
 4286TIP3   OH234272   0.720   2.474  17.273  0.7630  0.1427 -0.0980
 4286TIP3    H134273   0.642   2.426  17.245 -1.3081  1.7654  2.3776
 4286TIP3    H234274   0.746   2.432  17.355  0.6538  1.4001  0.6147
 4287TIP3   OH234275   0.222   1.919   5.423 -0.0124 -0.1101 -0.1421
 4287TIP3    H134276   0.246   1.929   5.515  0.6100 -1.9407 -0.0455
 4287TIP3    H234277   0.153   1.853   5.423 -0.7300  0.6125 -0.9280
 4288TIP3   OH234278   6.767   6.241   5.346  0.0118 -0.0230 -0.0144
 4288TIP3    H134279   6.826   6.193   5.289  2.2594  0.0778  2.0653
 4288TIP3    H234280   6.821   6.310   5.385 -1.9424  1.2298  0.6514
 4289TIP3   OH234281   3.320   6.092  14.211  0.0568  0.4454  0.2048
 4289TIP3    H134282   3.412   6.069  14.226  0.1621  0.3774 -0.5000
 4289TIP3    H234283   3.322   6.185  14.190  0.0690  0.2698 -0.6140
 4290TIP3   OH234284   3.523   5.955   1.987  0.0408  0.5371 -0.5669
 4290TIP3    H134285   3.536   5.958   1.892 -0.5533 -1.0048 -0.7276
 4290TIP3    H234286   3.605   5.987   2.024  0.2018  1.3595 -1.5992
 4291TIP3   OH234287   1.717   5.787  16.760  0.0088 -0.6606 -0.3516
 4291TIP3    H134288   1.748   5.720  16.699  0.6237 -0.2251 -0.5265
 4291TIP3    H234289   1.626   5.763  16.779 -0.0581 -1.0208 -1.1241
 4292TIP3   OH234290   5.629   3.728  16.229 -0.7211 -0.5869 -0.6218
 4292TIP3    H134291   5.624   3.652  16.288 -0.0423  0.5531  0.9795
 4292TIP3    H234292   5.698   3.783  16.267 -0.9808  0.6924 -1.9296
 4293TIP3   OH234293   1.580   2.328   2.924  0.2348 -0.0927 -0.2640
 4293TIP3    H134294   1.617   2.246   2.955 -0.2026 -0.1880  0.0091
 4293TIP3    H234295   1.644   2.361   2.861 -0.3305 -1.4416 -1.6021
 4294TIP3   OH234296   2.630   6.539  10.841  0.3479 -0.4057  0.0895
 4294TIP3    H134297   2.549   6.588  10.824 -0.0245 -0.3091  1.8845
 4294TIP3    H234298   2.695   6.606  10.861 -0.5466 -0.4489  4.1817
 4295TIP3   OH234299   0.631   0.579  12.151 -0.1923  0.0911  0.5021
 4295TIP3    H134300   0.618   0.533  12.068  1.5841 -0.5254  0.5217
 4295TIP3    H234301   0.543   0.584  12.189 -0.9822  0.0051 -1.1938
 4296TIP3   OH234302   4.831   1.488  11.850  0.0116  0.1406  0.1450
 4296TIP3    H134303   4.867   1.575  11.832 -0.8326  0.8317  1.6392
 4296TIP3    H234304   4.766   1.502  11.919 -0.0248 -1.7139  0.5477
 4297TIP3   OH234305   4.688   6.109   0.989  0.0791  0.1403 -0.1132
 4297TIP3    H134306   4.605   6.068   0.966 -0.3120  0.8923 -0.0668
 4297TIP3    H234307   4.755   6.050   0.953 -0.3830 -1.8664  2.0895
 4298TIP3   OH234308   4.767   2.640  13.269  0.5182  0.1136  0.1046
 4298TIP3    H134309   4.741   2.646  13.361  1.3421 -2.0239  0.5218
 4298TIP3    H234310   4.691   2.673  13.221 -1.1036 -1.4774  1.4433
 4299TIP3   OH234311   3.122   1.593   5.641  0.1878 -0.0189  0.3295
 4299TIP3    H134312   3.201   1.582   5.588 -0.0998  0.7249 -0.2720
 4299TIP3    H234313   3.067   1.519   5.615 -0.0027  0.4046 -0.5392
 4300TIP3   OH234314   2.299   3.045   1.098 -0.8508  0.3854 -0.3037
 4300TIP3    H134315   2.336   2.962   1.128  2.2281  0.4246 -3.3613
 4300TIP3    H234316   2.220   3.057   1.151  0.5274 -2.6146  2.8067
 4301TIP3   OH234317   4.183   6.050  15.256  0.1545 -0.8260 -0.0379
 4301TIP3    H134318   4.189   5.972  15.200 -2.9659  0.4799 -2.4901
 4301TIP3    H234319   4.266   6.095  15.243  2.1460 -3.6346  1.5923
 4302TIP3   OH234320   6.687   3.792  10.806 -0.0297  0.0211  0.2515
 4302TIP3    H134321   6.714   3.701  10.796  1.3985  0.4034  0.3413
 4302TIP3    H234322   6.731   3.822  10.886  2.1518  1.6373 -1.4179
 4303TIP3   OH234323   2.726   5.032   5.527 -0.4252  0.0764  0.5637
 4303TIP3    H134324   2.801   4.979   5.556  0.4192  1.2489  0.5997
 4303TIP3    H234325   2.650   4.975   5.539  0.2578 -0.5495  2.1930
 4304TIP3   OH234326   4.977   0.295  14.096  0.2416  0.0622  0.0559
 4304TIP3    H134327   4.922   0.348  14.154  2.2367 -0.0053  2.1367
 4304TIP3    H234328   5.057   0.281  14.146  1.4846 -1.2746 -2.1882
 4305TIP3   OH234329   0.018   1.694  15.478 -0.4522 -0.2933 -0.0690
 4305TIP3    H134330   0.114   1.699  15.478 -0.4921  0.6775  0.2137
 4305TIP3    H234331  -0.010   1.774  15.522 -1.4215 -0.1357 -0.9474
 4306TIP3   OH234332   0.643   5.327   1.040  0.6230  0.5724 -0.3074
 4306TIP3    H134333   0.686   5.283   0.967  0.7296  1.8205 -1.0126
 4306TIP3    H234334   0.714   5.352   1.099  0.5592 -0.2015  0.1118
 4307TIP3   OH234335   4.403   1.260   0.562 -0.0395 -0.4467 -0.5227
 4307TIP3    H134336   4.462   1.186   0.551 -0.0588 -0.5100 -0.2060
 4307TIP3    H234337   4.374   1.255   0.653  1.4356  1.0224  0.0860
 4308TIP3   OH234338   1.653   2.954   4.665 -0.2915  0.8654 -0.1882
 4308TIP3    H134339   1.732   2.931   4.713 -0.5729  0.0345 -0.1114
 4308TIP3    H234340   1.581   2.933   4.724 -0.5700  1.9683 -0.1128
 4309TIP3   OH234341   6.317   0.379   1.406 -0.9144  0.1012  0.4337
 4309TIP3    H134342   6.316   0.440   1.481 -0.3991  0.8210 -0.1298
 4309TIP3    H234343   6.330   0.436   1.330 -1.0012 -0.6694 -0.1594
 4310TIP3   OH234344   4.958   3.875   1.539  0.2757 -0.4636 -0.2258
 4310TIP3    H134345   4.867   3.855   1.514  0.1848 -1.6087  0.9199
 4310TIP3    H234346   5.005   3.878   1.456 -0.2897 -2.7121 -0.7037
 4311TIP3   OH234347   3.864   5.332  13.003 -0.0461  0.3728  0.3006
 4311TIP3    H134348   3.863   5.318  13.097 -0.4678  0.5155  0.3184
 4311TIP3    H234349   3.885   5.425  12.993 -0.8884  0.5666  0.2799
 4312TIP3   OH234350   4.471   2.589   1.420 -0.5828  0.2819  0.0911
 4312TIP3    H134351   4.508   2.563   1.505 -0.0670 -0.4632 -0.3524
 4312TIP3    H234352   4.548   2.599   1.364 -1.0379 -1.5239 -0.9166
 4313TIP3   OH234353   6.392   0.157  14.675  0.3478  0.1324 -0.0354
 4313TIP3    H134354   6.422   0.156  14.766  1.5324  0.8159 -0.3873
 4313TIP3    H234355   6.308   0.202  14.678 -0.3172 -1.1347  0.9024
 4314TIP3   OH234356   1.086   3.969   5.337  0.0952 -0.4299  0.2142
 4314TIP3    H134357   1.146   3.973   5.262  0.9880  0.7913  0.9428
 4314TIP3    H234358   1.000   3.987   5.300  0.4781 -0.1563 -0.5693
 4315TIP3   OH234359   2.337   3.959  15.038  0.4523 -0.3615 -0.1524
 4315TIP3    H134360   2.425   3.941  15.007  1.7307  1.1842  2.2639
 4315TIP3    H234361   2.336   4.053  15.054 -0.6316 -0.7400  2.6018
 4316TIP3   OH234362   1.492   6.218  16.901 -0.1029  0.5236 -0.3603
 4316TIP3    H134363   1.402   6.250  16.902  0.1134  1.1768 -0.8627
 4316TIP3    H234364   1.497   6.158  16.975 -0.9077  0.6003 -0.2340
 4317TIP3   OH234365   0.932   3.027   5.095  1.4371  0.1299  0.1985
 4317TIP3    H134366   0.960   3.045   5.184  1.7435 -0.7025  0.2791
 4317TIP3    H234367   0.878   2.948   5.102  0.1810  0.9195 -0.1510
 4318TIP3   OH234368   5.675   2.701   3.777 -0.2660  0.3887  0.5215
 4318TIP3    H134369   5.704   2.610   3.775 -1.8022 -0.1502 -1.9004
 4318TIP3    H234370   5.746   2.751   3.736  0.1634  0.1483  0.9689
 4319TIP3   OH234371   5.610   1.836  13.067  0.1005 -0.3108  0.0269
 4319TIP3    H134372   5.565   1.757  13.037  1.3792 -1.2121  0.3812
 4319TIP3    H234373   5.652   1.872  12.989 -1.1770  0.5232 -0.3015
 4320TIP3   OH234374   1.680   2.312  13.173 -0.0703  0.3756 -0.4781
 4320TIP3    H134375   1.623   2.272  13.107  0.3737 -1.3350  0.1339
 4320TIP3    H234376   1.739   2.368  13.122 -1.3147  1.0380 -1.2598
 4321TIP3   OH234377   6.460   6.339   5.935  0.3084 -0.0381 -0.1411
 4321TIP3    H134378   6.459   6.340   5.840 -2.3786  0.7182 -0.1886
 4321TIP3    H234379   6.414   6.419   5.961 -0.2059 -0.8837  1.7560
 4322TIP3   OH234380   3.119   6.512   1.649  0.3243  0.7959 -0.9800
 4322TIP3    H134381   3.170   6.454   1.705 -1.8054 -1.1264 -0.8765
 4322TIP3    H234382   3.074   6.571   1.710 -0.1193  0.2910 -0.8066
 4323TIP3   OH234383   5.503   4.932   5.049  0.0161 -0.0008 -0.7080
 4323TIP3    H134384   5.538   5.020   5.065 -0.6346  0.0488  0.5720
 4323TIP3    H234385   5.558   4.874   5.103 -1.3541 -0.0040  0.7500
 4324TIP3   OH234386   5.767   5.968  12.346  0.1716 -0.5318 -0.4408
 4324TIP3    H134387   5.690   5.913  12.330 -0.9894  0.2516  1.9295
 4324TIP3    H234388   5.788   6.007  12.261 -1.7876 -1.0953 -1.2326
 4325TIP3   OH234389   2.659   5.523   5.501 -0.3334 -0.0905  0.4271
 4325TIP3    H134390   2.598   5.556   5.568  1.0079 -1.7573  2.6213
 4325TIP3    H234391   2.741   5.569   5.519  0.2676 -1.1658  0.5008
 4326TIP3   OH234392   2.987   6.631  15.521  0.3986  0.6496  0.2166
 4326TIP3    H134393   3.073   6.665  15.495  0.5031  0.6113  0.5049
 4326TIP3    H234394   2.924   6.688  15.477  0.5502 -0.2528 -1.2530
 4327TIP3   OH234395   4.165   1.176  14.943 -1.3117 -0.2678  0.0680
 4327TIP3    H134396   4.178   1.250  14.884  0.4496  0.9407  1.8459
 4327TIP3    H234397   4.093   1.126  14.904 -0.1463  0.3367 -3.1451
 4328TIP3   OH234398   0.303   3.382  16.435 -0.6152  0.4473 -0.1408
 4328TIP3    H134399   0.340   3.469  16.427  0.0838  0.0099 -1.8969
 4328TIP3    H234400   0.220   3.396  16.483 -0.8813  2.1590 -1.0327
 4329TIP3   OH234401   1.984   6.696   0.583  0.7019 -0.1454  0.0595
 4329TIP3    H134402   2.063   6.688   0.528  0.7905  2.2544 -0.2878
 4329TIP3    H234403   2.018   6.723   0.669  0.3060  0.5811 -0.0042
 4330TIP3   OH234404   1.603   1.434  16.286 -0.7375 -0.1695 -0.9796
 4330TIP3    H134405   1.571   1.352  16.324  1.2784 -1.1320 -1.2267
 4330TIP3    H234406   1.557   1.503  16.335 -0.5968 -1.4017  0.9935
 4331TIP3   OH234407   2.882   2.252   5.058 -0.6983  0.1927 -0.2249
 4331TIP3    H134408   2.844   2.338   5.040 -0.5753  0.2437 -0.2473
 4331TIP3    H234409   2.926   2.262   5.142  0.5945  0.5917 -0.9060
 4332TIP3   OH234410   4.687   1.614   1.265  0.4186 -0.7918 -0.0343
 4332TIP3    H134411   4.752   1.634   1.332  2.2343 -1.0384 -1.6391
 4332TIP3    H234412   4.678   1.519   1.268 -0.8431 -0.6748  0.9921
 4333TIP3   OH234413   6.579   2.935  13.444  0.5208 -0.0021 -0.2092
 4333TIP3    H134414   6.587   2.936  13.539  0.1331 -1.7974 -0.1208
 4333TIP3    H234415   6.502   2.988  13.425  1.0232  0.9753  0.4052
 4334TIP3   OH234416   0.544   0.847   2.327 -0.1399 -0.1973 -0.0881
 4334TIP3    H134417   0.539   0.785   2.255  0.1480  0.1369 -0.3964
 4334TIP3    H234418   0.580   0.927   2.289 -0.5228  0.1692  0.2995
 4335TIP3   OH234419   2.219   2.069  12.854 -0.3285  0.3258  0.2006
 4335TIP3    H134420   2.196   2.035  12.767 -0.2216  1.2391 -0.1942
 4335TIP3    H234421   2.284   2.137  12.837  0.3651 -0.0940  1.0703
 4336TIP3   OH234422   3.196   2.496   2.196 -0.3531 -0.1088 -0.0222
 4336TIP3    H134423   3.155   2.533   2.118 -2.8837 -0.5417  0.9903
 4336TIP3    H234424   3.276   2.548   2.208 -0.2131  0.3578 -2.5052
 4337TIP3   OH234425   5.779   5.546   3.201 -0.5327 -0.6042  0.0048
 4337TIP3    H134426   5.763   5.547   3.106  0.8836 -0.3391 -0.2583
 4337TIP3    H234427   5.824   5.463   3.217  2.6545  0.9400 -0.2300
 4338TIP3   OH234428   2.680   1.995   4.450  0.4252  0.1980  0.4336
 4338TIP3    H134429   2.669   2.032   4.538  0.0163 -1.3817  1.0932
 4338TIP3    H234430   2.775   1.996   4.436  0.5043  0.3861  0.9376
 4339TIP3   OH234431   5.355   5.535   3.623  0.4352 -0.3962  0.0400
 4339TIP3    H134432   5.299   5.546   3.545  1.3131  2.9696 -0.2727
 4339TIP3    H234433   5.294   5.508   3.692 -0.9055 -0.5246 -1.1315
 4340TIP3   OH234434   0.295   5.087   2.363  0.2121  0.0203 -0.3015
 4340TIP3    H134435   0.362   5.032   2.320 -0.0142 -0.9590  0.5480
 4340TIP3    H234436   0.344   5.134   2.431  0.0195 -0.9413  0.5370
 4341TIP3   OH234437   1.729   6.571  17.224 -0.0795 -0.2231 -0.2295
 4341TIP3    H134438   1.748   6.665  17.232  2.1973 -0.6478  0.2586
 4341TIP3    H234439   1.665   6.565  17.153 -1.0335  1.7497  0.3780
 4342TIP3   OH234440   0.846   5.107  13.965 -0.7563 -0.0808 -0.1098
 4342TIP3    H134441   0.777   5.161  13.924 -1.4197 -0.7082  0.1535
 4342TIP3    H234442   0.799   5.032  14.001  0.1798 -0.9252 -0.6141
 4343TIP3   OH234443   5.694   6.580  14.593 -0.1399  0.0614  0.0265
 4343TIP3    H134444   5.653   6.494  14.609  1.0185 -0.3460  0.9197
 4343TIP3    H234445   5.777   6.576  14.640  0.8339  0.9504 -1.5422
 4344TIP3   OH234446   5.869   3.988  12.663  0.2595  0.2181 -0.0243
 4344TIP3    H134447   5.811   3.926  12.619  0.3289  0.3782 -0.3453
 4344TIP3    H234448   5.919   3.935  12.726  1.1750 -0.2751 -1.1308
 4345TIP3   OH234449   2.252   4.989  13.746  0.1821  0.2607 -0.0490
 4345TIP3    H134450   2.199   5.067  13.758  0.0179  0.6014 -2.4506
 4345TIP3    H234451   2.194   4.916  13.767 -0.1474  0.7196  0.6704
 4346TIP3   OH234452   2.440   0.897   3.667  0.8389 -0.0333  0.7491
 4346TIP3    H134453   2.518   0.843   3.656 -0.0029 -1.0064 -0.7286
 4346TIP3    H234454   2.383   0.846   3.724 -0.3302 -1.2047 -1.3634
 4347TIP3   OH234455   3.669   5.947   4.035  0.6321  0.0182  0.1574
 4347TIP3    H134456   3.655   6.039   4.059  1.1382 -0.2181  1.4120
 4347TIP3    H234457   3.718   5.910   4.108  0.6169 -1.2105 -0.4290
 4348TIP3   OH234458   3.758   3.186  13.214  0.4604  0.1251  0.0133
 4348TIP3    H134459   3.780   3.196  13.306  0.5349  3.2036 -0.2426
 4348TIP3    H234460   3.839   3.158  13.172  0.5164 -0.9358  0.8067
 4349TIP3   OH234461   4.383   6.220   1.292  0.1378  0.8996  0.0026
 4349TIP3    H134462   4.325   6.193   1.363  1.0745 -1.0122  0.0815
 4349TIP3    H234463   4.384   6.316   1.298 -0.9787  0.8495  1.6059
 4350TIP3   OH234464   5.523   6.285  11.941 -0.1378  0.0050 -0.3581
 4350TIP3    H134465   5.565   6.251  12.020  3.6409 -0.6794 -2.4173
 4350TIP3    H234466   5.538   6.380  11.945  0.7623 -0.1159 -0.5623
 4351TIP3   OH234467   0.567   4.281  12.187 -0.1225  0.6689  0.1830
 4351TIP3    H134468   0.624   4.211  12.156  0.4864  0.1785  2.2583
 4351TIP3    H234469   0.495   4.237  12.231  0.0907  1.3081  1.2192
 4352TIP3   OH234470   3.658   2.185  14.595 -0.1311  0.2287 -0.4050
 4352TIP3    H134471   3.723   2.115  14.601  2.1234  2.1893 -0.4753
 4352TIP3    H234472   3.610   2.181  14.677 -0.2442 -1.5218 -0.5244
 4353TIP3   OH234473   1.872   4.814  14.523  0.6146 -0.4966  0.3336
 4353TIP3    H134474   1.868   4.792  14.616 -0.6719  1.9835  0.9348
 4353TIP3    H234475   1.965   4.809  14.501  1.2634  1.1528  2.3913
 4354TIP3   OH234476   2.223   0.133   0.662 -0.5497 -0.7119 -0.3552
 4354TIP3    H134477   2.224   0.161   0.570 -1.5480 -0.4642 -0.3011
 4354TIP3    H234478   2.305   0.085   0.673  0.0772  0.1408 -1.1021
 4355TIP3   OH234479   0.119   1.275  13.150  0.3085  0.0264 -0.3880
 4355TIP3    H134480   0.025   1.282  13.135  0.6861  3.0366 -2.0092
 4355TIP3    H234481   0.146   1.201  13.096 -0.7994  0.7150 -1.9720
 4356TIP3   OH234482   2.586   2.359   4.392 -0.3277 -0.4755 -0.3669
 4356TIP3    H134483   2.678   2.387   4.397 -0.4828 -0.1942  1.7810
 4356TIP3    H234484   2.590   2.266   4.371  0.4406 -0.4430 -0.4024
 4357TIP3   OH234485   6.764   3.030  15.015 -0.1062 -0.2439  0.6929
 4357TIP3    H134486   6.836   2.998  14.962 -0.0083  0.1192  0.6010
 4357TIP3    H234487   6.711   3.083  14.955 -1.0149 -1.3237  0.5037
 4358TIP3   OH234488   0.959   3.577  12.057 -0.3465 -0.1193 -0.1506
 4358TIP3    H134489   1.028   3.515  12.036  0.2147 -0.0474  1.3156
 4358TIP3    H234490   0.881   3.542  12.015  0.0486 -1.5926  0.2862
 4359TIP3   OH234491   0.795   6.025   4.078  0.0330  0.1750  0.0015
 4359TIP3    H134492   0.738   5.967   4.128 -1.3590  0.5185 -1.1123
 4359TIP3    H234493   0.748   6.039   3.995 -0.4209  3.9613  0.7193
 4360TIP3   OH234494   1.723   4.777   5.400  0.1401 -0.3894  0.1673
 4360TIP3    H134495   1.725   4.794   5.306 -0.8194  2.7462  0.5817
 4360TIP3    H234496   1.672   4.696   5.409 -0.9794  0.0076 -1.9447
 4361TIP3   OH234497   6.353   6.516  11.875 -0.1230 -0.0874  0.4943
 4361TIP3    H134498   6.348   6.607  11.845 -1.8703 -0.0293  0.8166
 4361TIP3    H234499   6.379   6.523  11.967  0.2184  0.0622  0.3854
 4362TIP3   OH234500   3.897   3.230  14.668 -0.8138 -0.6219  0.4495
 4362TIP3    H134501   3.827   3.292  14.650 -0.0683  0.2416  0.4493
 4362TIP3    H234502   3.959   3.279  14.722  1.8042  0.0837 -2.8297
 4363TIP3   OH234503   3.706   0.410  12.351  0.1762 -0.0459 -0.2610
 4363TIP3    H134504   3.694   0.374  12.439  1.1661 -0.7578 -0.4038
 4363TIP3    H234505   3.733   0.336  12.298  0.4352  0.5493 -0.9795
 4364TIP3   OH234506   3.807   6.471  16.568 -0.3557 -0.4485 -0.0128
 4364TIP3    H134507   3.881   6.416  16.545 -0.2033 -0.5780  0.7765
 4364TIP3    H234508   3.749   6.467  16.492  1.2933  1.1521 -1.4566
 4365TIP3   OH234509   5.515   6.065   3.229 -0.4015  0.3241  0.7435
 4365TIP3    H134510   5.426   6.071   3.194  0.4458  2.6606 -1.3908
 4365TIP3    H234511   5.549   5.983   3.194 -1.3403 -0.0089  0.5828
 4366TIP3   OH234512   3.835   2.169   5.212 -0.3292 -0.4180  0.1215
 4366TIP3    H134513   3.772   2.176   5.283 -0.2212 -0.9364  0.2744
 4366TIP3    H234514   3.820   2.082   5.175 -0.3985 -0.1463 -0.5068
 4367TIP3   OH234515   5.636   3.994  15.163  0.1361  0.0532  0.2883
 4367TIP3    H134516   5.672   4.009  15.250 -0.0093  0.8167  0.2243
 4367TIP3    H234517   5.568   3.928  15.176  0.3655 -0.1072  0.6901
 4368TIP3   OH234518   3.632   0.885   3.576  0.8045 -0.1744 -0.1082
 4368TIP3    H134519   3.609   0.792   3.563  1.6968 -0.3302 -0.6212
 4368TIP3    H234520   3.675   0.910   3.495  4.7813 -0.6129  1.6575
 4369TIP3   OH234521   6.620   6.135   5.600 -0.0529 -0.1719  0.1466
 4369TIP3    H134522   6.689   6.157   5.662  1.5268 -0.7798 -1.3305
 4369TIP3    H234523   6.663   6.136   5.514 -1.8866 -0.5405 -0.8250
 4370TIP3   OH234524   3.624   4.062  14.415  0.5072  0.0854  0.3243
 4370TIP3    H134525   3.562   4.114  14.466 -1.6327 -1.6229 -0.4134
 4370TIP3    H234526   3.635   4.111  14.333  0.8978  0.8817  0.8495
 4371TIP3   OH234527   0.273   2.144   6.246  0.1908  0.4177 -0.0312
 4371TIP3    H134528   0.251   2.051   6.234  0.5928  0.3791 -0.5226
 4371TIP3    H234529   0.210   2.176   6.310  0.2854 -0.2927  0.4295
 4372TIP3   OH234530   2.836   2.660   2.970  0.0585 -0.2299  0.2486
 4372TIP3    H134531   2.813   2.654   3.063 -0.5254  0.5628  0.1655
 4372TIP3    H234532   2.773   2.602   2.926 -0.4259  0.2928  0.2382
 4373TIP3   OH234533   6.761   1.816   2.044 -0.0227  0.0824  0.0001
 4373TIP3    H134534   6.818   1.854   1.978  2.5449 -2.3238  0.6437
 4373TIP3    H234535   6.795   1.849   2.127 -1.0936  0.4493  0.3111
 4374TIP3   OH234536   5.656   3.812  12.034 -0.3101  0.1439 -0.3094
 4374TIP3    H134537   5.745   3.800  12.001  0.6012 -0.1235  2.0185
 4374TIP3    H234538   5.612   3.730  12.014  1.1067 -1.1863  1.5992
 4375TIP3   OH234539   5.549   1.053   2.843 -0.4193  0.0968  0.1022
 4375TIP3    H134540   5.520   0.977   2.793 -2.2133 -0.2888  1.6433
 4375TIP3    H234541   5.608   1.100   2.783  0.3276 -2.1994 -1.0548
 4376TIP3   OH234542   5.394   0.929   0.587 -0.4175  0.1728  0.3397
 4376TIP3    H134543   5.351   1.011   0.613 -1.0083  0.1021 -0.3732
 4376TIP3    H234544   5.356   0.862   0.643  0.5875  0.4695  1.4290
 4377TIP3   OH234545   0.044   0.446   4.365 -0.5109 -0.0162 -0.4180
 4377TIP3    H134546  -0.050   0.454   4.378 -0.8962 -0.2362 -2.6884
 4377TIP3    H234547   0.066   0.517   4.305  0.6586 -0.3705 -0.4321
 4378TIP3   OH234548   3.700   1.737   2.428  0.2898  0.5996 -0.1212
 4378TIP3    H134549   3.622   1.747   2.373 -0.9230 -2.4038  0.8508
 4378TIP3    H234550   3.769   1.714   2.366 -0.8776 -1.9663 -0.5901
 4379TIP3   OH234551   0.050   5.417   3.789  0.0941 -0.8246 -0.2446
 4379TIP3    H134552   0.046   5.436   3.882 -0.1341 -0.0730 -0.4021
 4379TIP3    H234553   0.142   5.401   3.771 -0.0006 -2.1316  0.3230
 4380TIP3   OH234554   5.915   1.050   3.065  0.2607 -0.2902 -0.1855
 4380TIP3    H134555   6.000   1.072   3.101 -0.2815  1.4294  0.1163
 4380TIP3    H234556   5.921   1.072   2.972  0.2624 -0.5343 -0.2442
 4381TIP3   OH234557   0.150   6.766  16.562  0.1337 -0.3310 -0.0163
 4381TIP3    H134558   0.196   6.817  16.495 -0.4493  2.4542  1.5780
 4381TIP3    H234559   0.108   6.831  16.618 -0.3178 -2.5745  2.4497
 4382TIP3   OH234560   0.003   5.516  16.435  0.0959  0.7861 -0.7561
 4382TIP3    H134561   0.063   5.531  16.363  0.6282 -0.4481 -0.5907
 4382TIP3    H234562   0.036   5.437  16.478 -1.1296  0.5969 -0.1230
 4383TIP3   OH234563   4.277   1.856   1.728 -0.1852 -0.2258  0.0444
 4383TIP3    H134564   4.246   1.925   1.785  2.5557  0.3753  0.9680
 4383TIP3    H234565   4.304   1.901   1.648 -2.8050 -0.9100 -1.3343
 4384TIP3   OH234566   0.707   3.468   3.236  0.6361  0.1738 -0.6444
 4384TIP3    H134567   0.675   3.457   3.147 -0.6719  1.2946 -0.3379
 4384TIP3    H234568   0.677   3.389   3.282  0.6443 -0.0370 -0.9976
 4385TIP3   OH234569   2.317   1.859   4.533 -0.4066 -0.0050  0.1421
 4385TIP3    H134570   2.300   1.803   4.608 -1.8677 -1.0294 -0.9165
 4385TIP3    H234571   2.238   1.855   4.481 -0.7055  3.2901  0.1196
 4386TIP3   OH234572   2.945   0.260  13.463  0.0376 -0.1398 -0.0220
 4386TIP3    H134573   2.888   0.238  13.537 -1.1157 -1.6422 -1.2619
 4386TIP3    H234574   3.011   0.319  13.499 -2.3022  1.7385  1.5272
 4387TIP3   OH234575   2.809   1.932   1.329 -0.1242  0.7323  0.0510
 4387TIP3    H134576   2.736   1.881   1.364 -1.5308  1.6892 -1.3643
 4387TIP3    H234577   2.865   1.949   1.405 -0.3866 -1.5514  0.8434
 4388TIP3   OH234578   6.401   0.116   4.532 -0.3679  0.1152  0.3366
 4388TIP3    H134579   6.461   0.080   4.467 -0.2163  0.4282  0.3022
 4388TIP3    H234580   6.458   0.146   4.603 -0.3967  1.3342 -0.1356
 4389TIP3   OH234581   4.447   1.256  14.985  0.2523  0.0759  0.6318
 4389TIP3    H134582   4.360   1.274  15.022  0.3854 -0.1697  1.0708
 4389TIP3    H234583   4.429   1.199  14.910 -0.1026  1.3741 -0.3127
 4390TIP3   OH234584   5.021   5.804  14.487  0.2599 -0.2618  0.1776
 4390TIP3    H134585   5.056   5.867  14.424  1.7701 -0.4955  0.7463
 4390TIP3    H234586   4.932   5.788  14.457  0.6203  0.3650 -1.3414
 4391TIP3   OH234587   0.701   2.467  11.366  0.2209 -0.0744 -0.2592
 4391TIP3    H134588   0.696   2.387  11.314 -0.3836 -0.5272  0.4779
 4391TIP3    H234589   0.760   2.444  11.438 -0.5360 -0.0952  0.3589
 4392TIP3   OH234590   0.341   1.796  11.491 -0.1200  0.1440  0.9612
 4392TIP3    H134591   0.253   1.803  11.529 -1.1973  0.5178 -1.3899
 4392TIP3    H234592   0.350   1.703  11.468 -0.3812  0.3070  0.1789
 4393TIP3   OH234593   3.720   1.591   5.405  0.1243  0.0019  0.4583
 4393TIP3    H134594   3.755   1.503   5.410 -0.7265 -0.4293 -0.6480
 4393TIP3    H234595   3.769   1.641   5.470  2.4477 -0.6528 -0.7115
 4394TIP3   OH234596   5.331   5.709  11.942 -0.4681  0.3734 -0.0479
 4394TIP3    H134597   5.380   5.684  11.863  0.0502 -1.5025  0.8108
 4394TIP3    H234598   5.365   5.795  11.965  0.7136  0.1447 -0.8501
 4395TIP3   OH234599   0.382   2.277   4.680  0.1398 -0.1859 -0.1253
 4395TIP3    H134600   0.440   2.302   4.752 -1.1589  1.0056  0.5542
 4395TIP3    H234601   0.336   2.199   4.711 -0.2792  0.2166  0.2902
 4396TIP3   OH234602   0.265   4.211   3.681  0.2548 -0.2693 -0.0570
 4396TIP3    H134603   0.296   4.208   3.771  0.8602 -1.6613 -0.2884
 4396TIP3    H234604   0.170   4.215   3.688  0.2357 -1.6746  0.6487
 4397TIP3   OH234605   5.798   6.385  15.462 -0.0007 -0.3564  0.8735
 4397TIP3    H134606   5.847   6.352  15.387  0.2772  0.2049  0.8038
 4397TIP3    H234607   5.767   6.307  15.507 -1.2317 -0.7143 -0.5028
 4398TIP3   OH234608   1.028   1.112  13.861 -0.2541  0.0987  0.5757
 4398TIP3    H134609   1.099   1.160  13.903  1.3450 -1.9620  0.3644
 4398TIP3    H234610   0.967   1.093  13.932 -0.6204  1.8390  0.7688
 4399TIP3   OH234611   6.341   3.417  11.408 -0.1195  0.1445 -0.2673
 4399TIP3    H134612   6.416   3.425  11.467  0.1108  1.8262 -0.7312
 4399TIP3    H234613   6.266   3.448  11.460  0.0586  1.4824 -0.7615
 4400TIP3   OH234614   3.917   3.045  13.784  0.0513  0.2101  0.3742
 4400TIP3    H134615   3.871   2.966  13.814  1.2506 -0.9714 -0.7465
 4400TIP3    H234616   3.980   3.063  13.854  3.2267 -2.8613 -1.3210
 4401TIP3   OH234617   2.495   5.335  13.190 -0.1264  0.2339 -0.4072
 4401TIP3    H134618   2.432   5.361  13.123 -0.0104 -0.5179 -0.8234
 4401TIP3    H234619   2.492   5.240  13.190  1.1673  0.1681 -0.6066
 4402TIP3   OH234620   6.172   2.395  13.315 -0.0887 -0.4933 -0.8372
 4402TIP3    H134621   6.153   2.399  13.221  1.3939 -2.3122 -1.2869
 4402TIP3    H234622   6.232   2.321  13.324  0.7242  0.3398  1.4021
 4403TIP3   OH234623   2.591   0.518   4.765  0.2641 -0.2901  0.0513
 4403TIP3    H134624   2.548   0.489   4.684  0.3570 -0.5110  0.0828
 4403TIP3    H234625   2.570   0.450   4.829  1.0874 -0.6570 -0.0625
 4404TIP3   OH234626   4.648   3.850  10.411 -0.2337  0.2497  0.1690
 4404TIP3    H134627   4.641   3.755  10.399 -1.7811  0.3525  0.0475
 4404TIP3    H234628   4.558   3.879  10.421  0.3478  1.3919  2.8662
 4405TIP3   OH234629   5.706   6.639   4.148 -0.3799 -0.4609 -0.4227
 4405TIP3    H134630   5.677   6.587   4.072 -1.3915 -1.2357  0.4723
 4405TIP3    H234631   5.691   6.583   4.223  1.4904 -0.0573  0.3086
 4406TIP3   OH234632   3.655   1.409  11.394  0.1562 -0.9354 -0.0681
 4406TIP3    H134633   3.731   1.447  11.350 -1.0784  0.8946 -0.7344
 4406TIP3    H234634   3.602   1.373  11.323 -0.2891 -0.9388  0.2657
 4407TIP3   OH234635   1.030   4.909  16.664 -0.6256  0.1905 -0.6938
 4407TIP3    H134636   1.024   4.921  16.759 -0.2142 -0.2359 -0.6128
 4407TIP3    H234637   1.049   4.997  16.630 -2.4214  0.6807 -0.5379
 4408TIP3   OH234638   4.277   5.903  11.290  0.5014 -0.5824  0.3192
 4408TIP3    H134639   4.250   5.977  11.345  0.5734 -0.6699  0.4740
 4408TIP3    H234640   4.342   5.858  11.342  0.6052 -0.6400  0.1393
 4409TIP3   OH234641   5.624   4.654  12.320 -0.7407  0.3914  0.2188
 4409TIP3    H134642   5.530   4.640  12.311 -0.4180 -1.6889 -0.5971
 4409TIP3    H234643   5.640   4.646  12.414 -1.4590  1.6357  0.4734
 4410TIP3   OH234644   0.656   1.497  15.855 -0.1622 -0.2803  0.3402
 4410TIP3    H134645   0.668   1.550  15.776  2.1658 -1.8334 -0.4479
 4410TIP3    H234646   0.575   1.449  15.840  0.4877 -0.9102 -1.3873
 4411TIP3   OH234647   2.602   2.917   4.834  0.6792  0.4077 -0.2926
 4411TIP3    H134648   2.549   2.978   4.783 -0.1377  1.8437  2.1049
 4411TIP3    H234649   2.680   2.967   4.858  1.6377 -0.6506 -1.1140
 4412TIP3   OH234650   6.111   3.566   2.668 -0.2834 -0.0484 -0.0442
 4412TIP3    H134651   6.161   3.577   2.749 -0.3092 -0.5853  0.0523
 4412TIP3    H234652   6.064   3.649   2.657 -0.3212  0.0142  0.5219
 4413TIP3   OH234653   0.346   2.902  13.440 -0.1397 -1.1080 -0.2278
 4413TIP3    H134654   0.318   2.812  13.458  1.5887 -1.9981 -1.6599
 4413TIP3    H234655   0.266   2.947  13.414 -2.1926 -0.6457  5.5219
 4414TIP3   OH234656   1.354   6.371   2.100 -0.6164  0.1202  0.0173
 4414TIP3    H134657   1.407   6.327   2.167 -0.1370 -1.4797 -1.3616
 4414TIP3    H234658   1.265   6.368   2.136 -0.5035 -1.4558  0.2552
 4415TIP3   OH234659   6.381   4.713   0.441 -0.0364 -0.3217  0.2427
 4415TIP3    H134660   6.448   4.693   0.506  0.5843  1.5284  0.2554
 4415TIP3    H234661   6.429   4.720   0.358 -0.3879 -0.1341  0.0502
 4416TIP3   OH234662   5.471   5.685  15.256  0.2076  0.1034 -0.3034
 4416TIP3    H134663   5.562   5.674  15.282 -0.1592  0.1870  1.1094
 4416TIP3    H234664   5.444   5.599  15.224  0.2436 -0.4751  1.1380
 4417TIP3   OH234665   5.155   4.882   4.437  0.0501 -0.2101  0.7409
 4417TIP3    H134666   5.206   4.832   4.501 -0.4730 -0.1610  1.2097
 4417TIP3    H234667   5.077   4.909   4.485 -0.0937  0.3004  0.2356
 4418TIP3   OH234668   3.269   6.514   0.804 -0.5753 -0.7584  0.2492
 4418TIP3    H134669   3.210   6.460   0.857 -1.0899 -0.1867  0.2738
 4418TIP3    H234670   3.220   6.595   0.790 -0.2698 -0.7347 -0.7398
 4419TIP3   OH234671   6.329   6.706   3.973  0.3351 -0.0076  0.2007
 4419TIP3    H134672   6.236   6.681   3.976 -0.0425  1.3735  0.6468
 4419TIP3    H234673   6.372   6.645   4.033 -0.5881  0.4611  1.3885
 4420TIP3   OH234674   3.167   5.416  17.075  0.3648  0.0864 -0.1280
 4420TIP3    H134675   3.203   5.502  17.053  2.8177 -0.4872  1.2507
 4420TIP3    H234676   3.116   5.431  17.154  1.3040  0.2293  0.4748
 4421TIP3   OH234677   6.287   4.458  11.771 -0.1727 -0.5378  0.4179
 4421TIP3    H134678   6.346   4.420  11.707  0.8386 -0.5224  1.3096
 4421TIP3    H234679   6.215   4.396  11.778  0.0876 -0.9104 -0.1623
 4422TIP3   OH234680   2.735   0.744  16.897  0.0785  0.2481  0.2520
 4422TIP3    H134681   2.789   0.671  16.925  1.2319  2.0031  3.0087
 4422TIP3    H234682   2.693   0.714  16.816  1.1582 -3.0610  0.8019
 4423TIP3   OH234683   3.667   1.973   5.460 -0.4379 -0.1083  0.2850
 4423TIP3    H134684   3.664   1.928   5.376 -0.3622 -0.6591  0.5716
 4423TIP3    H234685   3.721   1.917   5.515  1.1629  1.2237  0.1389
 4424TIP3   OH234686   0.302   5.736  11.922 -0.3969  0.2349 -0.2134
 4424TIP3    H134687   0.279   5.761  12.012 -0.8284 -2.3076  0.4581
 4424TIP3    H234688   0.394   5.712  11.927 -0.5070 -0.2252 -0.3701
 4425TIP3   OH234689   0.359   1.608   5.829  0.0545 -0.0308  0.0535
 4425TIP3    H134690   0.433   1.583   5.884  0.7281  2.1578  0.2476
 4425TIP3    H234691   0.296   1.647   5.889  0.0716  0.8582 -0.4847
 4426TIP3   OH234692   5.593   2.685  15.043 -0.7679 -0.0424  0.0721
 4426TIP3    H134693   5.518   2.627  15.036  0.5845 -1.7269 -1.5946
 4426TIP3    H234694   5.556   2.773  15.043 -2.6860 -0.7604 -2.1582
 4427TIP3   OH234695   0.443   0.361  15.920  0.1567 -0.8047 -0.0042
 4427TIP3    H134696   0.504   0.435  15.923 -0.5756  0.0160 -2.3642
 4427TIP3    H234697   0.497   0.285  15.902  0.7837 -0.6643  1.1660
 4428TIP3   OH234698   1.311   4.057   3.077 -0.1719 -0.2923  0.2388
 4428TIP3    H134699   1.380   4.111   3.115 -1.3410  0.1578  1.8202
 4428TIP3    H234700   1.299   3.986   3.140 -0.6068 -0.8199 -0.4246
 4429TIP3   OH234701   0.315   4.506   0.301  0.2082 -0.6146  0.4857
 4429TIP3    H134702   0.400   4.507   0.345  0.5668 -1.4156 -0.1792
 4429TIP3    H234703   0.309   4.419   0.262 -0.8289 -0.4879  0.3502
 4430TIP3   OH234704   4.758   2.158  15.312 -0.4890 -0.2030  0.1191
 4430TIP3    H134705   4.795   2.230  15.363 -1.6415  0.6779 -0.2347
 4430TIP3    H234706   4.805   2.160  15.229  0.0335 -0.3749  0.4072
 4431TIP3   OH234707   1.890   4.311  15.349 -0.4535  0.6466 -0.5136
 4431TIP3    H134708   1.940   4.384  15.386 -0.0147  0.7340 -1.2609
 4431TIP3    H234709   1.952   4.238  15.346 -0.4561  0.6605 -1.1277
 4432TIP3   OH234710   5.483   4.454   4.175  0.1820  0.0074  0.5172
 4432TIP3    H134711   5.488   4.520   4.106 -0.8842 -0.3813  0.0477
 4432TIP3    H234712   5.436   4.496   4.246 -0.9740 -0.3996  0.0114
 4433TIP3   OH234713   4.891   2.189  12.606 -0.5930  0.0537 -0.0766
 4433TIP3    H134714   4.959   2.147  12.554  0.0580 -1.4476  1.8703
 4433TIP3    H234715   4.833   2.118  12.633 -0.8259  0.7492  1.3369
 4434TIP3   OH234716   4.242   5.699  16.048  0.0134  0.1507  0.1193
 4434TIP3    H134717   4.264   5.721  15.958  1.0487 -0.7466  0.1211
 4434TIP3    H234718   4.166   5.642  16.042 -0.6063  0.9870 -0.0996
 4435TIP3   OH234719   4.881   0.645  16.623 -0.4132 -0.0143 -0.0522
 4435TIP3    H134720   4.960   0.595  16.603 -0.8469 -0.1471 -1.5537
 4435TIP3    H234721   4.914   0.730  16.655  0.3184 -0.9282  1.7552
 4436TIP3   OH234722   2.796   2.876  15.303  0.3737  0.2798 -0.3482
 4436TIP3    H134723   2.791   2.791  15.259  1.3701  0.4664 -0.8478
 4436TIP3    H234724   2.888   2.902  15.295  0.3025  0.9311  0.7030
 4437TIP3   OH234725   2.340   3.744  12.286  0.3905 -0.0380 -0.1704
 4437TIP3    H134726   2.262   3.718  12.238 -0.1621  0.6627  0.3364
 4437TIP3    H234727   2.369   3.664  12.331 -0.0700 -0.2835 -0.3141
 4438TIP3   OH234728   3.770   1.787  12.732 -0.1349 -0.2518  0.2299
 4438TIP3    H134729   3.698   1.739  12.772 -0.5402  0.2607  0.1192
 4438TIP3    H234730   3.730   1.865  12.695  0.3514 -0.3502 -0.5337
 4439TIP3   OH234731   4.109   3.876   1.036  0.9369  0.2969 -0.5429
 4439TIP3    H134732   4.091   3.885   1.129  1.9784  0.4046 -0.3437
 4439TIP3    H234733   4.177   3.809   1.031  0.3706 -0.2366 -1.2833
 4440TIP3   OH234734   5.098   5.961   5.706  0.2289 -0.3858  0.3841
 4440TIP3    H134735   5.127   5.974   5.796  3.7293  0.5773 -0.7105
 4440TIP3    H234736   5.103   6.047   5.665  3.5795 -1.4284 -1.8474
 4441TIP3   OH234737   6.298   2.013   3.366  0.0914 -0.2386 -0.5388
 4441TIP3    H134738   6.231   2.080   3.379 -0.6229 -0.7026 -1.6655
 4441TIP3    H234739   6.258   1.933   3.400  1.1611 -0.0369  1.3476
 4442TIP3   OH234740   1.462   5.333  16.184  0.6677  0.5633  0.5054
 4442TIP3    H134741   1.404   5.265  16.217 -1.5303  0.7860 -2.4283
 4442TIP3    H234742   1.438   5.411  16.235 -1.3009  0.5071 -0.2254
 4443TIP3   OH234743   4.970   1.824  14.862  0.1013 -0.0406  0.6390
 4443TIP3    H134744   5.041   1.811  14.926 -0.4599  0.6489  1.4147
 4443TIP3    H234745   4.890   1.821  14.915 -0.3894  0.2141 -0.0872
 4444TIP3   OH234746   2.787   3.289  15.275  0.0665 -0.1064 -0.2756
 4444TIP3    H134747   2.870   3.253  15.244 -0.0703 -3.6981  2.8278
 4444TIP3    H234748   2.721   3.246  15.222  0.0273  1.3189 -1.4580
 4445TIP3   OH234749   2.836   6.404  11.728 -0.3741  0.4354 -0.2383
 4445TIP3    H134750   2.927   6.430  11.709 -0.1741  0.2183  0.3804
 4445TIP3    H234751   2.845   6.324  11.780 -0.9618 -0.3280 -1.2804
 4446TIP3   OH234752   0.328   4.682  15.145 -0.0688 -0.0533 -0.4110
 4446TIP3    H134753   0.385   4.758  15.138  0.8611 -0.7997 -1.1390
 4446TIP3    H234754   0.282   4.695  15.228  2.2620 -0.1586  0.9793
 4447TIP3   OH234755   4.574   4.662  14.968  0.1935  0.1333  0.9147
 4447TIP3    H134756   4.533   4.740  15.006 -0.9817 -0.1873  0.3618
 4447TIP3    H234757   4.633   4.696  14.901  0.3611  0.5873  1.2901
 4448TIP3   OH234758   0.248   3.394   2.132 -0.1187 -0.4994  0.6733
 4448TIP3    H134759   0.332   3.398   2.087 -1.0278  0.4420 -1.0524
 4448TIP3    H234760   0.251   3.312   2.182  0.8168 -1.8609 -1.4678
 4449TIP3   OH234761   4.101   1.601  12.162  0.3467 -0.0200  0.0853
 4449TIP3    H134762   4.020   1.554  12.183 -0.8556  2.4253  1.4359
 4449TIP3    H234763   4.094   1.623  12.069 -1.1276  1.0482  0.4023
 4450TIP3   OH234764   5.412   2.719   1.552 -0.0149  0.5884  0.2996
 4450TIP3    H134765   5.489   2.730   1.607 -0.7144  0.8170  1.2597
 4450TIP3    H234766   5.438   2.755   1.467  0.5877  1.6273  0.9014
 4451TIP3   OH234767   2.223   4.206   6.938 -0.2876  0.2717 -0.2799
 4451TIP3    H134768   2.162   4.137   6.966 -2.3315  2.1194  0.1247
 4451TIP3    H234769   2.309   4.175   6.966 -1.0352 -2.3417 -0.6393
 4452TIP3   OH234770   2.691   4.575  14.360  0.8208  0.1576 -0.6465
 4452TIP3    H134771   2.780   4.549  14.338  1.6859  1.6516  0.8677
 4452TIP3    H234772   2.657   4.617  14.281  2.6401  2.4215 -0.3347
 4453TIP3   OH234773   4.649   4.397  15.626  0.1200  0.1250  0.0310
 4453TIP3    H134774   4.620   4.407  15.536  0.2751  0.3849  0.0104
 4453TIP3    H234775   4.744   4.405  15.622  0.0365  1.7669  0.4184
 4454TIP3   OH234776   4.243   5.269  12.041 -0.3378 -0.1324  0.3473
 4454TIP3    H134777   4.305   5.252  11.971 -0.4057 -1.9996  0.6956
 4454TIP3    H234778   4.171   5.317  11.999  0.8290  1.1333 -0.2659
 4455TIP3   OH234779   6.470   4.522  14.386 -0.1518 -0.4981 -0.3499
 4455TIP3    H134780   6.513   4.549  14.305 -1.1328 -0.6619 -0.9438
 4455TIP3    H234781   6.436   4.434  14.367  0.7002 -1.0671  0.6728
 4456TIP3   OH234782   6.661   2.560   6.635  0.4120  0.0840  0.2784
 4456TIP3    H134783   6.685   2.636   6.580 -1.5068  1.7322  1.5843
 4456TIP3    H234784   6.613   2.598   6.708 -0.4638 -2.4308  1.0907
 4457TIP3   OH234785   3.149   5.961   3.725 -0.4701 -0.2796 -0.1816
 4457TIP3    H134786   3.142   5.928   3.814  0.2422  0.5397  0.1916
 4457TIP3    H234787   3.198   6.043   3.733  0.7523 -0.8457 -1.4858
 4458TIP3   OH234788   3.768   1.751   4.202  0.4097 -0.4330  0.3177
 4458TIP3    H134789   3.783   1.803   4.281 -1.8294  2.4328 -0.9247
 4458TIP3    H234790   3.824   1.792   4.136 -2.3121  1.5055 -0.9976
 4459TIP3   OH234791   5.050   6.015   4.183 -0.3243 -0.5759  0.2364
 4459TIP3    H134792   5.003   6.003   4.266 -1.7288  0.3140 -0.3905
 4459TIP3    H234793   5.093   6.100   4.192  0.4767 -0.9917  0.4661
 4460TIP3   OH234794   0.845   4.625   6.609  0.0053  0.0882  0.1940
 4460TIP3    H134795   0.773   4.656   6.665  0.1466  0.7178  0.0312
 4460TIP3    H234796   0.914   4.690   6.621 -0.0214  0.3179 -0.8407
 4461TIP3   OH234797   0.952   0.001  11.075 -0.2643 -0.1224  0.3685
 4461TIP3    H134798   1.024   0.014  11.013 -1.6771 -1.6331 -1.7679
 4461TIP3    H234799   0.985  -0.063  11.138  0.4582 -0.3338 -0.2122
 4462TIP3   OH234800   4.906   1.112   2.128 -0.3323 -0.5630 -0.7784
 4462TIP3    H134801   4.828   1.103   2.183 -0.7750 -0.6747 -1.4095
 4462TIP3    H234802   4.884   1.066   2.047  0.3911 -0.5967 -0.9665
 4463TIP3   OH234803   0.680   4.033  13.102  0.2099 -0.0491 -0.0407
 4463TIP3    H134804   0.598   4.082  13.113  0.4944  0.0291  2.3208
 4463TIP3    H234805   0.728   4.080  13.034  0.0041  2.3766  1.3758
 4464TIP3   OH234806   3.133   2.262  15.793  0.4242 -0.0739  0.1319
 4464TIP3    H134807   3.183   2.260  15.874 -0.4946 -1.5949  0.7095
 4464TIP3    H234808   3.158   2.344  15.751  2.3595 -0.1668  1.0236
 4465TIP3   OH234809   0.806   0.344   3.247 -0.2254 -0.6723  0.0007
 4465TIP3    H134810   0.796   0.434   3.280  4.2933  0.5155 -1.1538
 4465TIP3    H234811   0.742   0.293   3.297 -1.1199  2.7124  2.7233
 4466TIP3   OH234812   6.070   5.844  17.045 -0.1803 -0.1022 -0.1165
 4466TIP3    H134813   6.043   5.757  17.013 -0.5034  0.0662 -0.3032
 4466TIP3    H234814   6.069   5.899  16.966  2.5211 -0.5055 -0.5465
 4467TIP3   OH234815   4.663   1.187   5.339 -0.8631  0.6610 -0.2487
 4467TIP3    H134816   4.611   1.175   5.418 -1.8736  0.6555 -0.9078
 4467TIP3    H234817   4.689   1.098   5.314  0.0262  0.7122  0.4348
 4468TIP3   OH234818   2.231   5.389  15.587  0.6893  0.7121  0.3026
 4468TIP3    H134819   2.261   5.445  15.658  0.5313 -0.0640  1.0096
 4468TIP3    H234820   2.221   5.303  15.628 -3.0897  1.0001  0.3441
 4469TIP3   OH234821   0.560   6.274   2.086 -0.3467  1.1278 -0.0792
 4469TIP3    H134822   0.565   6.227   2.003 -0.1958  0.2359  0.4184
 4469TIP3    H234823   0.639   6.246   2.134 -1.0611  0.6604  0.8576
 4470TIP3   OH234824   6.472   0.764   2.107  0.4465 -0.0233 -0.2497
 4470TIP3    H134825   6.544   0.798   2.159  0.1254  0.3613 -0.0492
 4470TIP3    H234826   6.405   0.833   2.111 -1.1164 -1.5423  2.0094
 4471TIP3   OH234827   1.297   4.571  16.304 -0.3035 -0.3910 -0.1162
 4471TIP3    H134828   1.277   4.575  16.210 -1.4428 -1.1919  0.0622
 4471TIP3    H234829   1.346   4.490  16.314 -0.4402 -0.4576  0.0163
 4472TIP3   OH234830   2.910   1.252  15.503 -0.2474  0.0629  0.7916
 4472TIP3    H134831   2.922   1.284  15.414 -1.7562 -0.7159  0.2808
 4472TIP3    H234832   2.850   1.178  15.494  1.3174 -1.4720  2.1998
 4473TIP3   OH234833   5.385   0.876  13.617  0.3010 -0.1420 -0.0914
 4473TIP3    H134834   5.459   0.936  13.616 -0.5594  0.9609  0.6431
 4473TIP3    H234835   5.425   0.789  13.622  1.6570  0.1318 -3.4241
 4474TIP3   OH234836   3.955   5.971   1.386  0.4563 -0.1004  0.4364
 4474TIP3    H134837   3.866   5.970   1.351  1.2747  1.2037 -1.9245
 4474TIP3    H234838   4.000   5.903   1.336  1.8261  2.2380 -1.7609
 4475TIP3   OH234839   0.656   5.623  12.339 -0.2785  0.2428  0.0895
 4475TIP3    H134840   0.565   5.645  12.359  0.1040 -0.0885  2.4620
 4475TIP3    H234841   0.708   5.686  12.389  0.8616  1.1955 -2.1548
 4476TIP3   OH234842   4.236   0.254   2.117  0.1659 -0.0191 -0.7132
 4476TIP3    H134843   4.307   0.313   2.089  0.4008 -1.0236 -2.3455
 4476TIP3    H234844   4.275   0.202   2.187  0.2933  0.9810 -0.0048
 4477TIP3   OH234845   2.674   5.397   6.112  0.1974 -0.3344 -0.0440
 4477TIP3    H134846   2.666   5.302   6.121  0.6053 -0.5356 -1.6214
 4477TIP3    H234847   2.767   5.413   6.100 -0.0567  0.0357 -1.8481
 4478TIP3   OH234848   2.970   3.249  11.428  0.3584  0.0125  0.3209
 4478TIP3    H134849   3.037   3.237  11.360  0.5078  2.1596  0.0460
 4478TIP3    H234850   2.889   3.266  11.380  0.4533  1.4959  0.6563
 4479TIP3   OH234851   1.736   4.666  11.356 -0.4033  0.3170 -0.2933
 4479TIP3    H134852   1.652   4.647  11.316 -0.3770  0.0625 -0.2260
 4479TIP3    H234853   1.736   4.617  11.438 -1.0471  1.9239  0.7280
 4480TIP3   OH234854   2.537   5.797  17.281 -1.2048  0.2394 -0.0906
 4480TIP3    H134855   2.632   5.809  17.270 -1.2134  1.5010  0.9619
 4480TIP3    H234856   2.500   5.884  17.267 -1.7514  0.7352  3.5924
 4481TIP3   OH234857   3.157   1.487  12.302  0.4432  0.6406 -0.8323
 4481TIP3    H134858   3.229   1.424  12.296 -1.3606 -1.4818 -2.1848
 4481TIP3    H234859   3.096   1.447  12.365 -0.4275  1.3756 -1.1874
 4482TIP3   OH234860   5.794   2.531   2.655  0.0390 -0.1969 -0.6047
 4482TIP3    H134861   5.829   2.620   2.648 -0.3158 -0.1357 -1.7963
 4482TIP3    H234862   5.707   2.543   2.692 -0.0770 -0.0317 -0.9284
 4483TIP3   OH234863   2.983   4.943  12.073 -0.5134 -0.1386  0.4956
 4483TIP3    H134864   3.064   4.935  12.123 -0.0283 -0.4689 -0.3336
 4483TIP3    H234865   3.011   4.950  11.982 -1.4112 -0.1047  0.2125
 4484TIP3   OH234866   4.740   2.495  17.244  0.7006 -0.3092 -0.4463
 4484TIP3    H134867   4.650   2.527  17.244  0.3183 -1.2553  1.3382
 4484TIP3    H234868   4.734   2.409  17.202  0.9356 -0.0287 -1.0717
 4485TIP3   OH234869   4.000   3.384  14.876  0.6745  0.5793  0.1821
 4485TIP3    H134870   4.025   3.384  14.968 -3.6346 -0.2103  1.5777
 4485TIP3    H234871   3.998   3.476  14.851  1.7159  0.8086  0.8875
 4486TIP3   OH234872   1.389   3.639  15.848  0.5276 -0.4263 -0.1052
 4486TIP3    H134873   1.361   3.567  15.791  2.4171 -0.3341 -1.2459
 4486TIP3    H234874   1.375   3.718  15.796 -0.4342 -0.0491  0.6965
 4487TIP3   OH234875   5.224   3.532   0.330 -0.7572 -0.2625  0.3915
 4487TIP3    H134876   5.223   3.455   0.387 -0.8143  0.3153  1.1931
 4487TIP3    H234877   5.313   3.567   0.338 -0.0394 -1.4476 -1.6682
 4488TIP3   OH234878   4.393   3.213   0.231 -0.4950 -0.1583  0.1607
 4488TIP3    H134879   4.483   3.246   0.228 -0.5943  0.1178  0.1688
 4488TIP3    H234880   4.340   3.285   0.195 -0.7109 -0.3248  0.1422
 4489TIP3   OH234881   5.898   1.290   1.513  0.5622  0.0303 -0.3945
 4489TIP3    H134882   5.895   1.382   1.540  1.5770 -0.3144  0.9389
 4489TIP3    H234883   5.947   1.291   1.430 -1.3414  0.9189 -1.5918
 4490TIP3   OH234884   6.438   1.460  15.807  0.5754 -0.2608 -0.0325
 4490TIP3    H134885   6.444   1.539  15.753  0.2265 -1.1222 -1.3743
 4490TIP3    H234886   6.494   1.396  15.762  1.3790 -0.6090  1.3877
 4491TIP3   OH234887   5.272   2.652  17.152 -0.1025 -0.0400  0.3348
 4491TIP3    H134888   5.254   2.586  17.219  2.2499  0.0828  1.1581
 4491TIP3    H234889   5.310   2.725  17.201  0.6588  0.4848 -1.0196
 4492TIP3   OH234890   2.756   2.966   1.915  0.8555  0.0297 -0.3730
 4492TIP3    H134891   2.736   2.961   1.821 -1.2341  0.2762  0.0196
 4492TIP3    H234892   2.697   3.033   1.949  1.7090  0.0705  1.1086
 4493TIP3   OH234893   1.268   3.038  16.024 -0.5439 -0.3561  0.0086
 4493TIP3    H134894   1.184   3.044  16.070 -0.9626  3.4071 -0.9160
 4493TIP3    H234895   1.251   3.078  15.939  2.2073  0.6278 -0.1774
 4494TIP3   OH234896   5.671   4.301   3.510  0.2075  0.1538  0.4950
 4494TIP3    H134897   5.581   4.315   3.541 -0.2654 -0.8109 -0.3493
 4494TIP3    H234898   5.705   4.389   3.494 -0.6984  0.5265  0.5366
 4495TIP3   OH234899   0.514   3.833   0.250 -0.0505 -0.2520  0.2048
 4495TIP3    H134900   0.484   3.762   0.193  0.5546 -1.9241  1.8342
 4495TIP3    H234901   0.551   3.898   0.191 -0.3215 -1.4592 -1.3528
 4496TIP3   OH234902   0.803   6.476   1.834  0.1538 -0.2748 -0.2884
 4496TIP3    H134903   0.861   6.517   1.898  0.7802  1.3453 -1.8166
 4496TIP3    H234904   0.807   6.534   1.758 -0.5710 -2.1140 -1.7987
 4497TIP3   OH234905   2.566   1.797   5.160 -0.0400  0.0029  0.3547
 4497TIP3    H134906   2.591   1.715   5.203 -1.4132 -0.5935  0.0813
 4497TIP3    H234907   2.647   1.849   5.157  1.1287 -1.7709 -0.4576
 4498TIP3   OH234908   3.319   6.111   6.468  0.2161 -0.8545  0.2362
 4498TIP3    H134909   3.393   6.084   6.414  1.8014 -1.2576  2.4640
 4498TIP3    H234910   3.354   6.179   6.525 -1.5670  0.0450  0.3449
 4499TIP3   OH234911   6.700   1.965   6.602  0.1341 -0.3361 -0.3471
 4499TIP3    H134912   6.697   1.921   6.687  0.0112  1.5439  0.6772
 4499TIP3    H234913   6.658   2.049   6.618  0.5182  0.2350 -2.1848
 4500TIP3   OH234914   4.067   5.379   0.944 -0.3284  0.1607  0.1294
 4500TIP3    H134915   4.006   5.419   1.006  0.1270  0.3980  0.4311
 4500TIP3    H234916   4.037   5.288   0.937  0.6993 -0.3945  2.1434
 4501TIP3   OH234917   4.314   3.995   4.798 -0.0578 -0.2594  0.3426
 4501TIP3    H134918   4.392   4.050   4.802  0.3467 -0.6887 -1.0227
 4501TIP3    H234919   4.292   3.977   4.889 -0.1841  2.1001  0.8222
 4502TIP3   OH234920   3.550   3.252   3.994 -0.1995 -0.4331  0.2512
 4502TIP3    H134921   3.592   3.195   4.058  1.6026  0.0705 -0.4439
 4502TIP3    H234922   3.570   3.341   4.024  0.0365 -0.1891 -0.6071
 4503TIP3   OH234923   0.757   1.017   3.012 -0.5461 -0.6764  0.4508
 4503TIP3    H134924   0.811   1.057   3.080  0.1085  0.5066 -0.7068
 4503TIP3    H234925   0.819   0.995   2.942 -1.5758  1.5057 -1.2775
 4504TIP3   OH234926   2.521   4.511   5.112 -0.0787 -0.1196  0.6818
 4504TIP3    H134927   2.612   4.484   5.118  0.1350  0.1035 -1.0075
 4504TIP3    H234928   2.472   4.429   5.112  0.1738 -0.2707  0.9260
 4505TIP3   OH234929   0.725   0.889   0.102  0.2662 -0.0776 -0.0684
 4505TIP3    H134930   0.821   0.891   0.103  0.2632  1.1290  0.4378
 4505TIP3    H234931   0.699   0.939   0.180 -0.7730 -0.1479 -0.3503
 4506TIP3   OH234932   6.047   3.149   5.031 -0.0859 -0.1598 -0.0166
 4506TIP3    H134933   5.992   3.078   4.998  0.4925 -0.8127  0.3849
 4506TIP3    H234934   6.080   3.117   5.115  1.4114 -0.0672 -0.5318
 4507TIP3   OH234935   5.505   6.148  15.251 -0.1508 -0.2765  0.4533
 4507TIP3    H134936   5.513   6.079  15.186  1.3597  0.7150 -0.4886
 4507TIP3    H234937   5.531   6.106  15.333 -2.0932 -1.5449  0.4779
 4508TIP3   OH234938   0.875   5.097   4.794 -0.1326 -0.3089  0.3693
 4508TIP3    H134939   0.876   5.078   4.700 -0.2112  1.1152  0.0560
 4508TIP3    H234940   0.887   5.192   4.800 -0.7450 -0.2824  1.7743
 4509TIP3   OH234941   1.229   2.052  12.449 -0.8562 -0.0874  0.2402
 4509TIP3    H134942   1.147   2.062  12.497 -1.1333 -0.4166 -0.1684
 4509TIP3    H234943   1.244   2.138  12.409 -1.1411 -0.1074  0.0904
 4510TIP3   OH234944   1.647   5.244   6.016 -0.4978  0.0619 -0.1300
 4510TIP3    H134945   1.566   5.227   6.064  0.4849 -1.3671  1.1071
 4510TIP3    H234946   1.715   5.247   6.083  0.5706  0.6493 -1.1961
 4511TIP3   OH234947   6.226   3.514  13.541  0.4686 -0.1270  0.4692
 4511TIP3    H134948   6.185   3.543  13.623 -0.6287  1.6663 -0.6281
 4511TIP3    H234949   6.158   3.462  13.498  1.3966 -1.9461  1.0795
 4512TIP3   OH234950   4.416   5.283  13.088  0.2115 -0.2061  0.7885
 4512TIP3    H134951   4.425   5.213  13.024 -0.5425  1.6221 -1.4373
 4512TIP3    H234952   4.483   5.347  13.064 -1.7887  1.7346  0.0981
 4513TIP3   OH234953   4.261   0.166   0.318 -0.2242 -0.0156 -0.3811
 4513TIP3    H134954   4.328   0.200   0.259 -1.0649  0.0514 -1.3125
 4513TIP3    H234955   4.210   0.243   0.342 -0.4759 -0.1951 -0.3361
 4514TIP3   OH234956   5.633   3.093   5.325  0.1609 -0.9034  0.2060
 4514TIP3    H134957   5.714   3.042   5.324  0.8601  0.0413 -2.6484
 4514TIP3    H234958   5.579   3.053   5.256 -1.1992 -0.6016  1.0624
 4515TIP3   OH234959   1.701   1.068   0.270 -0.0812 -0.3729 -0.2518
 4515TIP3    H134960   1.745   1.149   0.292 -1.2152 -0.3079  2.0082
 4515TIP3    H234961   1.681   1.076   0.176 -0.5493  2.1299  0.0014
 4516TIP3   OH234962   1.592   3.741   0.173 -0.3608 -0.3045  0.0142
 4516TIP3    H134963   1.582   3.833   0.197  1.1072 -0.3630  0.9822
 4516TIP3    H234964   1.684   3.721   0.192  0.0271 -1.3047 -2.5496
 4517TIP3   OH234965   3.549   0.323  13.301 -0.7024  0.3256  0.1097
 4517TIP3    H134966   3.479   0.272  13.341 -1.7745  0.4960 -1.4594
 4517TIP3    H234967   3.615   0.257  13.277 -0.2881  0.1636  1.5634
 4518TIP3   OH234968   5.093   6.420  11.238  0.1101 -0.1395 -0.4946
 4518TIP3    H134969   5.136   6.347  11.281 -0.2833 -0.0954 -0.0163
 4518TIP3    H234970   5.050   6.382  11.162  0.4127 -0.2992 -0.5855
 4519TIP3   OH234971   6.624   0.425  13.982  0.1086  0.4122  0.0163
 4519TIP3    H134972   6.557   0.390  13.923  1.1583  0.6608 -1.3815
 4519TIP3    H234973   6.575   0.467  14.053 -1.2067 -2.4065  0.9278
 4520TIP3   OH234974   2.190   4.631   4.274 -0.2180  0.3382  0.1006
 4520TIP3    H134975   2.174   4.577   4.351  2.8978 -0.2391  0.4643
 4520TIP3    H234976   2.154   4.580   4.201  1.2729 -1.5614  0.6197
 4521TIP3   OH234977   3.635   4.952  15.308  0.2088 -0.7365  0.0761
 4521TIP3    H134978   3.587   4.983  15.385  0.7688 -0.6092  0.3889
 4521TIP3    H234979   3.710   4.905  15.345  0.3132 -0.9429 -0.3958
 4522TIP3   OH234980   4.041   3.783  13.075  0.4864  0.4374 -0.3243
 4522TIP3    H134981   3.988   3.734  13.012  1.9668 -1.5647 -0.0997
 4522TIP3    H234982   4.051   3.723  13.149  2.9098  0.7807 -0.3098
 4523TIP3   OH234983   5.024   4.220  15.445  0.7498  0.1876  0.0716
 4523TIP3    H134984   4.941   4.202  15.401  1.2430  0.8128 -1.1668
 4523TIP3    H234985   5.057   4.133  15.470  0.1528 -0.1355 -0.2325
 4524TIP3   OH234986   2.431   3.067   4.703 -0.1427 -0.2489 -0.2728
 4524TIP3    H134987   2.344   3.026   4.709 -0.1647 -0.0311  3.5089
 4524TIP3    H234988   2.442   3.087   4.610 -2.7646 -3.1287 -1.3910
 4525TIP3   OH234989   0.581   5.721   2.147 -0.0164 -0.5076 -0.3004
 4525TIP3    H134990   0.573   5.732   2.241  1.2439  2.4194 -0.4306
 4525TIP3    H234991   0.491   5.703   2.117 -1.0236  1.7309  1.1562
 4526TIP3   OH234992   2.200   2.529   0.955 -0.0460 -0.1186 -0.4772
 4526TIP3    H134993   2.141   2.455   0.943  0.2084 -0.3119 -0.5512
 4526TIP3    H234994   2.254   2.531   0.876  1.8354 -1.5843  0.6733
 4527TIP3   OH234995   3.473   4.028   0.717  0.1161 -0.6162  0.5098
 4527TIP3    H134996   3.560   3.998   0.693  0.1481 -0.3362  0.2734
 4527TIP3    H234997   3.483   4.063   0.806  1.0952  2.8266 -0.7873
 4528TIP3   OH234998   3.254   0.836  15.634  0.1023 -0.8027  0.6627
 4528TIP3    H134999   3.275   0.760  15.688  1.0433 -2.4751 -1.8417
 4528TIP3    H235000   3.317   0.831  15.561 -1.0574  1.3065 -0.5771
 4529TIP3   OH235001   5.538   2.615  13.717  0.2137 -0.4641  0.2047
 4529TIP3    H135002   5.612   2.558  13.694 -0.8433 -1.4813 -0.8267
 4529TIP3    H235003   5.549   2.692  13.661  1.8446  0.5687  1.8551
 4530TIP3   OH235004   4.953   1.919   3.355 -0.4105 -0.3488 -0.1336
 4530TIP3    H135005   4.991   2.001   3.388  1.4377 -1.6475  1.1939
 4530TIP3    H235006   4.994   1.907   3.269 -1.4409  0.5565 -0.7849
 4531TIP3   OH235007   0.554   0.018   0.046 -0.4000  0.0172 -0.3568
 4531TIP3    H135008   0.597   0.024   0.131 -1.1830 -1.5319  0.1828
 4531TIP3    H235009   0.466   0.055   0.060  0.1191  1.6310 -1.0392
 4532TIP3   OH235010   2.399   5.503  16.329  0.0296 -0.2526  0.3477
 4532TIP3    H135011   2.450   5.545  16.398  0.8230  0.0747 -0.4180
 4532TIP3    H235012   2.309   5.533  16.344 -0.7502 -3.6790  3.9107
 4533TIP3   OH235013   0.755   5.945  16.992 -0.1689 -0.1645  0.2113
 4533TIP3    H135014   0.723   6.024  17.035  1.1739  0.7283 -0.3383
 4533TIP3    H235015   0.839   5.971  16.954 -1.1044 -0.9381 -2.6885
 4534TIP3   OH235016   1.706   4.116  12.585 -0.0387  0.1408 -0.1707
 4534TIP3    H135017   1.773   4.091  12.648 -0.6266  3.3979  1.9897
 4534TIP3    H235018   1.755   4.144  12.508  0.6853 -4.1291 -1.5312
 4535TIP3   OH235019   3.121   4.804   1.871 -0.4363  0.4652  0.5752
 4535TIP3    H135020   3.171   4.827   1.793 -2.7490 -0.5311 -1.2808
 4535TIP3    H235021   3.160   4.721   1.900 -0.2973  0.2546 -0.1881
 4536TIP3   OH235022   0.052   3.438   5.434  0.4366 -0.2956  0.5367
 4536TIP3    H135023   0.055   3.345   5.410  0.0282  0.6422 -4.2309
 4536TIP3    H235024   0.141   3.469   5.422 -0.1419  0.6071 -2.2516
 4537TIP3   OH235025   2.093   2.759  12.830 -0.4443  0.2624  0.3740
 4537TIP3    H135026   2.189   2.763  12.831 -0.4561  0.7391  0.1327
 4537TIP3    H235027   2.071   2.761  12.737 -0.7409  1.8319  0.4546
 4538TIP3   OH235028   1.452   5.724  16.776  0.6085  0.4183  0.2666
 4538TIP3    H135029   1.402   5.794  16.735  2.6761  2.5031  1.0373
 4538TIP3    H235030   1.429   5.645  16.727 -1.6587  1.6378 -0.7799
 4539TIP3   OH235031   2.853   5.493   2.660 -0.0874 -0.1356  0.2924
 4539TIP3    H135032   2.887   5.581   2.673  2.7863 -1.1708  0.5662
 4539TIP3    H235033   2.800   5.499   2.581  4.3966  0.9256 -3.0307
 4540TIP3   OH235034   3.176   1.257  11.336  0.3191  0.0363  0.0862
 4540TIP3    H135035   3.175   1.337  11.389  1.1233 -0.4781  0.9112
 4540TIP3    H235036   3.249   1.269  11.276  2.2185 -1.1694  2.0255
 4541TIP3   OH235037   4.749   4.128  14.899 -0.1917 -0.3655  0.1297
 4541TIP3    H135038   4.819   4.125  14.964 -0.1926 -1.7895  0.1149
 4541TIP3    H235039   4.757   4.214  14.858  0.1149  0.3703  1.6630
 4542TIP3   OH235040   0.491   3.188  16.748  0.1950  0.1888  0.2054
 4542TIP3    H135041   0.517   3.275  16.718 -0.7604  0.0934 -0.9535
 4542TIP3    H235042   0.447   3.149  16.673 -0.0619 -1.0152  0.9579
 4543TIP3   OH235043   2.344   4.706  12.470 -0.2885  0.0818 -0.2583
 4543TIP3    H135044   2.335   4.798  12.447  0.4688 -0.0747 -1.2517
 4543TIP3    H235045   2.265   4.664  12.438 -0.5199  0.3433 -0.0296
 4544TIP3   OH235046   6.639   0.111   3.298  0.1405  0.2320 -0.1637
 4544TIP3    H135047   6.650   0.168   3.375 -2.2974  1.8397 -0.8635
 4544TIP3    H235048   6.570   0.050   3.324  1.2187 -1.0242 -0.1829
 4545TIP3   OH235049   1.336   0.271   4.035 -0.2991 -0.3818  0.1184
 4545TIP3    H135050   1.368   0.195   4.084 -0.5323 -1.3157 -1.1232
 4545TIP3    H235051   1.414   0.305   3.991 -0.0434  0.5997  1.2603
 4546TIP3   OH235052   4.269   0.499  11.364 -0.6271 -0.1597  0.5833
 4546TIP3    H135053   4.312   0.579  11.395  1.4408 -0.9650 -0.0402
 4546TIP3    H235054   4.340   0.446  11.328 -2.0836 -1.8840  0.1053
 4547TIP3   OH235055   2.714   5.814  13.065  0.0880 -0.8406 -0.0266
 4547TIP3    H135056   2.663   5.855  13.135 -0.4977  0.5681 -1.2078
 4547TIP3    H235057   2.694   5.721  13.071 -1.7542 -0.4668  0.2722
 4548TIP3   OH235058   3.134   0.028  12.313 -0.0915 -0.1620 -0.0727
 4548TIP3    H135059   3.187  -0.002  12.240 -0.6778 -1.3901 -0.0180
 4548TIP3    H235060   3.060   0.074  12.273  1.5014  2.5670 -0.1319
 4549TIP3   OH235061   1.081   5.134  12.250 -0.1571  0.0910 -0.2746
 4549TIP3    H135062   1.146   5.083  12.299 -0.7203  0.2799  0.6983
 4549TIP3    H235063   1.083   5.097  12.161 -0.4439 -1.5454  0.3581
 4550TIP3   OH235064   2.974   5.421  12.409  0.0290 -0.5072 -0.3576
 4550TIP3    H135065   3.042   5.385  12.352 -0.1791 -1.1922 -0.1790
 4550TIP3    H235066   3.019   5.439  12.491  0.0228 -0.8522 -0.2774
 4551TIP3   OH235067   5.200   3.197  11.957 -0.0568 -0.5253 -0.6227
 4551TIP3    H135068   5.240   3.238  11.880  1.6914 -1.2110 -0.1236
 4551TIP3    H235069   5.129   3.257  11.982  0.6503  0.7487 -1.5545
 4552TIP3   OH235070   1.560   5.065   5.332 -0.2079 -0.3168 -0.7284
 4552TIP3    H135071   1.475   5.065   5.374 -1.2008 -0.2970 -2.6224
 4552TIP3    H235072   1.616   5.014   5.391 -1.7187 -0.9970  0.1732
 4553TIP3   OH235073   5.376   6.242   1.205  0.6995  0.5933  0.6158
 4553TIP3    H135074   5.366   6.317   1.265  1.1226  1.1649 -0.0157
 4553TIP3    H235075   5.349   6.167   1.257 -1.2321  1.3546  0.7901
 4554TIP3   OH235076   3.565   2.935   6.088  0.1699  0.2509  0.0287
 4554TIP3    H135077   3.653   2.950   6.122  0.1481 -0.0911  0.2415
 4554TIP3    H235078   3.552   3.003   6.023  1.2414 -0.6931 -1.2208
 4555TIP3   OH235079   6.074   4.577  14.279 -0.2067  0.2827  0.1750
 4555TIP3    H135080   6.085   4.483  14.264  0.0407  0.2833  0.3485
 4555TIP3    H235081   6.047   4.584  14.370 -0.5487  0.3588  0.0683
 4556TIP3   OH235082   5.364   1.194   4.392 -0.1357 -0.0394  0.0942
 4556TIP3    H135083   5.411   1.216   4.472  0.4715 -4.5964  1.2669
 4556TIP3    H235084   5.421   1.226   4.322  2.6735 -1.5144  1.5307
 4557TIP3   OH235085   5.381   5.248  13.400 -0.9885 -0.1808  0.0772
 4557TIP3    H135086   5.355   5.338  13.380  0.5757  0.2746 -0.0289
 4557TIP3    H235087   5.475   5.246  13.385 -0.8942 -1.6911  0.6668
 4558TIP3   OH235088   4.026   3.344   3.114 -0.0460  0.3017 -0.2014
 4558TIP3    H135089   4.006   3.324   3.023  2.0218 -1.4686 -0.3505
 4558TIP3    H235090   3.941   3.339   3.159 -0.7924 -0.9340 -1.6689
 4559TIP3   OH235091   4.145   5.280  10.930 -0.2388 -0.2571  0.1445
 4559TIP3    H135092   4.130   5.349  10.865 -1.4826  0.2681  0.9612
 4559TIP3    H235093   4.118   5.199  10.886 -2.4169  0.2587  0.4183
 4560TIP3   OH235094   0.534   5.671   0.608  0.0198 -0.3764  0.1178
 4560TIP3    H135095   0.497   5.639   0.690  0.2475  0.1279  0.4257
 4560TIP3    H235096   0.470   5.648   0.541 -0.0992 -0.9212  0.4188
 4561TIP3   OH235097   4.857   4.347   4.377 -0.0593 -0.4181  0.2075
 4561TIP3    H135098   4.794   4.402   4.329 -1.1798 -0.3484  1.6756
 4561TIP3    H235099   4.891   4.405   4.446 -1.2694 -1.4987  1.7943
 4562TIP3   OH235100   2.563   1.301   4.563  0.0753  0.3072 -0.2159
 4562TIP3    H135101   2.607   1.385   4.550  2.2008 -0.6436  0.4050
 4562TIP3    H235102   2.538   1.301   4.656 -1.3737  0.8529 -0.5683
 4563TIP3   OH235103   5.880   4.302  13.281 -0.3489  0.4887  0.2790
 4563TIP3    H135104   5.887   4.336  13.192 -0.5710  1.5054  0.6224
 4563TIP3    H235105   5.938   4.358  13.332 -1.5323  1.0659  1.0507
 4564TIP3   OH235106   6.406   3.795  15.359  0.1643 -0.0551  0.3248
 4564TIP3    H135107   6.320   3.765  15.329 -1.1044  3.2885  0.2140
 4564TIP3    H235108   6.399   3.797  15.454  0.7771 -1.4224  0.4177
 4565TIP3   OH235109   4.990   3.394   4.195  0.1693 -0.1932 -0.5965
 4565TIP3    H135110   5.063   3.388   4.257 -0.4263  0.3165  0.1760
 4565TIP3    H235111   4.928   3.328   4.226 -0.5543  0.7153 -0.0572
 4566TIP3   OH235112   3.836   1.005   1.934 -0.0097  0.1338 -0.4726
 4566TIP3    H135113   3.747   1.009   1.969  0.4086 -0.3096  0.6712
 4566TIP3    H235114   3.853   1.093   1.901 -0.2300  0.7177  0.9268
 4567TIP3   OH235115   6.490   1.170   6.305 -0.1495  0.2974  0.9072
 4567TIP3    H135116   6.519   1.079   6.299 -0.7799  0.1804 -0.9981
 4567TIP3    H235117   6.557   1.213   6.357  0.2584 -1.2061  1.6986
 4568TIP3   OH235118   6.086   3.182  17.189 -0.0775  0.7306  0.1054
 4568TIP3    H135119   6.177   3.210  17.199  0.2659  0.1671 -1.1984
 4568TIP3    H235120   6.035   3.263  17.196  0.6713  1.3021 -0.8117
 4569TIP3   OH235121   0.165   0.027  15.860 -0.0807  0.1755  0.4402
 4569TIP3    H135122   0.222  -0.048  15.877 -0.2641 -0.2782 -0.8727
 4569TIP3    H235123   0.163   0.036  15.765 -0.5114  1.5114  0.5453
 4570TIP3   OH235124   3.330   3.177   2.822  0.0828  0.2296 -0.4638
 4570TIP3    H135125   3.385   3.133   2.758  0.1753 -0.8713  0.3596
 4570TIP3    H235126   3.246   3.188   2.777  0.4648  0.4438 -1.1443
 4571TIP3   OH235127   4.133   3.877  15.717  0.3929  0.0776  0.2783
 4571TIP3    H135128   4.212   3.890  15.664 -0.2547 -1.5596 -1.1793
 4571TIP3    H235129   4.119   3.782  15.717 -1.6395  0.3396  0.4183
 4572TIP3   OH235130   1.222   0.553  14.551  0.5598 -0.0214 -0.1801
 4572TIP3    H135131   1.249   0.564  14.642 -0.2153  2.5105 -0.1667
 4572TIP3    H235132   1.218   0.458  14.538  0.7287 -0.4540  2.3914
 4573TIP3   OH235133   4.444   1.917   2.188 -0.5641  0.4391  0.2334
 4573TIP3    H135134   4.414   1.935   2.099 -0.5013 -1.1023 -0.1364
 4573TIP3    H235135   4.538   1.904   2.180 -0.8714 -2.1884  0.0233
 4574TIP3   OH235136   1.651   5.970  12.457  0.0650  0.2370 -0.0053
 4574TIP3    H135137   1.611   5.891  12.494 -1.4942  0.6360 -0.7880
 4574TIP3    H235138   1.606   6.042  12.502  0.9814  0.6969  0.1907
 4575TIP3   OH235139   4.765   4.395  14.054 -0.7698  0.2266  0.5184
 4575TIP3    H135140   4.718   4.353  14.126  0.4417 -2.1586  0.0321
 4575TIP3    H235141   4.701   4.399  13.983 -0.6957 -1.8298  0.2609
 4576TIP3   OH235142   1.363   2.107   2.652  0.1420  0.2540 -0.3788
 4576TIP3    H135143   1.428   2.059   2.702 -0.3689 -0.6485 -0.5672
 4576TIP3    H235144   1.282   2.058   2.664 -0.0015  0.0264 -2.0629
 4577TIP3   OH235145   2.105   1.921   5.760 -0.4240 -0.0592  0.0260
 4577TIP3    H135146   2.125   1.947   5.849 -1.3697 -0.2017  0.2924
 4577TIP3    H235147   2.177   1.864   5.734  1.4762  2.3688 -0.4097
 4578TIP3   OH235148   4.238   4.175  17.098 -0.1508  0.5900 -0.5787
 4578TIP3    H135149   4.192   4.242  17.048 -2.5036  1.4518  2.4802
 4578TIP3    H235150   4.214   4.092  17.057 -1.5983  1.2859 -1.1668
 4579TIP3   OH235151   2.368   3.528  13.185  0.4578 -0.1765 -0.0118
 4579TIP3    H135152   2.305   3.594  13.156 -0.7985 -1.6495 -0.8129
 4579TIP3    H235153   2.373   3.539  13.280 -0.6673  0.2930  0.0047
 4580TIP3   OH235154   4.785   6.055  11.401 -0.0067 -0.1817  0.2664
 4580TIP3    H135155   4.699   6.083  11.369  0.3214 -0.0291 -0.5028
 4580TIP3    H235156   4.811   5.986  11.341  1.2953  1.1461 -0.7817
 4581TIP3   OH235157   3.479   3.934  11.171 -0.2259  0.0275 -0.5853
 4581TIP3    H135158   3.492   3.945  11.265  1.1993 -2.0535 -0.4878
 4581TIP3    H235159   3.393   3.893  11.163  1.3651 -3.9249  0.2540
 4582TIP3   OH235160   0.724   5.254  11.696  0.5040 -0.6025  0.4286
 4582TIP3    H135161   0.703   5.276  11.605  1.2092  0.5862  0.5280
 4582TIP3    H235162   0.645   5.214  11.730 -1.5222  3.1111  0.6345
 4583TIP3   OH235163   4.852   4.045  10.907  0.3892  0.0755 -0.3315
 4583TIP3    H135164   4.766   4.017  10.938  0.5051 -2.6825 -2.0714
 4583TIP3    H235165   4.911   4.029  10.980 -0.0910 -1.4464 -0.2357
 4584TIP3   OH235166   2.393   4.504   1.507 -0.4973 -0.2832  0.4960
 4584TIP3    H135167   2.342   4.568   1.457 -1.0721 -0.3529  0.9813
 4584TIP3    H235168   2.328   4.446   1.545 -0.1592  0.3886  2.1873
 4585TIP3   OH235169   0.324   1.755  12.240 -0.0272 -0.1020 -0.2860
 4585TIP3    H135170   0.296   1.668  12.212 -0.8104 -0.0914  0.4378
 4585TIP3    H235171   0.257   1.814  12.207  0.9475  0.3611 -1.5379
 4586TIP3   OH235172   4.859   1.985  12.223 -0.1073  0.0386  0.3656
 4586TIP3    H135173   4.800   2.046  12.180 -0.9388 -0.9353  0.0831
 4586TIP3    H235174   4.801   1.927  12.273  0.5935 -0.9776  0.0359
 4587TIP3   OH235175   3.526   5.908   5.479 -0.3912  0.4942 -0.4009
 4587TIP3    H135176   3.501   5.848   5.550  0.7246 -0.6474 -0.9412
 4587TIP3    H235177   3.468   5.885   5.407 -0.9675  1.1008 -0.1466
 4588TIP3   OH235178   1.550   1.891   0.159 -0.6078 -0.6909 -0.3150
 4588TIP3    H135179   1.501   1.914   0.238  0.0885 -1.3390  0.3244
 4588TIP3    H235180   1.487   1.900   0.088 -1.3463 -0.4467  0.3603
 4589TIP3   OH235181   4.937   4.969  16.143 -0.3388  0.2882 -0.3933
 4589TIP3    H135182   4.994   4.930  16.076  1.4286  2.7778 -0.4933
 4589TIP3    H235183   4.849   4.957  16.109  0.3220 -0.9792 -1.7900
 4590TIP3   OH235184   5.164   5.086   2.223  0.0219  0.6849  0.2147
 4590TIP3    H135185   5.138   5.097   2.131  0.5685 -1.3423 -0.2322
 4590TIP3    H235186   5.085   5.105   2.273 -0.7018  0.3556 -0.7653
 4591TIP3   OH235187   4.199   1.607   2.809 -0.1633 -0.3743 -0.0423
 4591TIP3    H135188   4.137   1.537   2.831 -0.0824 -0.7452 -0.9359
 4591TIP3    H235189   4.165   1.644   2.727 -0.0789  0.4889  0.3024
 4592TIP3   OH235190   6.713   5.982  15.958  0.2446  0.1694  0.2523
 4592TIP3    H135191   6.618   5.972  15.962  0.4373 -1.7007  1.1065
 4592TIP3    H235192   6.737   6.019  16.044  0.2850  0.8769 -0.0550
 4593TIP3   OH235193   4.571   2.876   4.910  0.1898 -0.6977  0.6191
 4593TIP3    H135194   4.664   2.862   4.896 -0.2369 -0.9558 -2.6600
 4593TIP3    H235195   4.533   2.788   4.916 -0.3213 -0.8637 -2.8642
 4594TIP3   OH235196   3.629   5.711   2.370  0.3294  0.2953 -0.4026
 4594TIP3    H135197   3.635   5.800   2.405  1.0730  0.2424 -0.3955
 4594TIP3    H235198   3.639   5.654   2.446  1.0324  0.1922 -0.5723
 4595TIP3   OH235199   2.330   0.736   4.658  0.2427 -0.4714 -0.8447
 4595TIP3    H135200   2.389   0.806   4.687  1.6148 -2.4366  1.4993
 4595TIP3    H235201   2.361   0.713   4.571  0.5607  0.9717 -1.1414
 4596TIP3   OH235202   2.107   0.542   1.213 -0.1289 -0.3072  0.3459
 4596TIP3    H135203   2.152   0.599   1.150  0.2491 -2.1656 -1.1544
 4596TIP3    H235204   2.033   0.594   1.244  0.3561  1.0896 -0.7505
 4597TIP3   OH235205   2.429   0.185   0.105 -0.3483  0.3678 -0.6228
 4597TIP3    H135206   2.514   0.223   0.128 -0.7381  0.1725  1.3186
 4597TIP3    H235207   2.449   0.123   0.034  1.4226 -0.8184  0.8261
 4598TIP3   OH235208   0.097   2.682   2.448 -0.7073 -0.8049  0.2029
 4598TIP3    H135209   0.128   2.593   2.429  0.0574 -1.0092  2.1654
 4598TIP3    H235210   0.044   2.672   2.527 -1.1915  0.3798  0.0392
 4599TIP3   OH235211   2.299   2.382  14.213  0.1557 -0.0481  0.3356
 4599TIP3    H135212   2.306   2.319  14.140  0.2065  1.8711 -1.4058
 4599TIP3    H235213   2.389   2.391  14.245  0.4929  0.5250 -0.6942
 4600TIP3   OH235214   6.171   5.288   2.245 -0.3823 -0.2600  0.3858
 4600TIP3    H135215   6.207   5.266   2.332  0.2198  0.0569  0.2211
 4600TIP3    H235216   6.157   5.203   2.203  1.2593 -0.3726  0.0234
 4601TIP3   OH235217   6.220   4.139   1.278 -0.3720 -0.2447 -0.3803
 4601TIP3    H135218   6.152   4.197   1.244 -0.6478 -0.6549 -0.5384
 4601TIP3    H235219   6.211   4.059   1.226 -0.6483 -0.8030  0.5028
 4602TIP3   OH235220   1.207   3.074  13.318  0.1435  0.3536  0.2190
 4602TIP3    H135221   1.269   3.023  13.370  0.3412  0.4319  0.0641
 4602TIP3    H235222   1.128   3.021  13.316 -0.4979  1.1677  2.1431
 4603TIP3   OH235223   6.136   0.681  15.882 -0.0622 -0.1771  0.0480
 4603TIP3    H135224   6.123   0.632  15.800  0.8608  0.1875 -0.3250
 4603TIP3    H235225   6.048   0.711  15.905 -0.1092  1.2676 -1.7923
 4604TIP3   OH235226   4.049   2.253   5.485  0.1352  0.5853 -0.3714
 4604TIP3    H135227   3.967   2.218   5.519  1.1336 -0.2971  1.2997
 4604TIP3    H235228   4.034   2.347   5.479 -0.6990  0.5547  0.8325
 4605TIP3   OH235229   3.530   4.396  12.028  0.4382  0.1349  0.0937
 4605TIP3    H135230   3.541   4.489  12.007  0.5979 -0.4755 -3.0505
 4605TIP3    H235231   3.475   4.362  11.958  0.3325 -2.1518  1.1916
 4606TIP3   OH235232   1.905   1.589   4.937 -0.0077 -0.4987 -0.7798
 4606TIP3    H135233   1.903   1.531   4.861 -1.5646 -2.6929  0.8037
 4606TIP3    H235234   1.969   1.550   4.995  0.8689  0.9292 -0.7339
 4607TIP3   OH235235   6.413   4.486  13.593  0.1976 -0.7417  1.0490
 4607TIP3    H135236   6.324   4.464  13.565  0.7069 -0.7225 -0.7278
 4607TIP3    H235237   6.458   4.402  13.600  0.9450 -0.6348 -1.4718
 4608TIP3   OH235238   4.893   1.218  16.566  0.3548  0.1633  0.1516
 4608TIP3    H135239   4.980   1.251  16.589 -0.2923  1.4855  0.7599
 4608TIP3    H235240   4.833   1.289  16.588 -0.8472 -0.5455 -0.7003
 4609TIP3   OH235241   0.449   1.339  14.525 -0.2583 -0.1128 -0.9804
 4609TIP3    H135242   0.407   1.403  14.466  0.1271 -1.5009 -2.8703
 4609TIP3    H235243   0.540   1.367  14.530 -0.6601  1.0366  0.4751
 4610TIP3   OH235244   2.797   1.930   5.174 -0.5277  0.3162  0.6164
 4610TIP3    H135245   2.802   1.997   5.106  1.6431  0.4680  0.8654
 4610TIP3    H235246   2.881   1.935   5.219 -0.5777 -2.0690  1.1070
 4611TIP3   OH235247   5.749   4.121   0.214 -0.9742 -0.1096  0.2608
 4611TIP3    H135248   5.658   4.089   0.215 -1.0121  0.0105  0.9339
 4611TIP3    H235249   5.792   4.068   0.146 -1.2116 -1.1134  0.8712
 4612TIP3   OH235250   2.008   5.716  15.227  0.5459 -0.4287  0.8908
 4612TIP3    H135251   1.924   5.671  15.235  0.0059  0.7959  2.8539
 4612TIP3    H235252   1.984   5.808  15.211  1.5874 -0.4514 -1.1247
 4613TIP3   OH235253   4.172   3.786   4.655 -0.2763  0.1873  0.0463
 4613TIP3    H135254   4.173   3.794   4.560 -0.0493 -0.5138 -0.0177
 4613TIP3    H235255   4.208   3.869   4.687 -4.2906  2.3147 -0.3110
 4614TIP3   OH235256   6.088   5.617   3.037 -0.0044 -0.4531  0.3187
 4614TIP3    H135257   6.025   5.549   3.014 -0.0365 -0.2417 -0.2372
 4614TIP3    H235258   6.112   5.598   3.127  0.7623 -1.8086 -0.1545
 4615TIP3   OH235259   2.517   5.253  14.850 -0.2663 -0.5361 -0.1437
 4615TIP3    H135260   2.444   5.219  14.798  1.0119 -0.8597 -1.8095
 4615TIP3    H235261   2.548   5.328  14.800  0.6539 -0.5056  0.4616
 4616TIP3   OH235262   2.870   4.019   4.688 -0.3309 -0.0152 -0.0375
 4616TIP3    H135263   2.851   4.093   4.745 -0.6914  0.6717 -1.0143
 4616TIP3    H235264   2.960   4.033   4.659 -0.7419  0.6491 -1.0627
 4617TIP3   OH235265   4.681   4.849   3.515  0.1498 -0.1821  0.1304
 4617TIP3    H135266   4.657   4.790   3.443  3.4221 -0.2571 -1.1007
 4617TIP3    H235267   4.678   4.936   3.476  2.6660 -0.2755 -0.5077
 4618TIP3   OH235268   0.047   1.132  14.720 -0.3951 -0.1581 -0.0225
 4618TIP3    H135269  -0.013   1.183  14.775  0.8285 -0.1182  1.3378
 4618TIP3    H235270   0.009   1.136  14.632 -1.0583  1.9328  0.3157
 4619TIP3   OH235271   2.500   4.121   5.524  0.5424 -0.6537  0.2255
 4619TIP3    H135272   2.409   4.140   5.501 -0.2084 -2.9317  1.1070
 4619TIP3    H235273   2.550   4.151   5.447 -0.8009  1.4625  0.0991
 4620TIP3   OH235274   4.680   1.087  16.741 -0.0316  0.1661 -0.1452
 4620TIP3    H135275   4.727   1.093  16.658 -1.9206  0.6563 -1.2219
 4620TIP3    H235276   4.727   1.147  16.800 -0.8447  2.7553 -1.9747
 4621TIP3   OH235277   2.412   2.469  16.415 -0.3927  0.2976  0.2794
 4621TIP3    H135278   2.444   2.443  16.329  1.7186  2.9360  0.1232
 4621TIP3    H235279   2.365   2.551  16.399  1.6617  1.8711  1.7523
 4622TIP3   OH235280   3.457   2.090   2.087 -0.4238 -0.3505 -0.3419
 4622TIP3    H135281   3.446   2.182   2.111 -2.4738 -1.2233  2.6078
 4622TIP3    H235282   3.402   2.080   2.009 -0.3032  0.8629 -0.6140
 4623TIP3   OH235283   1.410   2.216  14.060  0.1328  0.4713 -0.7424
 4623TIP3    H135284   1.500   2.239  14.039 -0.1049  0.1062 -2.3143
 4623TIP3    H235285   1.358   2.289  14.025 -0.2039  0.5834 -0.0302
 4624TIP3   OH235286   3.791   4.191   3.830  0.1229  0.2251  0.0822
 4624TIP3    H135287   3.872   4.217   3.787  0.2846  2.2557  1.4547
 4624TIP3    H235288   3.820   4.147   3.910 -0.0584  1.4041  0.8306
 4625TIP3   OH235289   1.062   5.483   5.414 -0.2697 -0.7761  0.0398
 4625TIP3    H135290   1.014   5.476   5.496  1.1837 -0.7014  0.9446
 4625TIP3    H235291   1.153   5.462   5.437  0.5645  1.1925 -1.1183
 4626TIP3   OH235292   3.400   6.744   5.797 -0.2333  0.1695  0.1223
 4626TIP3    H135293   3.411   6.680   5.867 -0.9991  0.0205  0.1066
 4626TIP3    H235294   3.484   6.744   5.751 -0.0649 -0.4521  0.4260
 4627TIP3   OH235295   0.388   1.306   4.197 -0.4397  0.1293  0.0295
 4627TIP3    H135296   0.301   1.280   4.226 -0.2172  1.1065  1.7178
 4627TIP3    H235297   0.410   1.382   4.251  1.2925  0.1604 -0.6389
 4628TIP3   OH235298   2.640   4.694   3.055 -0.3195  0.4100 -0.4776
 4628TIP3    H135299   2.554   4.667   3.086  0.3840 -0.2888  0.9731
 4628TIP3    H235300   2.643   4.789   3.069 -1.7510  0.9137 -2.9413
 4629TIP3   OH235301   6.575   5.571   1.709  0.2586  0.0870  0.1535
 4629TIP3    H135302   6.659   5.617   1.714  0.4199  0.0414 -1.5364
 4629TIP3    H235303   6.594   5.493   1.657 -0.6332 -0.4086  0.5549
 4630TIP3   OH235304   5.107   3.381  14.454 -0.2039 -1.0534 -0.6555
 4630TIP3    H135305   5.071   3.320  14.518 -0.6044 -1.0974 -0.9201
 4630TIP3    H235306   5.108   3.332  14.372 -0.2620 -0.7983 -0.8089
 4631TIP3   OH235307   3.145   0.116  14.294  0.0781 -0.0429 -0.0812
 4631TIP3    H135308   3.129   0.125  14.200  2.3669  1.2601 -0.4112
 4631TIP3    H235309   3.082   0.176  14.335 -1.9762 -1.7153 -0.5978
 4632TIP3   OH235310   3.637   1.303  16.476 -0.3893  0.3645 -0.1364
 4632TIP3    H135311   3.692   1.237  16.519  0.0346  1.0388  0.3558
 4632TIP3    H235312   3.600   1.355  16.547 -1.2034  0.3026 -0.4940
 4633TIP3   OH235313   2.026   0.909  15.298  0.2034 -0.3007 -0.4980
 4633TIP3    H135314   1.983   0.980  15.346 -1.0177 -2.5053  1.8451
 4633TIP3    H235315   2.116   0.910  15.330 -0.2270 -0.8017  0.7650
 4634TIP3   OH235316   6.105   4.645  16.952  0.0105  0.5554  0.4442
 4634TIP3    H135317   6.032   4.695  16.988  0.2766  1.3105 -0.0428
 4634TIP3    H235318   6.154   4.708  16.899  0.7007 -0.0736  0.3097
 4635TIP3   OH235319   3.151   5.554   5.294  0.3536  0.0903  0.1202
 4635TIP3    H135320   3.174   5.537   5.385  0.2262 -1.0348 -0.0445
 4635TIP3    H235321   3.226   5.521   5.244 -0.0497 -0.3163 -0.2297
 4636TIP3   OH235322   2.910   3.820   2.096  0.0673  0.2384  0.4544
 4636TIP3    H135323   2.896   3.727   2.115 -0.8936  0.2280 -0.2354
 4636TIP3    H235324   2.948   3.821   2.009  0.4024  0.4768  0.6031
 4637TIP3   OH235325   0.112   4.761   4.325  0.1717  0.0801 -0.3752
 4637TIP3    H135326   0.130   4.787   4.235 -0.8190  1.8974 -0.1059
 4637TIP3    H235327   0.093   4.667   4.320  1.3477 -0.1087 -1.8467
 4638TIP3   OH235328   3.043   3.339   1.860 -0.1844 -0.8302  0.4261
 4638TIP3    H135329   3.012   3.249   1.861 -1.1418 -0.5506 -1.1882
 4638TIP3    H235330   3.067   3.355   1.769 -0.8672  0.8133  0.5092
 4639TIP3   OH235331   3.021   4.692  11.702 -0.3698 -0.0803 -0.9959
 4639TIP3    H135332   3.085   4.685  11.773 -0.6125 -0.1114 -0.7759
 4639TIP3    H235333   3.069   4.666  11.624  0.6018  2.2221 -1.2637
 4640TIP3   OH235334   1.644   2.808   5.876  0.0913  0.0722 -0.4895
 4640TIP3    H135335   1.620   2.857   5.954  1.4228 -0.1289  0.0722
 4640TIP3    H235336   1.739   2.801   5.880  0.0781 -1.0454 -1.4705
 4641TIP3   OH235337   1.592   4.073   4.775  0.1164 -0.3068 -0.2430
 4641TIP3    H135338   1.571   4.051   4.684  0.4101  1.3519 -0.7538
 4641TIP3    H235339   1.607   3.989   4.818 -0.1353 -1.1240 -1.6991
 4642TIP3   OH235340   6.053   2.949  15.461 -0.8229 -0.0191  0.4927
 4642TIP3    H135341   6.134   2.918  15.502 -0.5090  0.7856  0.4930
 4642TIP3    H235342   6.046   2.897  15.381 -0.2929 -0.0801  0.4813
 4643TIP3   OH235343   3.410   3.820   2.373  0.2783  0.3684  0.4367
 4643TIP3    H135344   3.475   3.826   2.443  0.1020  0.5230  0.5871
 4643TIP3    H235345   3.350   3.751   2.401  0.5657 -0.0023  0.1416
 4644TIP3   OH235346   0.424   4.025   1.805  0.2458  0.2077 -0.4964
 4644TIP3    H135347   0.483   3.949   1.805 -0.1253 -0.0946  0.7006
 4644TIP3    H235348   0.467   4.089   1.861 -0.3855  0.1201  0.1023
 4645TIP3   OH235349   4.585   0.190  11.899  0.5973 -0.3466  0.2079
 4645TIP3    H135350   4.501   0.204  11.856  0.6073 -0.3358  0.1918
 4645TIP3    H235351   4.582   0.244  11.978  0.8416  0.1484 -0.1179
 4646TIP3   OH235352   2.628   2.404  15.415 -0.0329  0.5884  0.3363
 4646TIP3    H135353   2.611   2.351  15.493  2.1682 -0.9740 -0.1512
 4646TIP3    H235354   2.609   2.494  15.442 -0.1799 -0.0189  2.3988
 4647TIP3   OH235355   0.371   5.017  15.405  0.1513 -0.5419  0.0106
 4647TIP3    H135356   0.285   5.008  15.446  1.3546 -1.5146  2.5603
 4647TIP3    H235357   0.414   4.934  15.422  1.6579 -0.0135 -1.0487
 4648TIP3   OH235358   0.812   1.268  13.207  0.3823  0.4460 -0.1571
 4648TIP3    H135359   0.766   1.202  13.155 -0.0444  1.0763 -0.5952
 4648TIP3    H235360   0.858   1.218  13.274 -0.2771 -0.2676 -0.2235
 4649TIP3   OH235361   2.061   0.657   5.208  0.1567  0.7487  0.1979
 4649TIP3    H135362   2.120   0.671   5.135 -0.0198  2.8972  0.4076
 4649TIP3    H235363   2.094   0.713   5.278  1.5946 -2.7639  2.6422
 4650TIP3   OH235364   0.548   0.511  13.479  0.2914  0.2280 -0.1663
 4650TIP3    H135365   0.554   0.530  13.385  1.4168  2.3622  0.2815
 4650TIP3    H235366   0.620   0.450  13.495 -0.8814 -1.4387 -0.9154
 4651TIP3   OH235367   5.790   2.825  12.428 -0.1555 -0.4114 -0.1257
 4651TIP3    H135368   5.872   2.801  12.472  0.1507  0.7814 -0.0020
 4651TIP3    H235369   5.747   2.741  12.409  0.4685 -1.0038  0.9911
 4652TIP3   OH235370   4.169   1.986   4.495  0.7985  0.4813  0.6747
 4652TIP3    H135371   4.257   2.024   4.489  0.6622  1.0419  1.9131
 4652TIP3    H235372   4.113   2.058   4.521  0.1744 -0.1221  1.0353
 4653TIP3   OH235373   3.998   0.229   1.628 -0.0521 -0.1081  0.0628
 4653TIP3    H135374   4.073   0.272   1.670 -1.7774  0.1621  3.1766
 4653TIP3    H235375   4.003   0.138   1.658 -1.3671  0.1117  1.0821
 4654TIP3   OH235376   1.947   4.847  12.915  0.2808  0.7642  0.3986
 4654TIP3    H135377   1.939   4.865  12.821  1.1647 -0.5199  0.0578
 4654TIP3    H235378   2.041   4.847  12.932  0.1034  2.1179  1.5413
 4655TIP3   OH235379   6.331   3.097  13.364 -0.2839 -0.0642 -0.5286
 4655TIP3    H135380   6.328   3.114  13.458 -0.3887 -1.3387 -0.2837
 4655TIP3    H235381   6.250   3.050  13.345 -0.0545 -0.2191 -1.1694
 4656TIP3   OH235382   0.241   3.862  16.228  0.1249 -0.1416 -0.3883
 4656TIP3    H135383   0.253   3.947  16.185 -0.4436  0.1318 -0.0202
 4656TIP3    H235384   0.203   3.807  16.160 -1.6436  0.5527 -0.0091
 4657TIP3   OH235385   6.141   6.267   0.712  0.3122  0.5955  0.4897
 4657TIP3    H135386   6.106   6.290   0.797 -3.0424  1.2200 -0.9272
 4657TIP3    H235387   6.152   6.172   0.715 -2.0209  0.2851  0.9437
 4658TIP3   OH235388   1.086   3.263   1.988 -0.0581  0.2261  0.0032
 4658TIP3    H135389   1.170   3.289   2.026 -0.3605  0.1432  0.7305
 4658TIP3    H235390   1.029   3.339   2.001 -0.4828 -0.2107  0.7111
 4659TIP3   OH235391   2.340   2.259  12.286  0.2513 -0.2431 -1.3364
 4659TIP3    H135392   2.263   2.316  12.287  0.0933 -0.4213  1.1205
 4659TIP3    H235393   2.386   2.278  12.367  1.6282 -1.7291 -1.7061
 4660TIP3   OH235394   5.926   3.480  15.785  0.1227 -0.0605  0.1701
 4660TIP3    H135395   5.847   3.516  15.824  0.7461  1.1481  0.3618
 4660TIP3    H235396   5.934   3.392  15.823 -0.0483  0.5616  1.7101
 4661TIP3   OH235397   1.626   3.103   0.439  0.1111  0.1955 -0.0921
 4661TIP3    H135398   1.709   3.138   0.406 -0.4033  2.3135  0.6663
 4661TIP3    H235399   1.640   3.009   0.445  2.5299  0.5059  0.1852
 4662TIP3   OH235400   5.154   4.580   3.462  0.0193  0.1645 -0.4827
 4662TIP3    H135401   5.172   4.520   3.390 -1.4047  2.3656 -2.8336
 4662TIP3    H235402   5.206   4.658   3.443  0.9061  0.2314  1.8364
 4663TIP3   OH235403   0.146   6.111  17.141 -0.6716  0.2643 -0.3404
 4663TIP3    H135404   0.108   6.162  17.213  0.0310  0.9671 -0.4597
 4663TIP3    H235405   0.070   6.078  17.093 -1.1428  0.9203 -0.0619
 4664TIP3   OH235406   1.273   1.653   2.818 -0.3115 -0.4396 -0.6625
 4664TIP3    H135407   1.244   1.565   2.839 -0.9374  0.2379  1.5775
 4664TIP3    H235408   1.256   1.704   2.897  2.3126  1.1515 -1.0023
 4665TIP3   OH235409   4.193   0.319  12.133 -0.4145  0.5108  0.3713
 4665TIP3    H135410   4.228   0.396  12.177 -0.0838  0.1090  0.8312
 4665TIP3    H235411   4.248   0.247  12.164 -1.7547 -0.1740  1.2295
 4666TIP3   OH235412   1.021   2.410  13.163  0.5139  0.2431 -0.6522
 4666TIP3    H135413   0.958   2.476  13.135  2.1540  1.2133 -2.3122
 4666TIP3    H235414   1.004   2.398  13.257 -2.2531  0.2380 -1.0703
 4667TIP3   OH235415   3.626   3.901  11.837 -0.0879  0.8094  0.3899
 4667TIP3    H135416   3.539   3.882  11.802 -0.0703  0.4040  0.5683
 4667TIP3    H235417   3.685   3.846  11.787 -0.1180 -0.1553  1.3859
 4668TIP3   OH235418   5.784   5.737   5.854  0.0454  0.1661 -0.4947
 4668TIP3    H135419   5.729   5.668   5.817  0.2121 -0.3475  0.1802
 4668TIP3    H235420   5.826   5.696   5.930  1.5548  0.4589 -1.1306
 4669TIP3   OH235421   2.038   6.038   5.602  0.3008  0.1780  0.1160
 4669TIP3    H135422   1.968   6.094   5.569 -0.7669 -0.3572  1.3700
 4669TIP3    H235423   2.028   5.955   5.555  0.2547  0.1925  0.1011
 4670TIP3   OH235424   2.271   6.454  16.315  0.1179  0.2503 -0.0174
 4670TIP3    H135425   2.299   6.392  16.382 -0.8218  1.0125  1.1115
 4670TIP3    H235426   2.316   6.425  16.236  0.8799 -0.9571  0.8224
 4671TIP3   OH235427   3.393   3.150  12.954 -0.0514  0.1026  0.5688
 4671TIP3    H135428   3.476   3.194  12.934 -0.8512  1.2557 -0.2982
 4671TIP3    H235429   3.330   3.187  12.892 -0.7531 -2.3773 -0.3081
 4672TIP3   OH235430   2.724   4.324  16.200  0.6010  0.0795 -0.7768
 4672TIP3    H135431   2.628   4.316  16.205  0.5565  1.1922  1.2258
 4672TIP3    H235432   2.753   4.240  16.165 -0.9266 -1.5098  1.4878
 4673TIP3   OH235433   3.201   0.476   2.568 -0.3761  0.0154  0.8495
 4673TIP3    H135434   3.155   0.433   2.640 -1.3768 -1.3942 -0.5402
 4673TIP3    H235435   3.235   0.404   2.515 -0.8297  0.9598 -0.8007
 4674TIP3   OH235436   4.573   0.128   1.120  0.1507 -0.3546 -0.5124
 4674TIP3    H135437   4.496   0.164   1.075 -0.0611  0.4485  0.4705
 4674TIP3    H235438   4.561   0.033   1.113 -1.6746 -0.2726  0.8203
 4675TIP3   OH235439   0.936   1.870   3.518 -0.5370  0.0157 -0.0768
 4675TIP3    H135440   0.870   1.932   3.487 -1.3462 -0.4296  0.7077
 4675TIP3    H235441   0.921   1.864   3.612  0.9188  0.2354  0.1924
 4676TIP3   OH235442   1.614   1.339   3.815  0.2071 -0.1037 -0.5849
 4676TIP3    H135443   1.588   1.351   3.906  0.3063  0.2897 -0.6042
 4676TIP3    H235444   1.604   1.245   3.799 -1.6795  0.0792 -0.7431
 4677TIP3   OH235445   4.736   4.114  17.030 -0.3292  0.4209 -0.4307
 4677TIP3    H135446   4.769   4.097  17.118 -0.0286  2.6892 -0.0250
 4677TIP3    H235447   4.643   4.093  17.034 -0.5788  1.6481  0.8229
 4678TIP3   OH235448   6.181   2.989  12.501 -0.1951 -0.5257  0.0462
 4678TIP3    H135449   6.165   2.953  12.414  1.5896  2.1377 -1.5143
 4678TIP3    H235450   6.095   3.017  12.532 -0.4722  1.7057 -2.4588
 4679TIP3   OH235451   2.109   4.182  11.781 -0.4506  0.3314 -0.0762
 4679TIP3    H135452   2.176   4.213  11.721 -0.9385  1.5333 -0.0376
 4679TIP3    H235453   2.156   4.158  11.861 -0.1069  1.8888  0.2247
 4680TIP3   OH235454   0.988   3.851   2.826  0.0375  0.2578  0.5304
 4680TIP3    H135455   0.968   3.758   2.824  1.4838 -0.0677 -0.7078
 4680TIP3    H235456   0.966   3.882   2.737  0.9899  0.7631  0.4631
 4681TIP3   OH235457   6.294   6.682  13.357 -0.3453  0.4660  0.2213
 4681TIP3    H135458   6.242   6.628  13.298  1.6809 -1.8995  0.4340
 4681TIP3    H235459   6.378   6.635  13.365  1.0616  2.9999  1.5026
 4682TIP3   OH235460   3.199   3.926   6.366  0.1948 -0.1638 -0.9415
 4682TIP3    H135461   3.253   3.901   6.441 -0.3151 -2.9753 -1.4069
 4682TIP3    H235462   3.242   3.885   6.291  0.4168  2.1803 -2.1895
 4683TIP3   OH235463   5.227   1.529  12.689  0.1833 -0.0168  0.3417
 4683TIP3    H135464   5.320   1.550  12.687  0.0291  0.8173  1.0345
 4683TIP3    H235465   5.185   1.610  12.716 -0.5813 -0.8397  1.7850
 4684TIP3   OH235466   2.400   2.167   2.892  0.0788 -0.3078  0.6731
 4684TIP3    H135467   2.471   2.121   2.847 -0.0845 -1.2321  1.3442
 4684TIP3    H235468   2.321   2.119   2.867 -0.1224 -0.2378  1.1769
 4685TIP3   OH235469   5.954   1.737   2.150 -0.0244  0.6200  0.4509
 4685TIP3    H135470   6.033   1.779   2.116  0.4385 -1.3131 -1.0916
 4685TIP3    H235471   5.909   1.705   2.072 -0.5816 -1.2486  1.4611
 4686TIP3   OH235472   6.002   2.190  16.785  0.2952  0.2410  0.1116
 4686TIP3    H135473   5.935   2.169  16.850  1.4378  0.6189  1.4754
 4686TIP3    H235474   6.083   2.197  16.836  1.3071  0.1915 -1.4181
 4687TIP3   OH235475   1.960   1.255   5.403  0.2738 -0.6895 -0.3519
 4687TIP3    H135476   1.937   1.284   5.491  0.8112 -3.3718  0.7681
 4687TIP3    H235477   1.918   1.320   5.345  0.1044  1.2793  1.8233
 4688TIP3   OH235478   6.223   4.415  15.229 -0.0320 -0.4481 -0.3673
 4688TIP3    H135479   6.157   4.352  15.200 -0.9184 -0.4067  1.4240
 4688TIP3    H235480   6.274   4.434  15.151 -1.0131 -1.8588 -1.3974
 4689TIP3   OH235481   6.706   4.848   4.570 -0.0598 -0.5732 -0.8161
 4689TIP3    H135482   6.659   4.899   4.636 -0.0093 -0.8091 -0.5955
 4689TIP3    H235483   6.798   4.875   4.579  0.3612 -2.3483  0.8793
 4690TIP3   OH235484   1.949   3.558   4.461 -0.4893  0.1987 -0.1887
 4690TIP3    H135485   1.983   3.596   4.541  0.2238  1.6008 -1.1165
 4690TIP3    H235486   1.992   3.607   4.391  1.4159 -3.0463 -1.5389
 4691TIP3   OH235487   5.505   5.028   4.552  1.1293  0.0674  0.5017
 4691TIP3    H135488   5.418   5.049   4.584  0.0233  0.5732 -2.4981
 4691TIP3    H235489   5.506   4.933   4.544  0.2196  0.1469 -0.9066
 4692TIP3   OH235490   2.491   5.287  17.056 -0.2405  0.1706 -0.1399
 4692TIP3    H135491   2.563   5.315  17.000 -0.0938 -0.9644 -0.5363
 4692TIP3    H235492   2.419   5.267  16.995 -1.2804  2.2504  0.2946
 4693TIP3   OH235493   1.756   3.995   1.470 -0.6295  0.2665  0.4485
 4693TIP3    H135494   1.693   3.989   1.542 -1.0294  0.0948  0.0885
 4693TIP3    H235495   1.710   3.958   1.395 -0.4340  0.9919 -0.0406
 4694TIP3   OH235496   0.635   2.589  12.339  0.0323  0.0948  0.3823
 4694TIP3    H135497   0.666   2.542  12.262  3.0667  0.9060  0.9926
 4694TIP3    H235498   0.568   2.649  12.304  0.8405 -0.0255 -1.5115
 4695TIP3   OH235499   6.013   1.632   5.742  0.2234  0.2159  0.1182
 4695TIP3    H135500   6.097   1.675   5.763  0.1900 -1.2660  4.0594
 4695TIP3    H235501   5.954   1.704   5.723  1.4817  1.6081  1.1972
 4696TIP3   OH235502   0.279   2.235  14.376  0.0613  0.1805  0.2587
 4696TIP3    H135503   0.322   2.149  14.380  0.6570  0.5065  1.1136
 4696TIP3    H235504   0.277   2.256  14.282  0.1932 -0.6214  0.0659
 4697TIP3   OH235505   1.774   5.938   4.010  0.6560 -0.0958  0.1051
 4697TIP3    H135506   1.738   5.873   3.950 -0.9863  0.2732  0.6426
 4697TIP3    H235507   1.773   5.895   4.096  1.7704 -0.1653  0.0968
 4698TIP3   OH235508   0.556   2.138   5.753  0.3850  0.2321 -0.0143
 4698TIP3    H135509   0.603   2.197   5.812  0.3196  2.0769 -1.7139
 4698TIP3    H235510   0.623   2.105   5.694  0.2237 -0.5371  0.2181
 4699TIP3   OH235511   1.480   3.783  13.378 -0.2112  0.6010  0.6821
 4699TIP3    H135512   1.477   3.745  13.466 -3.2808  1.4278  1.0613
 4699TIP3    H235513   1.486   3.877  13.392 -0.9549  0.7590  0.0385
 4700TIP3   OH235514   1.764   0.966  12.392  0.5012 -0.1397 -0.1014
 4700TIP3    H135515   1.812   0.957  12.309  1.5836 -0.0196  0.4832
 4700TIP3    H235516   1.776   0.881  12.435 -2.0247 -1.0604 -1.0220
 4701TIP3   OH235517   5.807   0.606  10.563  0.2014  0.2834 -0.0959
 4701TIP3    H135518   5.899   0.581  10.576 -0.3126 -2.2096 -0.7661
 4701TIP3    H235519   5.758   0.546  10.619 -1.0094  2.8979  1.8363
 4702TIP3   OH235520   2.794   2.851  13.524 -0.6606 -0.3893  0.1373
 4702TIP3    H135521   2.824   2.878  13.438  0.4167 -1.5851  0.1209
 4702TIP3    H235522   2.720   2.910  13.543 -0.1705  0.6625 -1.0746
 4703TIP3   OH235523   5.323   1.097  16.578  0.4727 -0.2721  0.4596
 4703TIP3    H135524   5.277   1.181  16.569  1.5660  0.1537 -2.0074
 4703TIP3    H235525   5.255   1.031  16.560  0.3415  0.2825 -1.3606
 4704TIP3   OH235526   1.288   3.095  15.737 -0.3595  0.0684  0.1394
 4704TIP3    H135527   1.364   3.121  15.685  2.1482 -0.9886  2.9680
 4704TIP3    H235528   1.238   3.176  15.748  1.9111  1.5258  0.5056
 4705TIP3   OH235529   3.114   2.894   4.245 -0.4720 -0.0656  0.2637
 4705TIP3    H135530   3.056   2.819   4.232 -0.6948  0.0726  0.4691
 4705TIP3    H235531   3.157   2.906   4.160 -0.3821 -0.4717  0.2494
 4706TIP3   OH235532   0.904   5.126   4.159 -0.2306 -0.6547 -0.3063
 4706TIP3    H135533   0.927   5.166   4.243 -0.3215 -1.2276 -0.0033
 4706TIP3    H235534   0.812   5.149   4.146 -0.0085  0.0824 -0.6257
 4707TIP3   OH235535   0.173   6.454  17.029 -0.0634 -0.0246  0.1819
 4707TIP3    H135536   0.234   6.475  17.099  1.3320 -1.2843 -0.6127
 4707TIP3    H235537   0.224   6.405  16.966 -1.6378 -0.1557 -1.0635
 4708TIP3   OH235538   6.266   3.563  16.105 -0.8246 -0.2596  0.3483
 4708TIP3    H135539   6.308   3.581  16.021 -0.7487  0.3745  0.5147
 4708TIP3    H235540   6.174   3.583  16.090 -1.1537 -1.9474 -0.1067
 4709TIP3   OH235541   6.661   0.318   1.251  0.6585 -0.2413 -0.4585
 4709TIP3    H135542   6.712   0.377   1.196 -0.0454 -1.8133 -2.9398
 4709TIP3    H235543   6.604   0.270   1.190 -1.1599 -1.1594  1.7889
 4710TIP3   OH235544   3.343   3.246   6.423  0.7754  0.6462  0.0355
 4710TIP3    H135545   3.277   3.223   6.488  0.0649 -1.3100 -1.3033
 4710TIP3    H235546   3.336   3.341   6.414 -3.0061  0.3811 -1.1980
 4711TIP3   OH235547   0.210   3.967   3.939 -0.2336 -0.2475  0.1892
 4711TIP3    H135548   0.228   3.957   4.033  0.1743 -1.6736 -0.0185
 4711TIP3    H235549   0.273   4.032   3.909 -1.0771  1.0213  1.1022
 4712TIP3   OH235550   6.126   5.879  10.737 -0.2618  0.1876 -0.6410
 4712TIP3    H135551   6.126   5.784  10.728 -0.4841 -0.0501  1.2900
 4712TIP3    H235552   6.217   5.902  10.756 -0.2605  0.3308 -0.8124
 4713TIP3   OH235553   0.211   1.014   0.877 -0.2725  0.2252 -0.4762
 4713TIP3    H135554   0.118   1.032   0.862 -0.4472 -0.5008 -0.3089
 4713TIP3    H235555   0.232   1.062   0.957 -0.8285 -0.5754  0.1819
 4714TIP3   OH235556   0.792   5.778  14.477  0.4767 -0.9325  0.0514
 4714TIP3    H135557   0.771   5.732  14.396  1.2127 -0.7673 -0.2434
 4714TIP3    H235558   0.820   5.865  14.449  0.0630 -0.6372  0.5346
 4715TIP3   OH235559   3.941   0.910  14.570 -0.5631 -0.8202  0.0431
 4715TIP3    H135560   3.929   0.822  14.537  2.2352 -0.4341 -2.4632
 4715TIP3    H235561   3.860   0.956  14.546 -1.3500 -2.2463 -0.1626
 4716TIP3   OH235562   3.787   6.348   1.363 -0.7986  0.1389  0.1641
 4716TIP3    H135563   3.752   6.421   1.310 -2.7623 -0.7952  0.0779
 4716TIP3    H235564   3.802   6.278   1.299  0.0458  0.0948  0.4011
 4717TIP3   OH235565   5.399   5.460   0.271 -0.1989 -0.1162  0.6542
 4717TIP3    H135566   5.317   5.459   0.321 -0.9495 -1.7168 -0.5417
 4717TIP3    H235567   5.413   5.369   0.246  2.8585 -0.2227  2.2091
 4718TIP3   OH235568   0.819   5.147   1.327  0.4340 -0.0901  0.2311
 4718TIP3    H135569   0.885   5.092   1.369 -0.3216 -0.5506  0.8312
 4718TIP3    H235570   0.773   5.189   1.399 -0.5493 -0.4931 -0.1496
 4719TIP3   OH235571   6.286   6.685   5.040  0.2555 -0.2810 -0.3995
 4719TIP3    H135572   6.225   6.741   4.991  0.5606  0.7722  0.3994
 4719TIP3    H235573   6.282   6.718   5.130  3.0810  0.8086 -0.5671
 4720TIP3   OH235574   6.418   6.086  15.087 -0.3501 -0.0492  0.3588
 4720TIP3    H135575   6.402   6.163  15.032 -0.1693 -0.5986 -0.4832
 4720TIP3    H235576   6.333   6.042  15.092 -0.0895 -0.6823 -0.5605
 4721TIP3   OH235577   2.949   3.880   1.252  0.6889  0.0428  0.3466
 4721TIP3    H135578   2.948   3.797   1.204  0.5316  0.0017  0.4193
 4721TIP3    H235579   2.890   3.936   1.202 -0.1425 -0.2667  0.9575
 4722TIP3   OH235580   1.900   6.314   5.279  0.2501  0.8398  0.1159
 4722TIP3    H135581   1.878   6.401   5.245  0.0955  1.3039  1.3700
 4722TIP3    H235582   1.818   6.279   5.312  0.1405 -0.1606 -1.1495
 4723TIP3   OH235583   1.310   2.138   1.601 -0.0746  0.2207  0.2059
 4723TIP3    H135584   1.215   2.135   1.599 -0.2443  3.0301  0.8609
 4723TIP3    H235585   1.334   2.095   1.684 -0.6334 -1.5197 -0.4876
 4724TIP3   OH235586   0.927   4.689   5.359 -0.0153  0.1346  0.1446
 4724TIP3    H135587   0.895   4.767   5.403 -0.0050  1.7978 -2.5940
 4724TIP3    H235588   1.015   4.712   5.329  0.6290 -1.5200  0.5990
 4725TIP3   OH235589   0.564   5.462   2.633  0.1600  0.5115 -0.0010
 4725TIP3    H135590   0.612   5.382   2.615  2.1728  1.6842 -0.1561
 4725TIP3    H235591   0.474   5.442   2.608  0.2120 -2.2335  1.6059
 4726TIP3   OH235592   2.735   6.657  13.703  0.4619  0.4860 -0.5355
 4726TIP3    H135593   2.783   6.617  13.776 -0.0576  0.8809  0.0341
 4726TIP3    H235594   2.707   6.582  13.650  0.9902  0.2032 -0.4240
 4727TIP3   OH235595   6.717   0.977   2.044  0.3375  0.5697  0.0823
 4727TIP3    H135596   6.680   0.979   2.133  1.3423  3.0916  0.5316
 4727TIP3    H235597   6.667   1.044   1.997 -0.0080 -0.5712 -1.2181
 4728TIP3   OH235598   5.341   6.535   0.674 -0.2566  0.1066 -0.5073
 4728TIP3    H135599   5.389   6.491   0.604  0.5210 -0.3416  0.2870
 4728TIP3    H235600   5.350   6.628   0.655  2.4217  0.1355  0.5295
 4729TIP3   OH235601   5.667   3.854  16.537  0.1942  1.1594 -1.2441
 4729TIP3    H135602   5.693   3.944  16.518 -1.5746  1.5897 -1.7676
 4729TIP3    H235603   5.741   3.818  16.586  0.9883  2.8472 -1.1297
 4730TIP3   OH235604   0.745   1.493  11.144  0.4493 -0.7237  0.2855
 4730TIP3    H135605   0.764   1.585  11.158  1.7188 -1.3123  3.1608
 4730TIP3    H235606   0.825   1.457  11.105 -0.1683 -0.6038 -1.1636
 4731TIP3   OH235607   3.924   4.148  12.957  0.8090  0.5124 -0.0646
 4731TIP3    H135608   3.884   4.086  12.897 -0.5458 -0.5394  1.7876
 4731TIP3    H235609   3.854   4.211  12.976  1.6411  1.6381 -0.5993
 4732TIP3   OH235610   3.641   3.554   5.234  0.2385 -0.3679  0.0224
 4732TIP3    H135611   3.580   3.566   5.307 -0.1244  0.7426 -0.4419
 4732TIP3    H235612   3.719   3.517   5.275 -0.1580 -0.2800  0.8862
 4733TIP3   OH235613   3.083   0.066   5.464 -0.5459  0.0537 -0.5416
 4733TIP3    H135614   3.079   0.110   5.549  0.5754  0.9909 -0.9417
 4733TIP3    H235615   3.164   0.099   5.424 -1.2832 -0.0319 -2.1685
 4734TIP3   OH235616   6.593   3.036   2.429  0.3806 -0.7834 -0.0003
 4734TIP3    H135617   6.637   2.961   2.389 -0.7767 -0.5811 -1.7816
 4734TIP3    H235618   6.605   3.108   2.367 -1.9804 -0.6094 -0.3596
 4735TIP3   OH235619   4.401   2.740   3.887  0.4507  0.1742 -0.1716
 4735TIP3    H135620   4.465   2.806   3.862  1.1393 -0.2940  0.3232
 4735TIP3    H235621   4.350   2.781   3.957  0.7702  0.2476  0.0215
 4736TIP3   OH235622   1.818   0.667  11.702  0.1848  0.2766 -0.5173
 4736TIP3    H135623   1.788   0.678  11.612  0.9287  1.5035 -0.6414
 4736TIP3    H235624   1.847   0.576  11.707 -1.8823 -0.4517 -0.8738
 4737TIP3   OH235625   6.410   2.613  13.459  0.3427  0.0514  0.0152
 4737TIP3    H135626   6.419   2.522  13.488 -0.7266 -0.3927 -0.9374
 4737TIP3    H235627   6.417   2.664  13.539  1.7430 -0.7971  0.4778
 4738TIP3   OH235628   3.032   2.387   0.421  0.4891 -0.3540  0.4283
 4738TIP3    H135629   3.010   2.359   0.510 -0.7653 -1.1039 -0.0941
 4738TIP3    H235630   3.045   2.481   0.428  2.2986 -0.6406  1.7490
 4739TIP3   OH235631   2.526   2.116   0.567 -0.1307  0.5175  0.3095
 4739TIP3    H135632   2.518   2.175   0.493 -0.7436  0.1056  0.0487
 4739TIP3    H235633   2.595   2.156   0.621  0.7311  0.5170 -0.7547
 4740TIP3   OH235634   0.091   0.741   3.930  0.7194 -0.0183 -0.2085
 4740TIP3    H135635   0.005   0.724   3.890 -0.2580 -0.5414  1.9587
 4740TIP3    H235636   0.149   0.676   3.890 -0.1313 -0.3537 -0.9422
 4741TIP3   OH235637   2.566   6.230   4.344  0.6285 -0.8470 -0.0240
 4741TIP3    H135638   2.626   6.262   4.277  2.6949 -1.3117  1.5118
 4741TIP3    H235639   2.591   6.139   4.358  0.0073 -0.8648  1.1133
 4742TIP3   OH235640   0.161   5.249   1.351 -0.7136 -0.1790 -0.1655
 4742TIP3    H135641   0.245   5.233   1.395 -0.2260 -1.5587 -1.5145
 4742TIP3    H235642   0.097   5.202   1.405 -0.3969 -0.3207  0.0901
 4743TIP3   OH235643   0.509   5.822  15.164 -0.1837 -0.4451  0.6100
 4743TIP3    H135644   0.511   5.918  15.161 -0.0689 -0.4585 -1.2418
 4743TIP3    H235645   0.562   5.799  15.240  1.2170  0.9452  0.1111
 4744TIP3   OH235646   4.075   6.637   2.650  0.4037  0.2740 -0.0307
 4744TIP3    H135647   3.997   6.688   2.672  0.8645  0.8185  0.3988
 4744TIP3    H235648   4.060   6.552   2.692 -0.2714  0.1240 -0.5587
 4745TIP3   OH235649   4.423   3.335  14.902 -0.0053  0.6054 -0.4692
 4745TIP3    H135650   4.515   3.319  14.923 -0.1625 -1.0156 -0.8772
 4745TIP3    H235651   4.399   3.411  14.956  1.3476  0.5495  0.2547
 4746TIP3   OH235652   1.202   5.360  16.771  0.4275 -0.2545 -0.5838
 4746TIP3    H135653   1.147   5.431  16.804 -0.0078 -0.1629 -1.4767
 4746TIP3    H235654   1.233   5.391  16.685  1.7196 -0.3857 -0.1879
 4747TIP3   OH235655   2.177   5.059   1.989 -0.5023  0.0322  0.3695
 4747TIP3    H135656   2.145   5.067   1.899  0.4279  0.1862  0.0475
 4747TIP3    H235657   2.227   5.139   2.004 -1.0980  0.2720  1.2232
 4748TIP3   OH235658   6.535   0.326  15.302 -0.2833 -0.3771 -0.3816
 4748TIP3    H135659   6.519   0.387  15.230 -4.0240 -0.4966  0.1221
 4748TIP3    H235660   6.608   0.364  15.350 -0.7963  2.3425 -1.5705
 4749TIP3   OH235661   2.717   0.593  15.310  0.5714 -0.2964 -0.3171
 4749TIP3    H135662   2.743   0.616  15.400 -0.4509  0.3177 -0.1709
 4749TIP3    H235663   2.787   0.535  15.280  0.5103 -1.1949  1.1702
 4750TIP3   OH235664   1.110   0.570   2.016  0.3564 -0.1529  0.1209
 4750TIP3    H135665   1.170   0.636   2.050 -1.0965  0.3251  1.9040
 4750TIP3    H235666   1.165   0.513   1.961  3.1734 -1.4982  3.8808
 4751TIP3   OH235667   2.826   3.950  12.442 -0.1036  0.0729 -0.2823
 4751TIP3    H135668   2.829   3.949  12.538  0.0700 -0.5537 -0.2921
 4751TIP3    H235669   2.797   4.039  12.421 -2.0919 -0.3332  0.4119
 4752TIP3   OH235670   2.622   0.270  15.072  0.0758  0.0600  0.7788
 4752TIP3    H135671   2.662   0.344  15.025 -0.1846  0.7669  1.6418
 4752TIP3    H235672   2.530   0.295  15.081 -0.2426 -0.8420  0.1976
 4753TIP3   OH235673   5.895   4.902  11.712  0.8365  0.6402  0.1867
 4753TIP3    H135674   5.984   4.869  11.699  0.9470  0.8104  0.4898
 4753TIP3    H235675   5.861   4.852  11.786  0.8949  0.9787  0.4495
 4754TIP3   OH235676   6.469   5.880   2.758  0.0821  0.5022  0.3967
 4754TIP3    H135677   6.461   5.917   2.845 -0.7526  0.5680  0.3041
 4754TIP3    H235678   6.553   5.913   2.725  0.6702  0.0324  1.3673
 4755TIP3   OH235679   4.902   2.185   0.734  0.4300  1.2726 -0.1988
 4755TIP3    H135680   4.911   2.092   0.710  2.7120  0.6227  2.5514
 4755TIP3    H235681   4.819   2.212   0.696 -1.8626 -2.7780  1.2970
 4756TIP3   OH235682   0.269   1.607   3.981 -0.2207  0.1954  0.4801
 4756TIP3    H135683   0.275   1.674   4.049 -0.3940  1.6102 -0.8418
 4756TIP3    H235684   0.286   1.654   3.899  0.1333 -1.4771 -0.4595
 4757TIP3   OH235685   2.694   6.575   1.100 -0.1319  0.0904 -0.5676
 4757TIP3    H135686   2.692   6.570   1.195  0.8335 -1.8870 -0.5974
 4757TIP3    H235687   2.742   6.655   1.081  1.1218 -0.3250  0.6496
 4758TIP3   OH235688   6.153   6.624   0.044  0.2564  0.1667 -0.0251
 4758TIP3    H135689   6.130   6.700  -0.010 -0.1216 -1.1450 -1.7960
 4758TIP3    H235690   6.107   6.638   0.127 -3.5836 -0.2440 -1.8982
 4759TIP3   OH235691   5.311   4.416  12.872  0.0498 -0.4416  0.1590
 4759TIP3    H135692   5.316   4.377  12.959 -2.8377 -0.7307  0.3123
 4759TIP3    H235693   5.290   4.343  12.814 -1.7159  0.2333 -0.1270
 4760TIP3   OH235694   3.797   0.990   6.459  0.1252 -0.0215  0.4933
 4760TIP3    H135695   3.707   1.010   6.432  0.0922  0.9898  1.2984
 4760TIP3    H235696   3.814   1.050   6.532  0.9856 -1.1299  1.2374
 4761TIP3   OH235697   3.278   1.251   2.384  0.3538 -0.1281  0.8468
 4761TIP3    H135698   3.190   1.287   2.376  0.7248  0.5762 -0.2225
 4761TIP3    H235699   3.334   1.327   2.398  0.9993 -0.3961 -0.1865
 4762TIP3   OH235700   3.193   0.466  11.994 -0.3053  0.1137 -0.0290
 4762TIP3    H135701   3.116   0.494  11.944 -0.7917 -0.3177  0.4630
 4762TIP3    H235702   3.184   0.371  11.999  0.3020  0.0550 -0.0260
 4763TIP3   OH235703   2.555   3.451   0.796  0.3082  0.2112 -1.0649
 4763TIP3    H135704   2.551   3.407   0.881  1.1425  0.0228 -1.1065
 4763TIP3    H235705   2.609   3.528   0.811  1.0959 -0.2227 -1.5711
 4764TIP3   OH235706   1.006   6.367  13.621 -0.3055  0.4963 -0.1247
 4764TIP3    H135707   1.063   6.389  13.548  0.0692 -0.0067  0.0092
 4764TIP3    H235708   1.055   6.302  13.671 -0.8218  0.3676  0.2256
 4765TIP3   OH235709   3.206   4.176  13.317  0.0255 -0.5785  0.1449
 4765TIP3    H135710   3.261   4.162  13.240  0.8510  2.7427 -0.0373
 4765TIP3    H235711   3.133   4.115  13.306  0.3399 -0.5538 -3.0359
 4766TIP3   OH235712   6.740   6.061  15.290  0.0925  0.6311  0.4308
 4766TIP3    H135713   6.794   6.023  15.221 -0.2139  0.4383  0.2954
 4766TIP3    H235714   6.743   5.997  15.361 -1.3452 -0.2119 -0.2227
 4767TIP3   OH235715   3.828   2.190  12.966  0.3874 -0.1682 -0.0246
 4767TIP3    H135716   3.826   2.285  12.960  1.1573 -0.2316 -2.1606
 4767TIP3    H235717   3.738   2.165  12.986 -0.0737  0.9661 -0.5923
 4768TIP3   OH235718   2.691   1.383  16.818  0.1995  0.1195 -0.2098
 4768TIP3    H135719   2.777   1.399  16.779 -0.0502 -1.6370 -1.6152
 4768TIP3    H235720   2.635   1.451  16.783  1.0294  1.4230  0.8941
 4769TIP3   OH235721   3.533   4.247  14.073 -0.6378 -0.0862 -0.4133
 4769TIP3    H135722   3.469   4.285  14.013  0.2012  0.7250 -0.8122
 4769TIP3    H235723   3.486   4.238  14.156 -1.4101  0.0211 -0.8283
 4770TIP3   OH235724   2.896   2.223   4.569 -0.1649  0.2215  0.0908
 4770TIP3    H135725   2.852   2.184   4.645  0.6104  2.3862  1.7628
 4770TIP3    H235726   2.934   2.149   4.523 -0.8376 -1.2064  1.7185
 4771TIP3   OH235727   2.963   5.034   6.718 -0.1033  0.2412 -0.0404
 4771TIP3    H135728   2.872   5.039   6.689  0.3149 -0.5954 -1.6227
 4771TIP3    H235729   2.974   4.942   6.742  0.4786  0.2042 -0.4385
 4772TIP3   OH235730   0.622   2.848  13.582 -0.0882 -0.1303  0.2073
 4772TIP3    H135731   0.655   2.761  13.561  0.1505  0.2892 -1.2523
 4772TIP3    H235732   0.629   2.897  13.500  0.2932  1.4271  1.1254
 4773TIP3   OH235733   1.589   2.122  15.122  0.2146  0.2576 -0.5254
 4773TIP3    H135734   1.496   2.104  15.134  0.1650  0.7233 -0.1901
 4773TIP3    H235735   1.630   2.091  15.203  0.5356 -1.1999 -1.2206
 4774TIP3   OH235736   6.558   0.258  14.259  0.0138  0.1494 -0.5492
 4774TIP3    H135737   6.558   0.239  14.353 -1.6396  0.4677 -0.4553
 4774TIP3    H235738   6.547   0.353  14.254 -0.9472  0.0246 -1.0558
 4775TIP3   OH235739   5.077   0.437  15.994  0.7731 -0.3727 -0.4424
 4775TIP3    H135740   5.144   0.470  15.934  1.1428  0.7124  0.5403
 4775TIP3    H235741   5.063   0.508  16.057 -3.0155  0.4465 -1.9249
 4776TIP3   OH235742   5.531   3.140  11.262 -0.0816 -0.0922 -0.3820
 4776TIP3    H135743   5.523   3.145  11.167  1.0783  0.2991 -0.4773
 4776TIP3    H235744   5.532   3.232  11.291  2.5359 -0.0445 -0.3193
 4777TIP3   OH235745   2.099   0.970  10.462 -0.3782  0.2021 -0.0144
 4777TIP3    H135746   2.026   0.908  10.457 -0.0137 -0.2678  0.2789
 4777TIP3    H235747   2.161   0.928  10.522 -0.0755  0.8102  0.1055
 4778TIP3   OH235748   5.920   0.579  14.837  1.0458 -0.0766 -0.0574
 4778TIP3    H135749   5.845   0.528  14.807  1.2619  0.4277 -1.5135
 4778TIP3    H235750   5.949   0.534  14.917 -0.5920 -0.4651  0.3501
 4779TIP3   OH235751   5.873   1.023   0.429  0.2173 -0.1417  0.1023
 4779TIP3    H135752   5.836   1.007   0.343  4.6799 -3.1390 -1.6473
 4779TIP3    H235753   5.815   0.976   0.489 -0.7340 -1.6331 -1.8682
 4780TIP3   OH235754   5.770   3.103   4.868  0.1932  0.2731  0.1398
 4780TIP3    H135755   5.693   3.100   4.812  0.5797  2.0187 -0.5586
 4780TIP3    H235756   5.737   3.083   4.956 -0.7850 -0.4120 -0.3738
 4781TIP3   OH235757   2.720   5.684   0.252  0.0671  0.4873  0.1995
 4781TIP3    H135758   2.645   5.743   0.255 -0.4418 -0.1337 -0.1802
 4781TIP3    H235759   2.796   5.742   0.252 -0.3949  1.1164  0.9538
 4782TIP3   OH235760   0.426   4.849  13.268 -0.2161 -0.3397 -0.0754
 4782TIP3    H135761   0.496   4.886  13.321 -0.8943 -0.5362  0.9850
 4782TIP3    H235762   0.450   4.758  13.257 -0.0603 -0.2931 -0.1221
 4783TIP3   OH235763   0.203   6.152  12.667  0.5153 -0.3811 -0.6952
 4783TIP3    H135764   0.116   6.142  12.706 -0.1407 -0.0954 -2.0253
 4783TIP3    H235765   0.258   6.184  12.738 -1.0327  1.8073 -0.3791
 4784TIP3   OH235766   6.717   5.870   0.312  0.2401  0.4757  0.0854
 4784TIP3    H135767   6.756   5.867   0.225  0.4699  1.8426  0.1095
 4784TIP3    H235768   6.713   5.779   0.341  0.3114  0.0216 -1.2815
 4785TIP3   OH235769   5.183   4.628  14.626  0.2885  0.0936 -0.3178
 4785TIP3    H135770   5.096   4.588  14.629  0.4934 -0.3305  0.1561
 4785TIP3    H235771   5.240   4.564  14.669  0.7254  0.6442 -0.0633
 4786TIP3   OH235772   2.344   3.015  12.950 -0.0607  0.0061 -0.0036
 4786TIP3    H135773   2.314   2.961  13.023  0.0961  1.3764  1.1213
 4786TIP3    H235774   2.374   2.953  12.884 -0.9234 -1.2815  0.7849
 4787TIP3   OH235775   4.091   2.809   5.385  0.1189 -0.1322  0.3443
 4787TIP3    H135776   3.999   2.824   5.362  0.5615 -1.0927 -2.5282
 4787TIP3    H235777   4.095   2.716   5.407  0.1982  0.2136  1.8880
 4788TIP3   OH235778   0.567   0.240   0.563 -0.1507  0.0106  0.0861
 4788TIP3    H135779   0.621   0.318   0.554 -1.7072  0.9425 -2.1903
 4788TIP3    H235780   0.625   0.168   0.539  1.2055  0.4433  1.8453
 4789TIP3   OH235781   2.375   3.892  11.729  0.0944  0.5644 -0.1219
 4789TIP3    H135782   2.411   3.829  11.791 -2.6796 -0.0242  1.0430
 4789TIP3    H235783   2.367   3.973  11.779  1.9092  1.4161 -1.0838
 4790TIP3   OH235784   6.431   6.522  12.135 -0.3471 -0.3482  0.2532
 4790TIP3    H135785   6.429   6.617  12.140  0.2882 -0.2612 -0.8173
 4790TIP3    H235786   6.491   6.495  12.205 -0.8046 -0.0057  0.7901
 4791TIP3   OH235787   5.365   4.642  12.360 -0.4700 -0.1544 -0.8230
 4791TIP3    H135788   5.341   4.559  12.402 -0.3793  0.5303  0.6508
 4791TIP3    H235789   5.282   4.677  12.328 -0.5503 -0.6741 -1.1956
 4792TIP3   OH235790   4.188   3.708   0.040 -0.2567 -0.6020  0.0801
 4792TIP3    H135791   4.274   3.739   0.010  0.3510 -1.7114  0.6034
 4792TIP3    H235792   4.125   3.756  -0.014  0.7109 -0.3104 -0.8260
 4793TIP3   OH235793   0.812   5.290   2.380  0.7143  0.1416  0.4964
 4793TIP3    H135794   0.851   5.372   2.350 -1.4632  0.6482 -1.2611
 4793TIP3    H235795   0.781   5.309   2.468 -0.1806  1.4156 -0.0558
 4794TIP3   OH235796   3.076   2.632   3.964 -0.4689 -0.6260 -0.3789
 4794TIP3    H135797   3.105   2.546   3.934 -1.2742 -1.4895  1.2156
 4794TIP3    H235798   3.125   2.647   4.045 -1.7091 -0.4472  0.3589
 4795TIP3   OH235799   6.366   5.765  14.309 -0.1508  0.0542  0.0717
 4795TIP3    H135800   6.289   5.816  14.331  0.2170  0.8336 -0.4066
 4795TIP3    H235801   6.355   5.682  14.356 -1.8337 -0.3040 -0.8885
 4796TIP3   OH235802   2.890   5.273  15.581 -0.1415 -0.0008  0.0093
 4796TIP3    H135803   2.829   5.219  15.632  0.4362 -0.7614 -0.0872
 4796TIP3    H235804   2.970   5.221  15.577 -0.1218  0.0935 -1.5597
 4797TIP3   OH235805   6.135   4.316   3.741 -0.0378 -1.0272 -0.2761
 4797TIP3    H135806   6.126   4.369   3.820  1.7903 -0.4242 -0.4159
 4797TIP3    H235807   6.063   4.343   3.685  0.8206  1.3429 -0.3224
 4798TIP3   OH235808   6.008   2.151   3.154  0.0457  0.2276 -0.0182
 4798TIP3    H135809   5.961   2.200   3.086 -2.1876  0.1437  1.3759
 4798TIP3    H235810   6.090   2.200   3.166 -0.9999  2.1682 -0.4256
 4799TIP3   OH235811   5.687   3.113   6.100  0.2963 -0.6400  0.0194
 4799TIP3    H135812   5.713   3.149   6.184 -2.2761  2.0454 -0.1724
 4799TIP3    H235813   5.749   3.149   6.037  1.0747 -1.1304  0.4827
 4800TIP3   OH235814   5.967   1.722   2.620 -0.4506 -0.5448 -0.5119
 4800TIP3    H135815   5.997   1.793   2.563 -1.2503  0.9405  0.8356
 4800TIP3    H235816   5.891   1.759   2.666  0.7857 -1.2275  2.3252
 4801TIP3   OH235817   3.609   4.968   4.061  0.3069 -0.2940 -0.4966
 4801TIP3    H135818   3.606   4.906   3.988 -0.7875 -0.4306 -0.3581
 4801TIP3    H235819   3.669   5.036   4.032  1.8619 -1.6008 -0.4977
 4802TIP3   OH235820   0.490   2.275  16.777  0.4120  0.0231  0.0655
 4802TIP3    H135821   0.563   2.269  16.840  0.3550 -0.6043  0.0822
 4802TIP3    H235822   0.424   2.215  16.812 -0.4216  1.1256  0.4431
 4803TIP3   OH235823   2.637   5.126   6.120 -0.9424 -0.1248  0.0132
 4803TIP3    H135824   2.548   5.092   6.127  0.0971 -3.0178  0.7180
 4803TIP3    H235825   2.688   5.072   6.180  1.1907  1.9198  0.1713
 4804TIP3   OH235826   6.301   5.253  16.976  0.0801  0.1746  0.7321
 4804TIP3    H135827   6.370   5.292  16.922  0.1454  0.0575  0.7292
 4804TIP3    H235828   6.316   5.289  17.064  0.0201  0.3074  0.6875
 4805TIP3   OH235829   6.571   2.037  10.675  0.0713 -0.1518 -0.1902
 4805TIP3    H135830   6.480   2.064  10.685  1.0949  3.5690  0.5733
 4805TIP3    H235831   6.591   2.056  10.583  0.4572  0.4303  0.0118
 4806TIP3   OH235832   1.050   2.155   4.826  0.3401  0.0283 -0.1143
 4806TIP3    H135833   0.995   2.198   4.891 -0.1986 -1.4513  0.4272
 4806TIP3    H235834   1.083   2.228   4.772 -2.4964  0.9554 -0.7566
 4807TIP3   OH235835   4.951   4.480  14.477 -0.1505  0.1090 -0.3687
 4807TIP3    H135836   4.985   4.449  14.393  0.6700  1.4801 -0.5721
 4807TIP3    H235837   4.885   4.545  14.454  1.0952  1.5533  0.0188
 4808TIP3   OH235838   5.210   2.845   3.289 -0.4138  0.0996  0.2506
 4808TIP3    H135839   5.173   2.907   3.352  0.1222  1.4549 -0.7207
 4808TIP3    H235840   5.243   2.900   3.218 -1.1494 -1.3897 -1.3092
 4809TIP3   OH235841   2.571   2.401  14.109 -0.2784  0.2589  0.1399
 4809TIP3    H135842   2.617   2.472  14.154 -0.2597  0.9008 -0.8674
 4809TIP3    H235843   2.642   2.347  14.073 -0.2332  1.4668 -1.7562
 4810TIP3   OH235844   2.862   6.368   2.285 -0.3517  0.1294 -0.4349
 4810TIP3    H135845   2.867   6.273   2.289 -0.4184  0.1265 -0.4026
 4810TIP3    H235846   2.940   6.395   2.237 -0.3479  0.0571 -0.4699
 4811TIP3   OH235847   4.518   0.887  11.843 -0.8940  0.4639 -0.1953
 4811TIP3    H135848   4.510   0.869  11.937 -2.1273  0.0626 -0.3529
 4811TIP3    H235849   4.581   0.959  11.838 -2.3652  1.9367  1.1203
 4812TIP3   OH235850   6.608   0.284  12.081  0.1842 -0.1756 -0.8010
 4812TIP3    H135851   6.679   0.224  12.104  0.9985  0.5407 -1.3954
 4812TIP3    H235852   6.549   0.281  12.156  0.4655 -1.3204 -0.5949
 4813TIP3   OH235853   5.733   3.866   5.758  0.3379  0.4155  0.0617
 4813TIP3    H135854   5.681   3.793   5.791  0.7985 -0.6363 -1.4539
 4813TIP3    H235855   5.823   3.846   5.785  0.4724  0.4051 -0.3953
 4814TIP3   OH235856   4.643   0.521   4.724  0.0060  0.5761  0.1677
 4814TIP3    H135857   4.704   0.565   4.782  0.7032 -1.2083  0.8580
 4814TIP3    H235858   4.689   0.515   4.640  0.8000 -0.6694  0.6576
 4815TIP3   OH235859   4.023   1.327   4.299  0.3624  0.6033  0.2440
 4815TIP3    H135860   4.004   1.419   4.281 -2.3658 -0.1997 -1.5578
 4815TIP3    H235861   4.086   1.302   4.232  0.3410  0.9036  0.1083
 4816TIP3   OH235862   0.371   5.340  11.549 -0.7628  0.3863 -0.1468
 4816TIP3    H135863   0.416   5.275  11.602 -1.3256 -0.0294 -0.1705
 4816TIP3    H235864   0.355   5.413  11.608  0.8326  0.9697 -0.3908
 4817TIP3   OH235865   3.861   1.508  12.271 -0.0338  0.1021  0.5019
 4817TIP3    H135866   3.802   1.460  12.213 -0.9567  1.7011  0.0503
 4817TIP3    H235867   3.832   1.484  12.359 -0.8753  0.2922  0.2865
 4818TIP3   OH235868   4.276   0.865   1.656  0.2018  0.0999  0.6308
 4818TIP3    H135869   4.310   0.834   1.739  1.5012 -1.1040 -0.3135
 4818TIP3    H235870   4.278   0.789   1.598 -1.5511  0.6731 -0.2695
 4819TIP3   OH235871   6.077   1.885   1.270 -0.2953  0.1935 -0.2093
 4819TIP3    H135872   6.001   1.864   1.326 -0.9021  1.5109 -0.5143
 4819TIP3    H235873   6.139   1.928   1.329 -0.6194  0.8960 -0.3703
 4820TIP3   OH235874   6.049   2.806  15.199 -0.0577  0.3243  0.2661
 4820TIP3    H135875   6.054   2.835  15.107 -1.5692 -1.3499 -0.3983
 4820TIP3    H235876   6.125   2.750  15.211 -0.0173  0.3106 -0.0484
 4821TIP3   OH235877   3.504   3.558  11.740  0.9153  0.4281  0.1249
 4821TIP3    H135878   3.566   3.615  11.694  0.3110 -0.5574 -2.0341
 4821TIP3    H235879   3.464   3.505  11.671 -0.0609 -1.1603  1.8114
 4822TIP3   OH235880   4.882   1.721  17.125  0.2021 -0.4828 -0.1720
 4822TIP3    H135881   4.834   1.799  17.098 -1.0343 -1.1662 -0.0463
 4822TIP3    H235882   4.841   1.696  17.208  0.9492 -0.9514  0.0618
 4823TIP3   OH235883   3.968   4.398   4.152  0.3491 -0.0175 -0.4039
 4823TIP3    H135884   3.901   4.365   4.212  0.9515 -0.5978 -0.0422
 4823TIP3    H235885   4.032   4.327   4.145  1.8754  1.1565  0.6930
 4824TIP3   OH235886   2.645   3.789  12.317 -0.3423  0.1686  0.6670
 4824TIP3    H135887   2.699   3.863  12.344 -1.1351  0.0804  2.6975
 4824TIP3    H235888   2.579   3.827  12.260 -1.1035  1.1981  2.1593
 4825TIP3   OH235889   5.429   4.405  13.453 -0.7509 -0.5998  0.5717
 4825TIP3    H135890   5.476   4.468  13.508 -1.4729 -2.3192  3.3340
 4825TIP3    H235891   5.495   4.371  13.393  0.2664  0.7547  0.8780
 4826TIP3   OH235892   4.719   4.136  13.787  0.3728  0.3100 -0.4485
 4826TIP3    H135893   4.729   4.083  13.867  1.3124  0.1985 -0.6346
 4826TIP3    H235894   4.799   4.121  13.737  0.2773  1.2361 -0.9108
 4827TIP3   OH235895   3.505   2.095   3.831  0.3379 -0.3395  0.4683
 4827TIP3    H135896   3.503   2.042   3.751  0.4610 -0.2441  0.4009
 4827TIP3    H235897   3.517   2.031   3.901 -1.1770 -0.5626  0.5513
 4828TIP3   OH235898   6.204   4.475   2.768 -0.1596  0.5436  0.2894
 4828TIP3    H135899   6.225   4.544   2.831  0.5736 -0.2870  0.9752
 4828TIP3    H235900   6.265   4.489   2.696  1.0362 -0.2731  1.1040
 4829TIP3   OH235901   4.948   0.538   3.642  0.1766 -0.3347 -0.3538
 4829TIP3    H135902   5.022   0.598   3.638 -0.7433  0.7813 -1.2348
 4829TIP3    H235903   4.884   0.581   3.699 -0.4485 -0.5263 -0.8916
 4830TIP3   OH235904   0.545   1.006  16.070  0.2884 -0.1871 -0.3826
 4830TIP3    H135905   0.551   0.912  16.087 -0.4541  0.0594  1.5933
 4830TIP3    H235906   0.533   1.044  16.157  1.1240  1.7953 -1.0896
 4831TIP3   OH235907   5.210   2.805   2.098  0.8391 -0.0888  0.0585
 4831TIP3    H135908   5.189   2.868   2.167  0.4798 -0.6193  0.4367
 4831TIP3    H235909   5.161   2.837   2.021 -0.3380 -0.5891  0.5789
 4832TIP3   OH235910   2.744   2.803   5.713 -0.4929  0.3896  0.1668
 4832TIP3    H135911   2.819   2.754   5.747  0.8430  1.5015 -1.0596
 4832TIP3    H235912   2.692   2.824   5.791  1.5068  1.3023  1.3368
 4833TIP3   OH235913   5.203   4.959  16.730  0.5917  0.7009  0.3963
 4833TIP3    H135914   5.176   4.958  16.821 -1.0292  1.9915 -0.0199
 4833TIP3    H235915   5.263   5.034  16.723  1.1750  0.2522  0.5017
 4834TIP3   OH235916   6.724   0.986  10.682  0.3179 -0.1673 -0.0287
 4834TIP3    H135917   6.653   1.047  10.705  0.1248  0.9007 -2.9541
 4834TIP3    H235918   6.762   0.961  10.766 -1.3160  1.9213  1.4675
 4835TIP3   OH235919   0.285   2.590  16.280 -0.4522 -0.1400 -0.1009
 4835TIP3    H135920   0.351   2.523  16.264  1.7416  2.2961 -2.1048
 4835TIP3    H235921   0.213   2.567  16.221  1.1627  0.3331 -2.3689
 4836TIP3   OH235922   0.717   4.877   0.732  0.3546  0.3499  0.4504
 4836TIP3    H135923   0.726   4.831   0.649 -0.0893  0.3641  0.3939
 4836TIP3    H235924   0.624   4.900   0.738  0.5837  1.3312  0.4240
 4837TIP3   OH235925   3.681   5.897  16.231  0.2600 -0.2144  0.0038
 4837TIP3    H135926   3.641   5.943  16.304 -1.5286 -0.3111 -0.8611
 4837TIP3    H235927   3.655   5.947  16.154 -0.6182 -1.8828 -0.8398
 4838TIP3   OH235928   2.274   3.566  16.472  0.8118  0.0809  0.0159
 4838TIP3    H135929   2.307   3.596  16.557  0.4493  0.4008  0.0495
 4838TIP3    H235930   2.297   3.637  16.412 -1.6913  1.3829  0.4310
 4839TIP3   OH235931   2.574   6.377   3.091 -0.2215 -0.0893 -0.1399
 4839TIP3    H135932   2.480   6.377   3.076 -0.2640  0.3144  0.1104
 4839TIP3    H235933   2.609   6.317   3.025 -0.7861 -1.3106  0.6323
 4840TIP3   OH235934   1.239   3.123   1.417 -0.1087  0.0573  0.1296
 4840TIP3    H135935   1.323   3.133   1.372 -0.2706  0.6627 -0.0546
 4840TIP3    H235936   1.182   3.083   1.351 -0.4730  1.3729 -0.3706
 4841TIP3   OH235937   4.374   6.517  14.580 -0.1681  0.5706  0.0442
 4841TIP3    H135938   4.407   6.593  14.627  0.4759  0.6583 -0.5308
 4841TIP3    H235939   4.444   6.452  14.586  0.1587  0.7704 -1.2169
 4842TIP3   OH235940   6.306   4.919   5.002 -0.7788  0.0416 -0.3962
 4842TIP3    H135941   6.256   4.840   4.980 -0.3720 -0.6184  0.8956
 4842TIP3    H235942   6.370   4.888   5.066 -1.0781  1.5626  0.6756
 4843TIP3   OH235943   0.024   6.458  14.659 -0.4051 -0.0913  0.8164
 4843TIP3    H135944  -0.036   6.499  14.598 -1.2419  0.7337  2.1295
 4843TIP3    H235945   0.102   6.514  14.656 -0.3383 -0.2073  0.3211
 4844TIP3   OH235946   1.073   2.720   0.516  0.0258  0.1398 -0.3908
 4844TIP3    H135947   1.013   2.660   0.471  0.1536 -1.1713  1.0902
 4844TIP3    H235948   1.025   2.803   0.519 -1.2674 -0.5736 -0.2305
 4845TIP3   OH235949   1.396   6.241   2.827 -0.5703 -0.5582  0.0544
 4845TIP3    H135950   1.427   6.320   2.870 -3.2775  3.0346 -3.8870
 4845TIP3    H235951   1.462   6.221   2.761 -0.6026 -0.7139  0.0671
 4846TIP3   OH235952   6.650   1.508  12.663  0.0317 -0.0544  0.0086
 4846TIP3    H135953   6.703   1.492  12.585 -1.5464  2.7678 -1.8187
 4846TIP3    H235954   6.703   1.568  12.717 -0.1132  0.4817 -0.4361
 4847TIP3   OH235955   4.842   4.097  12.197  0.4320 -0.3639 -0.1724
 4847TIP3    H135956   4.835   4.130  12.286  1.6223 -3.6128  1.2732
 4847TIP3    H235957   4.751   4.078  12.172  0.2516 -1.8540  1.4334
 4848TIP3   OH235958   2.599   2.451   0.680 -0.2273 -0.4511 -0.3157
 4848TIP3    H135959   2.662   2.506   0.633  0.5243 -1.5581 -0.6551
 4848TIP3    H235960   2.639   2.436   0.765 -1.0126  0.5298  0.2454
 4849TIP3   OH235961   1.168   0.939  12.083  0.2628  0.0039 -0.3339
 4849TIP3    H135962   1.261   0.915  12.082  0.4950  0.8735 -1.1593
 4849TIP3    H235963   1.123   0.861  12.052  0.4527 -1.2838  2.2896
 4850TIP3   OH235964   2.025   6.504   3.840  0.2906  0.0119 -0.2815
 4850TIP3    H135965   1.990   6.524   3.753  0.4547  0.5761 -0.2173
 4850TIP3    H235966   2.038   6.409   3.839 -4.0354 -0.8048  0.6997
 4851TIP3   OH235967   5.686   1.334  15.671  0.3857 -0.3961  0.5530
 4851TIP3    H135968   5.663   1.249  15.710 -0.6589 -0.1969  0.4054
 4851TIP3    H235969   5.727   1.312  15.588 -0.8929 -0.7551 -0.0066
 4852TIP3   OH235970   2.649   0.931  13.041  0.2067  0.2790 -0.3604
 4852TIP3    H135971   2.676   0.972  13.123 -0.5658 -0.9976  0.5721
 4852TIP3    H235972   2.598   0.998  12.996  1.1630  1.2056 -0.1022
 4853TIP3   OH235973   2.719   5.827   3.521  0.4049 -0.5034 -0.3420
 4853TIP3    H135974   2.677   5.840   3.436 -1.4471 -0.4243  0.5360
 4853TIP3    H235975   2.733   5.733   3.528  1.2878 -0.4374 -1.0332
 4854TIP3   OH235976   5.990   5.095  13.952  0.2833  0.4465  0.2241
 4854TIP3    H135977   6.010   5.148  13.874  1.6852  0.3037  0.4555
 4854TIP3    H235978   5.991   5.005  13.920  0.8841  0.3859  0.4007
 4855TIP3   OH235979   3.766   3.225  12.102 -0.1397  0.3540  0.1832
 4855TIP3    H135980   3.724   3.306  12.077 -0.3186  0.6280  1.2949
 4855TIP3    H235981   3.700   3.178  12.153 -0.4272 -1.0064 -1.3445
 4856TIP3   OH235982   6.154   1.519   1.764  0.3454 -0.2416 -0.1155
 4856TIP3    H135983   6.238   1.475   1.773  0.8159  0.5122 -0.6577
 4856TIP3    H235984   6.176   1.606   1.730 -0.7326 -0.3923 -1.2541
 4857TIP3   OH235985   3.456   5.326  12.971 -0.0686  0.0108 -0.0079
 4857TIP3    H135986   3.480   5.411  13.009 -0.3374  0.0466  0.0877
 4857TIP3    H235987   3.499   5.261  13.026 -1.3183  0.0219  1.0263
 4858TIP3   OH235988   4.663   0.741   1.816 -0.2172  0.1575  0.4120
 4858TIP3    H135989   4.605   0.705   1.749  2.5991 -1.5809 -1.2992
 4858TIP3    H235990   4.674   0.670   1.879  0.1502  0.4128  0.6405
 4859TIP3   OH235991   4.383   5.237  11.809 -0.4316 -0.5576 -0.2348
 4859TIP3    H135992   4.372   5.157  11.757  2.0192 -0.3002 -1.2612
 4859TIP3    H235993   4.298   5.281  11.804 -1.6969 -2.8199 -0.0487
 4860TIP3   OH235994   2.130   2.522   4.576  0.1342 -0.2850 -0.1057
 4860TIP3    H135995   2.111   2.605   4.532  0.4553  0.8366  1.7556
 4860TIP3    H235996   2.225   2.513   4.570  0.1384 -0.3180  0.0013
 4861TIP3   OH235997   0.704   1.135   2.412 -0.2899  0.2743 -0.4749
 4861TIP3    H135998   0.767   1.205   2.394 -0.2088  0.3928  0.2484
 4861TIP3    H235999   0.621   1.170   2.379  0.0510  0.0006 -1.6932
 4862TIP3   OH236000   1.463   3.378   3.777  0.0131  0.3513 -0.1925
 4862TIP3    H136001   1.487   3.299   3.728 -0.3151  0.6880 -0.9098
 4862TIP3    H236002   1.380   3.405   3.738 -0.3197  0.5515  0.6494
 4863TIP3   OH236003   1.425   4.619   1.535  0.4309  0.5719 -0.0166
 4863TIP3    H136004   1.362   4.647   1.469  2.4206 -0.6059 -2.5730
 4863TIP3    H236005   1.376   4.558   1.591 -1.4630  2.0648  0.0684
 4864TIP3   OH236006   2.353   2.638  14.977  1.1318  0.4959 -0.0834
 4864TIP3    H136007   2.332   2.730  14.993 -0.4109  0.0400  0.7752
 4864TIP3    H236008   2.394   2.608  15.058 -0.6925 -0.1566  0.6782
 4865TIP3   OH236009   6.700   1.034  15.254 -0.0263  0.0199  0.1042
 4865TIP3    H136010   6.763   0.998  15.316  0.5792  1.1611  0.1758
 4865TIP3    H236011   6.739   1.020  15.168 -0.9164 -1.6626 -0.0529
 4866TIP3   OH236012   5.698   4.287   0.432 -0.1160 -0.4582  0.4666
 4866TIP3    H136013   5.756   4.257   0.361 -1.3036  1.4510 -1.4361
 4866TIP3    H236014   5.623   4.228   0.429 -0.7155  0.3250 -0.7330
 4867TIP3   OH236015   0.510   4.446  15.941 -0.3837 -0.0736  0.1868
 4867TIP3    H136016   0.573   4.376  15.958  0.0006  0.8070  3.0492
 4867TIP3    H236017   0.562   4.526  15.939 -1.0770  0.3726 -0.5507
 4868TIP3   OH236018   1.319   1.939   0.974  0.4079 -0.3431  0.2294
 4868TIP3    H136019   1.274   1.946   1.059 -0.0442  0.2443 -0.0479
 4868TIP3    H236020   1.298   2.021   0.930 -1.3195 -1.5690 -1.3992
 4869TIP3   OH236021   4.349   1.562  15.974 -0.3021 -0.3148  0.2251
 4869TIP3    H136022   4.305   1.629  15.920 -0.7322 -1.1188 -0.4414
 4869TIP3    H236023   4.432   1.603  15.998 -1.2208  1.0904  1.1808
 4870TIP3   OH236024   2.751   2.908   0.382  0.1960 -0.2133 -0.4328
 4870TIP3    H136025   2.692   2.937   0.452 -0.3779 -1.1522 -0.5087
 4870TIP3    H236026   2.733   2.815   0.372  0.6613 -0.2126 -1.4627
 4871TIP3   OH236027   4.883   2.341   4.541  0.1395  0.5715  0.2416
 4871TIP3    H136028   4.904   2.248   4.553 -0.7056  0.5690  2.0942
 4871TIP3    H236029   4.966   2.387   4.556  0.7988  0.0953 -1.7238
 4872TIP3   OH236030   1.453   6.730  17.252 -0.4174  0.6317 -0.1313
 4872TIP3    H136031   1.397   6.806  17.233 -0.7930  0.9460  2.0374
 4872TIP3    H236032   1.392   6.658  17.264 -0.1848  0.4408 -0.0968
 4873TIP3   OH236033   3.229   2.491   6.171  0.6080  0.3145 -0.4178
 4873TIP3    H136034   3.138   2.493   6.200  0.5519 -1.3061 -0.3782
 4873TIP3    H236035   3.278   2.527   6.244  0.0067  1.3178 -0.4839
 4874TIP3   OH236036   4.703   3.190   1.080 -0.0827 -0.7798 -0.0091
 4874TIP3    H136037   4.767   3.187   1.151 -1.8426  0.3815  1.7341
 4874TIP3    H236038   4.653   3.271   1.096 -3.5327 -2.7445  0.2135
 4875TIP3   OH236039   2.189   4.214  13.367  0.4366  0.5896  0.2007
 4875TIP3    H136040   2.203   4.128  13.327 -0.9149  0.6760 -0.5417
 4875TIP3    H236041   2.275   4.256  13.367  0.7890 -0.0695 -1.1148
 4876TIP3   OH236042   6.578   2.031   0.195  0.1821 -0.0475 -0.3627
 4876TIP3    H136043   6.502   2.029   0.136  0.4575 -1.6659 -0.7091
 4876TIP3    H236044   6.568   2.112   0.244 -2.6208 -0.9279  0.6911
 4877TIP3   OH236045   5.030   5.665  15.024 -0.1102 -0.6599  0.4469
 4877TIP3    H136046   5.101   5.724  15.049 -1.2893  0.8709  0.3325
 4877TIP3    H236047   5.011   5.688  14.933 -2.6738  1.0936  1.3117
 4878TIP3   OH236048   3.216   2.083  17.256 -0.1031  0.1570  0.2623
 4878TIP3    H136049   3.304   2.047  17.245 -0.9738 -1.3281 -2.8905
 4878TIP3    H236050   3.231   2.172  17.289  2.5726 -0.1760  0.1517
 4879TIP3   OH236051   1.950   6.211  11.305 -0.0541 -0.1864 -0.0648
 4879TIP3    H136052   2.031   6.216  11.356 -0.9807 -0.3941  1.4708
 4879TIP3    H236053   1.880   6.229  11.368 -1.2293 -0.2289 -1.3118
 4880TIP3   OH236054   6.621   2.131  12.205  0.1138 -0.2644  0.3323
 4880TIP3    H136055   6.641   2.205  12.148  0.3531 -0.5215  0.0797
 4880TIP3    H236056   6.620   2.168  12.293  2.4521 -0.3506  0.4593
 4881TIP3   OH236057   2.479   6.437   5.914  0.2063  0.5449 -0.2315
 4881TIP3    H136058   2.470   6.374   5.985 -1.3871  1.1068  0.1109
 4881TIP3    H236059   2.567   6.422   5.879  0.8788 -0.0022  1.5992
 4882TIP3   OH236060   5.963   4.068  11.858 -0.1118 -0.6072 -0.6198
 4882TIP3    H136061   5.878   4.111  11.854 -0.1941 -0.4915  1.4670
 4882TIP3    H236062   5.952   3.996  11.920  1.4191 -0.3020  0.0616
 4883TIP3   OH236063   1.947   5.862   5.918 -0.4944 -0.2543  0.2775
 4883TIP3    H136064   1.974   5.775   5.949  2.5877  0.7521  0.7768
 4883TIP3    H236065   1.884   5.891   5.982  1.1306 -0.7419  2.2104
 4884TIP3   OH236066   3.337   4.313  13.926 -0.6568 -0.1493 -0.7734
 4884TIP3    H136067   3.280   4.278  13.857 -1.8538  1.0440 -0.4328
 4884TIP3    H236068   3.317   4.406  13.929  0.4567  0.0820  0.1977
 4885TIP3   OH236069   6.060   0.493  12.164 -0.9547 -0.2723  0.6844
 4885TIP3    H136070   6.021   0.428  12.104  1.3397  1.0450 -2.5108
 4885TIP3    H236071   6.075   0.444  12.245 -2.0879 -2.8557 -0.5301
 4886TIP3   OH236072   3.380   0.688   4.250 -0.5295  0.1023  0.3134
 4886TIP3    H136073   3.311   0.626   4.275 -0.3782 -0.8132 -1.3521
 4886TIP3    H236074   3.332   0.764   4.216 -0.7201 -0.0752  0.1816
 4887TIP3   OH236075   5.580   2.330  11.149 -0.5565  0.0958  0.0957
 4887TIP3    H136076   5.508   2.331  11.086 -0.7016  0.0075  0.2558
 4887TIP3    H236077   5.629   2.250  11.129 -0.2743  0.3564 -0.2637
 4888TIP3   OH236078   3.407   6.182   5.840  0.6363  0.0531 -0.0800
 4888TIP3    H136079   3.364   6.267   5.848 -1.0342 -0.6773 -0.8771
 4888TIP3    H236080   3.376   6.146   5.757 -0.0764 -2.0461  1.0038
 4889TIP3   OH236081   2.103   2.770   5.153 -0.4989  0.3330 -0.0750
 4889TIP3    H136082   2.009   2.783   5.167 -0.6893 -0.2255 -0.7734
 4889TIP3    H236083   2.136   2.857   5.131 -0.7990  0.5869  0.4547
 4890TIP3   OH236084   6.153   1.160  15.920 -0.3419 -0.4653 -0.2782
 4890TIP3    H136085   6.112   1.154  15.834  1.5660  0.2207 -1.2939
 4890TIP3    H236086   6.108   1.233  15.963 -2.9615 -2.2939  0.3475
 4891TIP3   OH236087   2.016   0.652   0.339 -0.5934  0.3045 -0.0259
 4891TIP3    H136088   2.023   0.734   0.290  1.2314  0.0305 -0.2958
 4891TIP3    H236089   2.024   0.583   0.272  0.5971 -0.0662  0.4545
 4892TIP3   OH236090   0.350   4.890  12.815  1.0456  0.0532 -0.2579
 4892TIP3    H136091   0.336   4.950  12.741  0.5904 -1.9825 -1.9246
 4892TIP3    H236092   0.443   4.902  12.837  0.3778  3.2659  1.3136
 4893TIP3   OH236093   1.639   3.153   3.106  0.2845 -0.2117  0.2350
 4893TIP3    H136094   1.691   3.078   3.136  0.0845  0.2680  1.8428
 4893TIP3    H236095   1.697   3.228   3.116  0.3473 -0.0809 -0.9959
 4894TIP3   OH236096   0.893   6.025  12.937 -0.4681  0.5940 -0.6074
 4894TIP3    H136097   0.848   5.943  12.918 -1.4207  0.9325  0.1117
 4894TIP3    H236098   0.956   6.003  13.005 -1.4063  0.6344  0.2969
 4895TIP3   OH236099   0.374   4.050   4.998 -0.0975  0.0349  0.0594
 4895TIP3    H136100   0.325   4.129   4.973 -1.3869 -0.8891 -0.4436
 4895TIP3    H236101   0.307   3.983   5.007  1.1356 -1.4516 -1.3215
 4896TIP3   OH236102   5.100   1.593  16.671  0.3449 -0.5064  0.1153
 4896TIP3    H136103   5.025   1.634  16.629 -0.3648  0.4633  2.2104
 4896TIP3    H236104   5.155   1.563  16.598  0.8621  4.0105 -1.6696
 4897TIP3   OH236105   3.362   3.763  12.355 -0.2112 -0.0353 -0.4794
 4897TIP3    H136106   3.380   3.713  12.276  1.8359  0.6908 -0.5272
 4897TIP3    H236107   3.443   3.759  12.405 -0.1425  2.7312 -0.2148
 4898TIP3   OH236108   1.089   6.603  16.301 -0.5741 -0.1361 -0.2900
 4898TIP3    H136109   1.060   6.693  16.282 -0.8473  0.4834  2.5892
 4898TIP3    H236110   1.184   6.606  16.291 -0.7256 -0.1094 -2.1299
 4899TIP3   OH236111   3.934   5.606   5.865  0.1633  0.4588  0.4886
 4899TIP3    H136112   3.908   5.649   5.947  0.7540  0.3457  0.7476
 4899TIP3    H236113   4.015   5.560   5.888 -0.4200 -0.7594  0.2081
 4900TIP3   OH236114   2.686   5.774   1.169 -0.4071  0.0947 -0.1065
 4900TIP3    H136115   2.695   5.681   1.147 -0.8381  0.0144  0.0551
 4900TIP3    H236116   2.775   5.802   1.192 -0.3055 -0.3173  0.0050
 4901TIP3   OH236117   2.138   6.429   0.608 -0.2510 -0.3234  0.1406
 4901TIP3    H136118   2.147   6.499   0.544 -1.5441 -0.5052 -0.2829
 4901TIP3    H236119   2.220   6.429   0.657  0.1994  0.7425 -0.5919
 4902TIP3   OH236120   1.328   5.496   5.529  0.9787  0.5665  0.5040
 4902TIP3    H136121   1.344   5.406   5.558 -0.2281 -0.0382 -0.5857
 4902TIP3    H236122   1.339   5.549   5.608  1.8153 -0.5227  1.1396
 4903TIP3   OH236123   5.373   2.933  11.949 -0.2798 -0.0151  0.0213
 4903TIP3    H136124   5.354   3.000  11.884  0.1272  0.0336 -0.0499
 4903TIP3    H236125   5.299   2.872  11.944  0.6319 -1.0526 -1.8351
 4904TIP3   OH236126   1.754   3.658  15.724  0.2277 -0.0373  0.1664
 4904TIP3    H136127   1.662   3.686  15.720  0.2413 -0.0752 -0.4901
 4904TIP3    H236128   1.750   3.565  15.745  0.1681  0.3203  1.8455
 4905TIP3   OH236129   0.469   6.737   3.365  0.2066 -0.3627  0.0376
 4905TIP3    H136130   0.387   6.784   3.382  1.0819  1.0638  0.5017
 4905TIP3    H236131   0.499   6.770   3.280  1.1110  0.3679  0.6208
 4906TIP3   OH236132   2.465   1.593   2.578 -0.1223  0.0290 -0.3793
 4906TIP3    H136133   2.441   1.638   2.659  1.1296  1.1738 -0.6117
 4906TIP3    H236134   2.385   1.594   2.526 -0.0143  2.6249 -0.6341
 4907TIP3   OH236135   4.432   6.246  12.746  0.3082  0.3167  0.7962
 4907TIP3    H136136   4.462   6.223  12.834  0.4585  1.3426  1.0246
 4907TIP3    H236137   4.413   6.339  12.751  0.6727  0.4643 -0.3634
 4908TIP3   OH236138   5.278   1.076  16.191 -0.2759 -0.1280 -0.4236
 4908TIP3    H136139   5.198   1.074  16.242  0.3065  0.7465  0.5614
 4908TIP3    H236140   5.324   1.155  16.220  0.7745 -0.4120 -1.2212
 4909TIP3   OH236141   6.525   4.517   0.226 -0.0102  0.2518  0.0662
 4909TIP3    H136142   6.559   4.550   0.142 -1.7223  1.2272 -0.2994
 4909TIP3    H236143   6.430   4.514   0.213 -0.2410 -0.3159  1.7381
 4910TIP3   OH236144   4.686   0.855   1.192  0.1219  0.2699 -0.0904
 4910TIP3    H136145   4.652   0.827   1.108  2.0275  0.8612 -1.1176
 4910TIP3    H236146   4.608   0.866   1.247 -1.0162 -2.6424 -0.9143
 4911TIP3   OH236147   1.334   1.524   4.845 -0.3081 -0.0764  0.2188
 4911TIP3    H136148   1.299   1.438   4.865  0.6626 -0.7904 -1.0292
 4911TIP3    H236149   1.428   1.510   4.832 -0.1567  1.1371 -0.1641
 4912TIP3   OH236150   6.355   2.944   4.900 -0.2537 -0.2553 -0.2872
 4912TIP3    H136151   6.285   2.926   4.962  2.0617 -2.7731  1.7903
 4912TIP3    H236152   6.428   2.974   4.953  0.4991  1.8781 -2.3347
 4913TIP3   OH236153   3.905   4.474   1.463  0.3169 -0.1075 -0.0847
 4913TIP3    H136154   3.816   4.447   1.483 -0.4588  1.0942 -1.7267
 4913TIP3    H236155   3.950   4.393   1.438 -1.1625 -0.3560 -2.1615
 4914TIP3   OH236156   6.296   0.410  14.929  0.1855 -0.9621  0.2675
 4914TIP3    H136157   6.387   0.379  14.934  0.3217 -0.5246  0.5342
 4914TIP3    H236158   6.258   0.385  15.013  0.3464 -0.2611  0.5565
 4915TIP3   OH236159   2.273   4.437  16.305 -0.1859 -0.2562  0.1752
 4915TIP3    H136160   2.252   4.378  16.377  0.1115  0.1991  0.6384
 4915TIP3    H236161   2.192   4.485  16.288 -0.3656 -0.6310 -0.0577
 4916TIP3   OH236162   1.699   6.554  10.377 -0.2361  0.1391  0.5785
 4916TIP3    H136163   1.782   6.535  10.422 -0.6061  1.0041  1.6759
 4916TIP3    H236164   1.643   6.591  10.445 -1.1215  0.6873 -0.4227
 4917TIP3   OH236165   4.069   5.172  16.428  0.0012  0.1242 -0.1951
 4917TIP3    H136166   4.121   5.205  16.355  0.3315  0.8711  0.3585
 4917TIP3    H236167   4.026   5.250  16.464  0.4857 -0.0813  0.8976
 4918TIP3   OH236168   5.415   5.981   4.009 -0.2240  0.0664 -0.2972
 4918TIP3    H136169   5.483   5.985   3.941  1.2743 -1.9827  0.9593
 4918TIP3    H236170   5.400   6.073   4.033  0.1213  0.7457 -2.4658
 4919TIP3   OH236171   2.985   6.407   1.169 -0.3067 -0.0606 -0.2607
 4919TIP3    H136172   2.899   6.376   1.198  0.0026  0.9826  2.0150
 4919TIP3    H236173   2.986   6.500   1.195  0.5570  0.6475 -2.5887
 4920TIP3   OH236174   2.106   2.384  11.970  0.4742  0.4399  0.4091
 4920TIP3    H136175   2.195   2.350  11.977  0.5717 -0.8469 -3.9593
 4920TIP3    H236176   2.116   2.468  11.924 -0.5206  1.1202  1.3676
 4921TIP3   OH236177   0.423   0.912  15.676  0.2564 -0.4505  0.1207
 4921TIP3    H136178   0.391   0.984  15.730 -0.8207 -0.6368 -0.2526
 4921TIP3    H236179   0.449   0.954  15.594 -1.1898 -0.5632 -0.4292
 4922TIP3   OH236180   1.072   0.092  12.300 -0.2747  0.8485 -0.1897
 4922TIP3    H136181   1.043   0.086  12.209 -0.5458 -1.5799 -0.0195
 4922TIP3    H236182   1.004   0.046  12.350  0.6465  0.7567  1.0304
 4923TIP3   OH236183   0.117   6.192   4.806 -0.0501  0.5315 -0.0397
 4923TIP3    H136184   0.149   6.260   4.747  0.5981 -0.9195 -1.4554
 4923TIP3    H236185   0.190   6.176   4.865  0.5102 -0.2039 -0.9043
 4924TIP3   OH236186   1.290   0.340   5.461 -0.1035  0.0535  0.1382
 4924TIP3    H136187   1.225   0.301   5.403  0.0858  0.7458 -0.5568
 4924TIP3    H236188   1.244   0.412   5.503 -0.8539 -1.6266  2.4227
 4925TIP3   OH236189   1.806   2.718   3.814 -0.3171  0.1871 -0.2368
 4925TIP3    H136190   1.753   2.776   3.868 -0.9459 -0.4788 -0.1410
 4925TIP3    H236191   1.765   2.632   3.822 -0.6925  0.1535 -2.1136
 4926TIP3   OH236192   4.941   6.121   2.734  0.0003  0.4023 -0.0665
 4926TIP3    H136193   4.917   6.133   2.826  1.8579 -0.9890  0.6729
 4926TIP3    H236194   5.011   6.055   2.736 -1.8736 -1.8830 -2.7590
 4927TIP3   OH236195   3.940   2.421  12.040 -0.2441 -0.2194 -0.4185
 4927TIP3    H136196   3.879   2.392  12.108 -0.7626  0.8145 -0.4225
 4927TIP3    H236197   3.959   2.342  11.990 -0.8725 -0.7400  0.1384
 4928TIP3   OH236198   6.522   5.107   3.115 -0.3162  0.4085  0.0806
 4928TIP3    H136199   6.468   5.186   3.111 -2.7588 -0.8878  3.2169
 4928TIP3    H236200   6.593   5.130   3.175  0.8114  1.0691 -1.4306
 4929TIP3   OH236201   1.012   2.430  11.152  0.0192 -0.5387 -0.2247
 4929TIP3    H136202   1.102   2.425  11.185  0.0415 -1.8462 -0.4068
 4929TIP3    H236203   1.009   2.512  11.103  0.6146  0.3613  1.1749
 4930TIP3   OH236204   3.438   2.465  16.935 -1.0873  0.0531 -0.0829
 4930TIP3    H136205   3.424   2.385  16.986 -2.8647 -0.2489 -0.9283
 4930TIP3    H236206   3.396   2.446  16.851  0.3103  1.1325 -1.0578
 4931TIP3   OH236207   0.627   2.812  12.804 -0.4070  0.3766  0.5084
 4931TIP3    H136208   0.650   2.881  12.865 -2.0547  1.0243  0.4435
 4931TIP3    H236209   0.633   2.853  12.717 -0.6034  0.2083  0.4125
 4932TIP3   OH236210   1.396   1.446  14.673 -1.0040 -0.4459 -0.2323
 4932TIP3    H136211   1.491   1.453  14.665 -0.9397  0.7165  1.1591
 4932TIP3    H236212   1.361   1.519  14.622 -0.9089  1.8186  2.6660
 4933TIP3   OH236213   4.467   3.397   4.365 -0.2703  0.3577 -0.0989
 4933TIP3    H136214   4.470   3.458   4.439 -1.1078  2.0124 -1.3541
 4933TIP3    H236215   4.512   3.318   4.396  0.8446  1.6028  1.5918
 4934TIP3   OH236216   1.602   0.617  16.634  0.1714  0.0654 -0.1722
 4934TIP3    H136217   1.635   0.627  16.723  0.9398  0.4970 -0.5008
 4934TIP3    H236218   1.508   0.602  16.645  0.0973  1.0580  0.6662
 4935TIP3   OH236219   6.526   3.492   2.181 -0.0698 -0.2035 -0.7048
 4935TIP3    H136220   6.538   3.455   2.093 -1.5945  0.5056 -1.2441
 4935TIP3    H236221   6.494   3.581   2.165 -0.8282 -0.2262  0.5647
 4936TIP3   OH236222   4.599   3.226  12.562  0.0522 -0.1232  0.6186
 4936TIP3    H136223   4.583   3.132  12.549  1.3223 -0.4898  1.5438
 4936TIP3    H236224   4.649   3.252  12.485 -1.6319  0.1884 -0.4260
 4937TIP3   OH236225   5.154   1.161  15.915 -0.0139 -0.1919  1.0136
 4937TIP3    H136226   5.199   1.152  15.998  1.2637 -0.8060  0.2815
 4937TIP3    H236227   5.208   1.113  15.852 -0.0975  1.5662 -0.4868
 4938TIP3   OH236228   3.024   3.152   2.987  0.2694  0.3176  0.2102
 4938TIP3    H136229   2.959   3.100   3.033  0.1373  0.6730  0.4327
 4938TIP3    H236230   3.040   3.227   3.044 -1.0745  1.6038 -1.0009
 4939TIP3   OH236231   3.615   3.322  12.957 -0.0516  0.0270  0.6048
 4939TIP3    H136232   3.672   3.313  13.033  2.2871  1.1539 -0.8673
 4939TIP3    H236233   3.649   3.258  12.894  0.0817  1.1928 -0.5519
 4940TIP3   OH236234   6.436   4.753   0.981 -0.8931  0.1404 -0.6960
 4940TIP3    H136235   6.405   4.817   0.917  0.7925  1.2980 -0.4146
 4940TIP3    H236236   6.409   4.789   1.065 -0.9379 -0.1207 -0.5979
 4941TIP3   OH236237   4.570   6.274   1.813 -0.3445 -0.5196  0.1892
 4941TIP3    H136238   4.594   6.215   1.742 -0.3198 -0.2590 -0.0223
 4941TIP3    H236239   4.540   6.217   1.883 -0.9288 -0.7518 -0.2434
 4942TIP3   OH236240   4.943   3.598   5.078  0.2326 -0.1474 -0.0505
 4942TIP3    H136241   4.895   3.672   5.040 -0.5122 -0.6118 -0.0239
 4942TIP3    H236242   5.004   3.638   5.139 -0.0827  0.4606 -0.1267
 4943TIP3   OH236243   3.814   1.233  14.776 -0.2827 -0.1632 -0.3337
 4943TIP3    H136244   3.859   1.149  14.780 -2.3816 -1.2779  1.5602
 4943TIP3    H236245   3.884   1.298  14.777  1.3360 -1.8468  0.5182
 4944TIP3   OH236246   0.068   0.429  12.030  0.2349  0.0324 -0.2027
 4944TIP3    H136247  -0.016   0.387  12.050  0.3926 -0.5098 -0.6649
 4944TIP3    H236248   0.091   0.474  12.111  0.7831 -1.9986  0.8473
 4945TIP3   OH236249   1.482   3.608   3.245 -0.0405  0.2416  0.2380
 4945TIP3    H136250   1.565   3.603   3.198 -1.1165 -3.0990 -1.6888
 4945TIP3    H236251   1.507   3.629   3.335  2.7725  0.4040 -0.4809
 4946TIP3   OH236252   4.440   5.601   0.128  0.2686  0.3368 -0.4185
 4946TIP3    H136253   4.532   5.583   0.106  0.5238  1.0569  0.0153
 4946TIP3    H236254   4.408   5.654   0.054  0.1300 -0.1062 -0.6803
 4947TIP3   OH236255   4.480   4.672   2.665 -0.5862 -0.6246 -0.1581
 4947TIP3    H136256   4.431   4.655   2.745  0.0356 -0.5628  0.2468
 4947TIP3    H236257   4.474   4.767   2.653 -1.5079 -0.7448 -0.7399
 4948TIP3   OH236258   5.924   1.419   5.505  0.0141  0.5096  0.2286
 4948TIP3    H136259   5.905   1.497   5.557 -2.4110 -0.7121  1.3789
 4948TIP3    H236260   5.886   1.437   5.420 -1.4079  0.2894  0.7832
 4949TIP3   OH236261   0.909   4.426   5.946 -0.0964  0.0204  0.3677
 4949TIP3    H136262   0.897   4.409   6.039 -0.8017  1.9743  0.6839
 4949TIP3    H236263   0.860   4.507   5.930  0.8041  0.2494 -1.4962
 4950TIP3   OH236264   2.114   1.789   2.037  0.6744  0.1468 -0.3405
 4950TIP3    H136265   2.042   1.835   2.080  1.6242 -0.1884  1.7397
 4950TIP3    H236266   2.080   1.766   1.951 -1.1396  1.3741 -0.0038
 4951TIP3   OH236267   5.640   1.258  15.214 -0.1940 -0.2665 -0.1513
 4951TIP3    H136268   5.666   1.207  15.291 -0.5439 -1.4753 -0.8069
 4951TIP3    H236269   5.683   1.342  15.225  2.1648 -1.4021 -0.0442
 4952TIP3   OH236270   4.220   4.277   0.286 -0.5428  0.1078  0.1601
 4952TIP3    H136271   4.209   4.337   0.212 -1.0574  0.1968  0.3110
 4952TIP3    H236272   4.281   4.210   0.253  1.0199  1.3606  0.3925
 4953TIP3   OH236273   0.485   5.431  11.095 -0.4143 -0.1195  0.2720
 4953TIP3    H136274   0.538   5.510  11.086 -0.4875  0.0540  1.2691
 4953TIP3    H236275   0.532   5.365  11.045 -0.4084  0.5750 -0.6582
 4954TIP3   OH236276   1.775   3.944  13.520 -0.2077 -0.1670  0.2572
 4954TIP3    H136277   1.697   3.983  13.481  0.8698  0.0788 -1.7657
 4954TIP3    H236278   1.846   3.967  13.461  1.3999 -0.5553  1.9324
 4955TIP3   OH236279   5.902   5.061   5.761  0.1936  0.1533  0.2796
 4955TIP3    H136280   5.836   5.006   5.720  1.7512 -1.1227 -0.6269
 4955TIP3    H236281   5.953   5.001   5.816  2.8250  0.2988 -1.8190
 4956TIP3   OH236282   5.505   4.675  11.767  0.0943  0.0435  0.0036
 4956TIP3    H136283   5.560   4.606  11.801  1.7806  0.8031 -1.0468
 4956TIP3    H236284   5.472   4.721  11.844  0.6730 -0.6367  0.6630
 4957TIP3   OH236285   1.073   3.637  11.169 -0.5986  0.5001 -0.1523
 4957TIP3    H136286   1.095   3.552  11.131 -1.1500  0.8234 -1.2453
 4957TIP3    H236287   1.123   3.701  11.117 -2.7294  1.1010 -1.6127
 4958TIP3   OH236288   4.229   4.359  14.770  0.4793 -0.5971  0.1667
 4958TIP3    H136289   4.299   4.424  14.769 -1.1687  1.2769  0.6680
 4958TIP3    H236290   4.190   4.366  14.857 -0.0751 -1.9276  0.0593
 4959TIP3   OH236291   1.139   2.340  14.322 -0.2024  0.3925 -0.0084
 4959TIP3    H136292   1.077   2.398  14.366 -3.1453 -1.0341 -1.9550
 4959TIP3    H236293   1.140   2.370  14.232 -1.4727 -2.2032 -0.9735
 4960TIP3   OH236294   2.241   0.449   2.167  0.3081 -0.0978  0.0828
 4960TIP3    H136295   2.273   0.516   2.228  1.1956  1.7143 -2.2084
 4960TIP3    H236296   2.302   0.452   2.094 -1.8057 -0.7085 -1.8331
 4961TIP3   OH236297   1.678   2.185   0.747 -0.1386 -0.5788 -0.5488
 4961TIP3    H136298   1.648   2.245   0.815  1.1719 -1.0357  0.4626
 4961TIP3    H236299   1.633   2.215   0.668 -1.2529  0.3145  0.3818
 4962TIP3   OH236300   2.707   6.479   1.801  0.2715  0.3385 -0.3386
 4962TIP3    H136301   2.643   6.545   1.826 -0.5650 -0.1731 -1.0715
 4962TIP3    H236302   2.784   6.499   1.854 -0.4370  1.0547  0.4501
 4963TIP3   OH236303   3.038   2.989   6.335 -0.2595  0.1527  0.2996
 4963TIP3    H136304   3.006   2.951   6.253 -0.7427 -0.1955  0.6488
 4963TIP3    H236305   2.961   3.033   6.372 -0.5553 -1.3264  1.5167
 4964TIP3   OH236306   0.903   3.418  13.126  0.0990 -0.2089  0.2888
 4964TIP3    H136307   0.829   3.384  13.076  0.3610  0.3807 -0.5280
 4964TIP3    H236308   0.887   3.512  13.132  1.4706  0.1679 -1.1517
 4965TIP3   OH236309   6.031   5.745   2.773  0.0429 -0.3066  0.4271
 4965TIP3    H136310   6.061   5.704   2.854  0.3912  0.0094  0.4629
 4965TIP3    H236311   6.060   5.686   2.704  1.0398  0.1475  0.4388
 4966TIP3   OH236312   2.029   6.645  13.313  0.0414  0.3468  0.1115
 4966TIP3    H136313   1.946   6.648  13.266  0.1912  1.7866 -0.1170
 4966TIP3    H236314   2.045   6.552  13.329 -0.1476 -0.2059 -2.4387
 4967TIP3   OH236315   1.198   1.470   0.809 -0.4390 -0.5269 -0.5726
 4967TIP3    H136316   1.116   1.422   0.821 -1.0606  0.6237 -0.1126
 4967TIP3    H236317   1.262   1.421   0.862 -0.5292 -2.1067 -1.8634
 4968TIP3   OH236318   4.553   5.344   6.172 -0.3233  0.0798  1.1228
 4968TIP3    H136319   4.508   5.262   6.191 -1.0870  0.6653  1.9420
 4968TIP3    H236320   4.526   5.403   6.242 -3.3383  2.4081 -1.7246
 4969TIP3   OH236321   0.137   3.022  16.644  0.3708 -0.2783  0.3847
 4969TIP3    H136322   0.154   3.039  16.737 -0.3311  1.6291  0.2216
 4969TIP3    H236323   0.043   3.003  16.640  0.5093 -0.9156  0.1333
 4970TIP3   OH236324   6.575   5.196   2.118  0.2252  0.3923 -0.3542
 4970TIP3    H136325   6.578   5.270   2.058 -0.6193  0.2749 -0.5519
 4970TIP3    H236326   6.662   5.195   2.160  1.2256 -0.1264 -2.2924
 4971TIP3   OH236327   4.514   1.925   1.911 -0.0987 -0.8012  0.4725
 4971TIP3    H136328   4.596   1.921   1.860 -0.9664 -1.0271 -0.9646
 4971TIP3    H236329   4.458   1.984   1.861 -0.2337  0.8030  2.3877
 4972TIP3   OH236330   6.281   2.577  14.481  0.0713 -0.2830  0.0647
 4972TIP3    H136331   6.194   2.605  14.453 -1.1331 -1.2614  2.4810
 4972TIP3    H236332   6.280   2.482  14.471 -0.7972 -0.8374  3.8816
 4973TIP3   OH236333   4.744   3.727   5.701  0.3182 -0.1326  0.8688
 4973TIP3    H136334   4.825   3.713   5.651 -1.0844  1.0040 -1.9268
 4973TIP3    H236335   4.739   3.822   5.712 -1.3532 -0.0370 -0.3927
 4974TIP3   OH236336   2.612   3.076  15.993 -0.0487 -0.5270 -0.4287
 4974TIP3    H136337   2.675   3.036  15.932  0.2019  0.0833 -0.5711
 4974TIP3    H236338   2.596   3.163  15.958 -1.2226 -0.7755 -0.5702
 4975TIP3   OH236339   4.512   2.901  14.925 -0.2303  0.0210  0.5145
 4975TIP3    H136340   4.550   2.950  14.998  0.5455  0.3539 -0.1006
 4975TIP3    H236341   4.453   2.839  14.967 -1.4578  1.6534  1.3002
 4976TIP3   OH236342   4.778   0.734  11.913 -0.6099 -0.2346  0.1080
 4976TIP3    H136343   4.792   0.799  11.982 -1.7858  0.7286 -0.5119
 4976TIP3    H236344   4.791   0.783  11.832 -0.4410 -1.0583 -0.3702
 4977TIP3   OH236345   2.123   0.943  12.491  0.1226 -0.2653  0.2507
 4977TIP3    H136346   2.215   0.931  12.465 -0.8459 -4.0648 -2.2491
 4977TIP3    H236347   2.119   0.910  12.581  1.2141  0.0218  0.4173
 4978TIP3   OH236348   4.699   3.142   0.535 -0.1553  0.4083 -0.3467
 4978TIP3    H136349   4.732   3.063   0.493 -0.1942  0.9390 -1.3966
 4978TIP3    H236350   4.682   3.115   0.626 -1.9201 -1.2754 -1.1085
 4979TIP3   OH236351   2.475   1.296   0.005  0.1386 -0.1326  0.3554
 4979TIP3    H136352   2.466   1.389   0.022  2.1785 -0.0088  0.9342
 4979TIP3    H236353   2.480   1.255   0.091 -0.4847 -0.7691  0.1070
 4980TIP3   OH236354   5.263   0.512   1.554  0.2561  0.4386  0.5280
 4980TIP3    H136355   5.333   0.504   1.619 -0.8890 -0.6874  1.6875
 4980TIP3    H236356   5.220   0.595   1.574 -1.1814 -0.6728  2.4301
 4981TIP3   OH236357   5.119   2.650   3.469  0.3485  0.4117 -1.3933
 4981TIP3    H136358   5.117   2.709   3.395 -3.1171  1.3347 -0.7155
 4981TIP3    H236359   5.107   2.706   3.546 -2.8575 -0.9733 -0.7153
 4982TIP3   OH236360   3.637   0.196   5.434 -0.3704 -0.0077 -0.4501
 4982TIP3    H136361   3.716   0.250   5.429  0.5287 -1.3992 -2.2066
 4982TIP3    H236362   3.670   0.108   5.454 -1.5320 -0.5139 -0.7174
 4983TIP3   OH236363   5.672   6.281  12.181 -0.1447  0.0187 -0.2884
 4983TIP3    H136364   5.706   6.196  12.153  2.4883  0.5685  0.9796
 4983TIP3    H236365   5.632   6.264  12.266  0.9197  0.1172  0.2469
 4984TIP3   OH236366   2.574   4.249  11.457  0.1085  0.7301  0.0138
 4984TIP3    H136367   2.524   4.171  11.481 -0.7985  0.9881 -0.9872
 4984TIP3    H236368   2.568   4.255  11.362  2.3456  0.5984 -0.1952
 4985TIP3   OH236369   6.649   3.979  12.159  0.3455 -0.3480  0.0575
 4985TIP3    H136370   6.717   3.916  12.183 -0.0936  0.0203  2.5029
 4985TIP3    H236371   6.688   4.064  12.178 -0.0524 -0.0104 -0.5937
 4986TIP3   OH236372   4.314   3.081   5.621 -0.4354  0.2939  0.4718
 4986TIP3    H136373   4.291   3.117   5.535 -0.8802  1.4627  1.0522
 4986TIP3    H236374   4.330   2.988   5.605  1.2842  0.7987 -1.2081
 4987TIP3   OH236375   6.769   0.628  16.322  0.1313  0.5664  0.3994
 4987TIP3    H136376   6.760   0.544  16.277 -2.1808  1.1383 -0.3263
 4987TIP3    H236377   6.774   0.605  16.415  0.6800 -0.3981  0.1444
 4988TIP3   OH236378   0.554   4.208  17.252 -0.4411 -0.3110 -0.3249
 4988TIP3    H136379   0.550   4.182  17.344  2.2738 -0.5148 -0.1876
 4988TIP3    H236380   0.557   4.125  17.204 -1.4674 -0.2003 -0.6151
 4989TIP3   OH236381   2.003   0.022   0.854  1.0318 -0.4213  0.3946
 4989TIP3    H136382   1.988   0.006   0.947 -0.0847 -0.1891  0.2634
 4989TIP3    H236383   2.087   0.068   0.851  0.3192  0.9909  1.4223
 4990TIP3   OH236384   0.458   6.523   4.340  0.1072 -0.3315 -0.1089
 4990TIP3    H136385   0.422   6.575   4.268 -0.2678 -0.0870  0.2455
 4990TIP3    H236386   0.550   6.511   4.318  0.5378  1.5769  0.4037
 4991TIP3   OH236387   6.559   6.669   6.389 -0.2670  0.4433  0.1177
 4991TIP3    H136388   6.644   6.700   6.420 -1.3419  1.9700  1.7167
 4991TIP3    H236389   6.573   6.576   6.371  1.8384  0.7457 -0.1592
 4992TIP3   OH236390   5.178   5.165   3.687 -0.0317 -0.3357 -0.0482
 4992TIP3    H136391   5.137   5.123   3.763 -0.8711  0.0663 -0.2771
 4992TIP3    H236392   5.131   5.130   3.612 -0.5135  0.7369 -0.2634
 4993TIP3   OH236393   5.133   5.392   1.910  0.0243  0.6155 -0.3539
 4993TIP3    H136394   5.068   5.427   1.970  0.5323  0.2122  0.4415
 4993TIP3    H236395   5.132   5.297   1.926 -0.7721  0.3271 -1.9108
 4994TIP3   OH236396   4.632   3.318  12.852 -0.2422 -0.5313  0.0535
 4994TIP3    H136397   4.617   3.407  12.884 -0.8864 -1.0693  1.2825
 4994TIP3    H236398   4.610   3.322  12.759  0.2111  0.7029 -0.0138
 4995TIP3   OH236399   0.059   2.950   3.974  0.1542  0.2947  0.7896
 4995TIP3    H136400   0.076   2.857   3.965 -1.2562  0.0273  0.6139
 4995TIP3    H236401   0.088   2.988   3.891 -0.3012 -0.1614  0.4150
 4996TIP3   OH236402   1.076   5.216  15.649  0.0508  0.2605 -0.1775
 4996TIP3    H136403   1.146   5.265  15.607 -0.8629  1.5055 -0.3253
 4996TIP3    H236404   1.003   5.220  15.587  0.1167 -1.8627 -0.4790
 4997TIP3   OH236405   4.665   5.843  17.357 -0.6185  0.0106 -0.1943
 4997TIP3    H136406   4.665   5.748  17.355 -0.2870  0.0155 -0.8921
 4997TIP3    H236407   4.643   5.866  17.447 -1.0556 -0.7190 -0.1100
 4998TIP3   OH236408   0.655   2.633  11.807 -0.2477  0.7472 -0.1116
 4998TIP3    H136409   0.593   2.641  11.735 -0.7407 -0.9728  0.0878
 4998TIP3    H236410   0.616   2.685  11.878 -1.1515  0.2081 -0.1967
 4999TIP3   OH236411   5.923   3.939   1.946  0.0311  0.0048 -0.2419
 4999TIP3    H136412   5.920   3.897   2.032  1.3028 -0.7794 -0.5573
 4999TIP3    H236413   5.834   3.931   1.912 -0.5063  0.3812  1.0103
 5000TIP3   OH236414   1.366   6.019  17.051  0.4796  0.5723  0.5043
 5000TIP3    H136415   1.296   5.954  17.046  0.6109  0.4076  0.7983
 5000TIP3    H236416   1.347   6.069  17.130 -0.0887  1.4420 -0.1540
 5001TIP3   OH236417   0.674   4.165  16.719  0.0909 -0.0925 -0.1615
 5001TIP3    H136418   0.650   4.235  16.658  0.2569  1.0144  0.9890
 5001TIP3    H236419   0.674   4.086  16.666 -1.4933  0.5587 -1.2289
 5002TIP3   OH236420   5.373   3.383  14.523 -0.5599  0.3038 -0.3447
 5002TIP3    H136421   5.388   3.318  14.454 -1.0820  0.3889 -0.5393
 5002TIP3    H236422   5.283   3.412  14.510  0.0310  1.9824 -1.0442
 5003TIP3   OH236423   2.795   4.978  10.805 -0.0143 -0.3404 -0.4004
 5003TIP3    H136424   2.859   5.000  10.738 -0.7026 -2.4338 -1.8542
 5003TIP3    H236425   2.761   4.893  10.778 -2.3029  0.0006  1.1530
 5004TIP3   OH236426   5.704   2.740   1.549 -0.1328  0.4265  0.3077
 5004TIP3    H136427   5.685   2.830   1.523 -0.3365  0.3483  0.1814
 5004TIP3    H236428   5.739   2.699   1.470  1.1482  0.7328  0.6974
 5005TIP3   OH236429   1.077   4.233   5.100 -0.6528  0.5577 -0.2018
 5005TIP3    H136430   1.026   4.171   5.047  1.2440  0.9280 -2.6924
 5005TIP3    H236431   1.136   4.177   5.151 -0.4168  0.2223 -0.8198
 5006TIP3   OH236432   3.120   1.927   5.639 -0.3971 -0.4776  0.7443
 5006TIP3    H136433   3.158   2.013   5.659 -1.7459  1.0690 -2.6055
 5006TIP3    H236434   3.033   1.929   5.679 -0.5152 -0.1856  0.4742
 5007TIP3   OH236435   2.767   3.865  16.746 -0.0722 -0.0686 -0.1341
 5007TIP3    H136436   2.720   3.912  16.815  1.5346  0.1149  0.8934
 5007TIP3    H236437   2.843   3.920  16.727  1.5677 -1.9067  0.7017
 5008TIP3   OH236438   1.315   3.420  15.713 -0.1654 -0.2347  0.0915
 5008TIP3    H136439   1.237   3.409  15.767 -0.6208  0.3907 -0.4201
 5008TIP3    H236440   1.283   3.412  15.623  0.2812  0.4517 -0.1342
 5009TIP3   OH236441   6.647   5.211   4.658 -0.4231  0.4947 -0.1652
 5009TIP3    H136442   6.648   5.254   4.573  2.5115  1.3330  0.1761
 5009TIP3    H236443   6.602   5.273   4.716  0.2529  1.2996 -0.4938
 5010TIP3   OH236444   6.246   5.788   2.096 -0.1067 -0.1136  0.2340
 5010TIP3    H136445   6.198   5.712   2.129 -0.4460 -0.3712 -0.7929
 5010TIP3    H236446   6.291   5.755   2.018  0.8896  0.3952  0.5827
 5011TIP3   OH236447   2.566   6.455  11.705  0.6060 -0.0493 -0.1020
 5011TIP3    H136448   2.660   6.456  11.722  0.1358  0.3450  2.9477
 5011TIP3    H236449   2.559   6.419  11.617  3.6936  1.7680 -1.2799
 5012TIP3   OH236450   3.422   1.239  15.626  0.3352 -0.7830 -0.2626
 5012TIP3    H136451   3.395   1.215  15.715  0.0899 -2.9555 -0.8807
 5012TIP3    H236452   3.354   1.201  15.570  0.5288  0.4951 -1.4117
 5013TIP3   OH236453   2.365   4.576   2.345 -0.7280  0.4296  0.8557
 5013TIP3    H136454   2.450   4.620   2.346 -0.6809  0.3549  0.4081
 5013TIP3    H236455   2.301   4.646   2.356 -0.6683  0.6590 -0.1586
 5014TIP3   OH236456   4.416   6.554  14.138 -0.0636  0.3245  0.6059
 5014TIP3    H136457   4.383   6.490  14.076 -0.0388  0.9259 -0.0420
 5014TIP3    H236458   4.471   6.504  14.198  3.3812  0.2445 -2.3166
 5015TIP3   OH236459   6.540   4.406   5.124  0.0075 -0.3906  0.2061
 5015TIP3    H136460   6.541   4.322   5.078 -0.9199 -0.3514  0.1004
 5015TIP3    H236461   6.451   4.413   5.159  0.6513 -0.3734  1.9244
 5016TIP3   OH236462   3.841   6.707   2.775 -0.4623 -0.6365  0.4257
 5016TIP3    H136463   3.826   6.704   2.870  0.3538  3.0232  0.8341
 5016TIP3    H236464   3.753   6.698   2.737 -1.0402 -0.4058  1.6369
 5017TIP3   OH236465   3.340   4.813   5.396  0.6986  0.0636 -0.3143
 5017TIP3    H136466   3.277   4.883   5.409  0.5480  0.0627 -1.0176
 5017TIP3    H236467   3.425   4.857   5.389  0.6148  0.1705 -0.6692
 5018TIP3   OH236468   0.931   5.874  15.799  0.4938 -0.5399 -0.3144
 5018TIP3    H136469   0.886   5.947  15.757  0.0860 -0.4735  0.2230
 5018TIP3    H236470   0.891   5.796  15.761  1.5229 -0.5147 -1.5295
 5019TIP3   OH236471   3.732   4.511  15.692  0.2027 -0.5917 -0.3386
 5019TIP3    H136472   3.765   4.442  15.749  0.5047 -0.2665 -0.1179
 5019TIP3    H236473   3.806   4.532  15.635  0.3545  0.0727  0.0950
 5020TIP3   OH236474   3.547   4.375   3.897 -0.3163  0.4948 -0.0104
 5020TIP3    H136475   3.601   4.310   3.853  1.6178  2.9521 -1.5109
 5020TIP3    H236476   3.464   4.375   3.849 -0.7869 -1.4974  0.6924
 5021TIP3   OH236477   2.163   3.600   2.811 -0.0096  0.0238  0.3243
 5021TIP3    H136478   2.168   3.696   2.811 -0.0690  0.0709 -1.6140
 5021TIP3    H236479   2.252   3.572   2.834  0.5395  0.5923 -0.9926
 5022TIP3   OH236480   5.148   1.849  13.570 -0.1720 -0.0346 -0.1691
 5022TIP3    H136481   5.139   1.812  13.658  0.9922 -1.3660 -0.5565
 5022TIP3    H236482   5.137   1.774  13.512  0.6899  0.5275 -1.0852
 5023TIP3   OH236483   2.190   1.891  16.436 -0.2592 -0.5995  0.1669
 5023TIP3    H136484   2.138   1.971  16.430 -2.5567 -1.8268  1.9111
 5023TIP3    H236485   2.270   1.916  16.481  0.1956  1.1179 -1.4655
 5024TIP3   OH236486   6.557   4.664   2.015 -0.4185  0.9770  0.4567
 5024TIP3    H136487   6.649   4.640   2.026 -0.8355 -0.6675  0.7156
 5024TIP3    H236488   6.553   4.756   2.042  1.3089  1.4074 -0.5594
 5025TIP3   OH236489   1.047   1.888   4.703 -0.4963  0.3746 -0.1936
 5025TIP3    H136490   1.070   1.980   4.715  2.5318 -0.3130  0.3755
 5025TIP3    H236491   0.966   1.876   4.752  1.4485  1.8413  3.8810
 5026TIP3   OH236492   6.278   0.199  11.267 -0.1533  0.2933 -0.0287
 5026TIP3    H136493   6.306   0.287  11.241  1.4459 -0.0369  0.4686
 5026TIP3    H236494   6.246   0.159  11.186 -0.1890  1.0649 -0.4046
 5027TIP3   OH236495   1.041   2.210   1.054  0.3287  0.5355  0.0167
 5027TIP3    H136496   1.058   2.278   1.120  0.4557  0.1343  0.3990
 5027TIP3    H236497   1.071   2.129   1.094  0.3031  0.2674 -0.4933
 5028TIP3   OH236498   2.385   2.919  15.305 -0.1913  0.0849 -0.3109
 5028TIP3    H136499   2.435   2.979  15.249 -1.2206 -0.5915 -2.0308
 5028TIP3    H236500   2.296   2.955  15.305 -0.0315  0.5584  1.6576
 5029TIP3   OH236501   3.181   3.770  11.477  0.2305 -0.7913 -0.2382
 5029TIP3    H136502   3.225   3.725  11.405  0.6149 -0.6263 -0.1093
 5029TIP3    H236503   3.251   3.790  11.540  0.4085  1.4907 -1.0355
 5030TIP3   OH236504   6.433   1.372  17.342  0.5693 -0.8936 -0.3467
 5030TIP3    H136505   6.355   1.353  17.396  0.7774  0.1779  0.3698
 5030TIP3    H236506   6.397   1.393  17.256 -0.2678  2.3090  0.6225
 5031TIP3   OH236507   4.818   0.652  16.921 -0.1888  0.4045 -0.2305
 5031TIP3    H136508   4.887   0.687  16.864 -1.5107  0.1246 -2.1013
 5031TIP3    H236509   4.742   0.707  16.903 -1.3958 -1.3708 -0.8002
 5032TIP3   OH236510   0.798   2.771  14.507 -0.1053 -0.3080  0.5001
 5032TIP3    H136511   0.706   2.772  14.482  0.3876 -0.5881 -1.4986
 5032TIP3    H236512   0.839   2.836  14.450  0.8753  0.1202  1.6614
 5033TIP3   OH236513   1.829   5.227  15.988  0.3832  0.6212  0.3797
 5033TIP3    H136514   1.817   5.151  15.932 -2.2378  1.7470 -0.7614
 5033TIP3    H236515   1.858   5.296  15.929  0.7337  1.0275  1.0143
 5034TIP3   OH236516   1.194   6.636   1.665  0.3951  0.0118 -0.4276
 5034TIP3    H136517   1.137   6.661   1.592 -1.1445 -1.4977  0.2137
 5034TIP3    H236518   1.240   6.558   1.635 -0.3568 -0.7041  0.2633
 5035TIP3   OH236519   4.735   6.380   4.624 -0.4494  0.0036 -0.0826
 5035TIP3    H136520   4.651   6.425   4.614 -0.8478 -0.7365 -0.0933
 5035TIP3    H236521   4.781   6.431   4.691 -0.4186  1.1058 -0.9051
 5036TIP3   OH236522   3.770   3.694  11.695  0.8175  0.0128  0.7215
 5036TIP3    H136523   3.800   3.734  11.614 -2.6383  1.2969 -0.0935
 5036TIP3    H236524   3.811   3.607  11.695  2.9453  0.9261 -1.0377
 5037TIP3   OH236525   3.966   1.021  14.837 -0.0393  0.1180 -0.1174
 5037TIP3    H136526   3.968   0.940  14.889 -1.3072  0.2160  0.1188
 5037TIP3    H236527   3.958   0.990  14.747 -0.3731 -0.0298 -0.0406
 5038TIP3   OH236528   2.857   5.677  16.719 -0.1655  0.0724  0.3603
 5038TIP3    H136529   2.865   5.654  16.812  2.6857  1.3996  0.5592
 5038TIP3    H236530   2.871   5.594  16.673  0.9399 -0.2004  1.1322
 5039TIP3   OH236531   5.198   5.354   0.015 -0.4034  0.2955  0.3764
 5039TIP3    H136532   5.292   5.333   0.013 -0.7182 -1.2031  0.3823
 5039TIP3    H236533   5.194   5.447  -0.008  1.0129  0.1576 -0.5420
 5040TIP3   OH236534   6.671   1.848  16.602  0.0845 -0.4234 -0.1141
 5040TIP3    H136535   6.766   1.859  16.613  0.2923 -1.3401 -0.7989
 5040TIP3    H236536   6.649   1.775  16.660 -0.5752  1.0157  1.5171
 5041TIP3   OH236537   5.479   0.572   2.561 -0.5415  0.1810  0.3110
 5041TIP3    H136538   5.457   0.493   2.511 -0.4933  0.3219  0.0643
 5041TIP3    H236539   5.556   0.607   2.517 -0.7142  0.5065  0.2665
 5042TIP3   OH236540   6.642   5.139   2.770  0.3373  0.4123 -0.3968
 5042TIP3    H136541   6.605   5.226   2.784 -0.3346 -0.3257  3.3180
 5042TIP3    H236542   6.732   5.146   2.804 -0.3500 -0.7377  1.8366
 5043TIP3   OH236543   5.752   3.745  13.351  0.4667 -0.4544 -0.4714
 5043TIP3    H136544   5.754   3.653  13.379 -0.5462 -0.7829 -1.3755
 5043TIP3    H236545   5.841   3.776  13.364  0.3292 -0.9023  1.9404
 5044TIP3   OH236546   2.470   2.630  12.055 -0.0377  0.3391  0.2390
 5044TIP3    H136547   2.467   2.612  11.961  0.6341 -1.3753  0.5035
 5044TIP3    H236548   2.553   2.677  12.068 -0.6973  1.6537 -0.1602
 5045TIP3   OH236549   6.423   0.733   4.628  0.0818 -0.2837 -0.2793
 5045TIP3    H136550   6.352   0.731   4.693  0.9044  2.5387  0.8412
 5045TIP3    H236551   6.378   0.743   4.544 -0.8797 -0.3196  0.2144
 5046TIP3   OH236552   3.896   4.949   1.164 -0.1345 -0.0887 -0.1192
 5046TIP3    H136553   3.911   4.989   1.249  2.1556  1.3896 -1.1425
 5046TIP3    H236554   3.958   4.876   1.160 -0.4730 -0.3677 -0.4215
 5047TIP3   OH236555   0.392   2.979  14.759 -0.2074  0.2572  0.3661
 5047TIP3    H136556   0.471   3.009  14.715  0.7800  0.1864  2.0255
 5047TIP3    H236557   0.413   2.893  14.793 -1.4028 -0.2658 -0.1523
 5048TIP3   OH236558   5.274   3.146   4.174  0.4593  0.1358 -0.2427
 5048TIP3    H136559   5.286   3.135   4.269  2.5654  0.4567 -0.4155
 5048TIP3    H236560   5.182   3.169   4.164  0.1413 -0.0839  1.7081
 5049TIP3   OH236561   1.403   0.058  13.999  0.0455  0.0945 -0.6953
 5049TIP3    H136562   1.425  -0.034  14.016 -2.0579 -0.4062 -0.3932
 5049TIP3    H236563   1.467   0.107  14.050 -1.1557 -1.2830  2.4118
 5050TIP3   OH236564   0.483   2.369  17.220  0.4783 -0.3495 -0.2882
 5050TIP3    H136565   0.450   2.281  17.240  0.6926 -0.3373  0.1231
 5050TIP3    H236566   0.414   2.408  17.166 -0.6593  0.0324  1.3638
 5051TIP3   OH236567   1.885   4.407   6.006  0.2269 -0.3502 -0.5167
 5051TIP3    H136568   1.846   4.479   6.056 -2.0516 -0.6491 -1.7579
 5051TIP3    H236569   1.888   4.334   6.068 -1.2580 -0.3202 -0.3928
 5052TIP3   OH236570   4.424   4.792   4.632 -0.1200 -0.3695  0.1684
 5052TIP3    H136571   4.486   4.725   4.604 -0.6926 -0.6164 -0.5418
 5052TIP3    H236572   4.417   4.780   4.726  0.0218 -1.1023  0.0908
 5053TIP3   OH236573   1.777   0.011   2.686  0.3253  0.0604  0.5490
 5053TIP3    H136574   1.859  -0.035   2.670  1.0675  1.1241  1.1434
 5053TIP3    H236575   1.734  -0.039   2.755  0.5839 -0.3586  0.4124
 5054TIP3   OH236576   3.385   3.922  14.114  0.3058  0.0399  0.0233
 5054TIP3    H136577   3.336   3.844  14.087 -0.1670 -0.5864  2.4496
 5054TIP3    H236578   3.460   3.925  14.054  0.5274 -2.5132  0.0504
 5055TIP3   OH236579   5.313   5.651  12.788  0.0676 -0.0014  0.7175
 5055TIP3    H136580   5.243   5.680  12.846  0.4018 -0.3606  1.3099
 5055TIP3    H236581   5.368   5.594  12.843  0.2498 -0.5416 -0.0115
 5056TIP3   OH236582   4.181   1.836   4.922 -0.0665  0.1734 -0.0854
 5056TIP3    H136583   4.200   1.800   4.835  0.4375  0.3396 -0.0475
 5056TIP3    H236584   4.159   1.760   4.975  0.6804 -0.0451 -0.0869
 5057TIP3   OH236585   1.338   6.605  12.621  0.2042  0.7700  0.1938
 5057TIP3    H136586   1.281   6.580  12.548 -1.9138  1.7703  1.4149
 5057TIP3    H236587   1.335   6.531  12.681  0.9420  0.4660 -0.1261
 5058TIP3   OH236588   5.928   3.413  17.189  0.0549 -0.1799 -0.0878
 5058TIP3    H136589   5.943   3.500  17.152  0.5587  0.1109  0.7704
 5058TIP3    H236590   5.854   3.378  17.139  0.8552  0.0928 -1.5307
 5059TIP3   OH236591   5.373   2.462  13.426  0.3230 -0.4138 -0.7984
 5059TIP3    H136592   5.406   2.398  13.489  0.7248  0.7377  0.2103
 5059TIP3    H236593   5.448   2.517  13.407 -0.3611  0.6781 -0.4521
 5060TIP3   OH236594   1.300   2.439  13.977 -0.1110 -0.3848  0.2020
 5060TIP3    H136595   1.208   2.457  13.999 -0.4183 -3.1205  1.5301
 5060TIP3    H236596   1.349   2.507  14.024 -1.3839  0.6338  0.1214
 5061TIP3   OH236597   2.437   2.034   5.801  0.2072 -0.4196  0.5752
 5061TIP3    H136598   2.370   2.068   5.859  1.1116  0.0718  1.3497
 5061TIP3    H236599   2.520   2.059   5.841  0.8605 -0.1879 -0.8482
 5062TIP3   OH236600   5.222   1.089   1.996 -0.4426 -0.3116 -0.1659
 5062TIP3    H136601   5.218   1.025   1.925 -1.1737 -1.6855  1.0867
 5062TIP3    H236602   5.315   1.097   2.016 -0.3601 -1.0667 -0.2450
 5063TIP3   OH236603   0.363   1.461   0.500  0.0565 -0.5229 -0.4469
 5063TIP3    H136604   0.420   1.533   0.529 -0.2066 -0.7943  0.7891
 5063TIP3    H236605   0.351   1.477   0.406 -0.1602  1.1683 -0.1725
 5064TIP3   OH236606   3.324   4.589   4.999  0.3125  0.6438 -0.0869
 5064TIP3    H136607   3.301   4.609   4.908 -1.5270  1.7740  0.5695
 5064TIP3    H236608   3.279   4.656   5.051  0.4307 -0.6005  1.7308
 5065TIP3   OH236609   4.237   4.908   2.733  0.0842 -0.0132 -0.3606
 5065TIP3    H136610   4.200   4.977   2.679  0.1035  0.0101 -0.3442
 5065TIP3    H236611   4.331   4.920   2.727  0.0955 -0.2026 -0.5723
 5066TIP3   OH236612   1.907   3.315  11.905  0.7404  0.2760  0.0707
 5066TIP3    H136613   1.974   3.253  11.874 -2.8183 -3.3917 -1.1737
 5066TIP3    H236614   1.896   3.295  11.998  0.1322 -0.5045 -0.1565
 5067TIP3   OH236615   2.860   4.953  17.036  0.1201 -0.4734 -0.3285
 5067TIP3    H136616   2.771   4.929  17.063 -0.9932  2.4220 -1.1235
 5067TIP3    H236617   2.849   4.996  16.952  2.4731 -1.0747 -1.0131
 5068TIP3   OH236618   5.871   6.096   1.694  0.1616  0.1480 -0.1256
 5068TIP3    H136619   5.820   6.021   1.663  0.4719 -0.4872  0.8569
 5068TIP3    H236620   5.959   6.061   1.708 -0.0396  0.2970  1.7892
 5069TIP3   OH236621   3.172   2.703  17.336 -0.2787 -0.5018  0.4717
 5069TIP3    H136622   3.187   2.686  17.243  0.5753 -0.7084  0.6374
 5069TIP3    H236623   3.255   2.738  17.368 -1.0552  1.0944  0.8206
 5070TIP3   OH236624   5.812   5.844   5.454  0.2600 -0.1424  0.1684
 5070TIP3    H136625   5.844   5.920   5.503  0.1813 -0.2895  0.4508
 5070TIP3    H236626   5.724   5.828   5.490  0.9688 -1.4859  1.3858
 5071TIP3   OH236627   1.588   0.197  15.411  0.0262 -0.2899  0.4563
 5071TIP3    H136628   1.496   0.174  15.404  0.2914 -0.8639 -2.1269
 5071TIP3    H236629   1.589   0.278  15.462 -2.3619  1.9532 -2.6792
 5072TIP3   OH236630   1.563   6.546   2.461  0.5973 -0.1282 -0.2237
 5072TIP3    H136631   1.515   6.610   2.408  0.2588  0.0284  0.2605
 5072TIP3    H236632   1.513   6.541   2.543  0.1139 -1.6597 -0.5759
 5073TIP3   OH236633   1.350   4.501  12.676  0.0750 -0.1904 -0.3035
 5073TIP3    H136634   1.296   4.543  12.744  0.9636 -0.5391  0.6334
 5073TIP3    H236635   1.403   4.438  12.723  0.9283 -0.2301 -1.2906
 5074TIP3   OH236636   0.255   1.249   3.822 -0.1951 -0.6108  0.3181
 5074TIP3    H136637   0.292   1.213   3.903  0.2943 -0.3125  0.2293
 5074TIP3    H236638   0.235   1.340   3.844 -0.0724 -0.5330  0.1119
 5075TIP3   OH236639   0.460   2.918   5.175  0.4546 -0.7035 -0.0918
 5075TIP3    H136640   0.371   2.952   5.188  1.1369  1.3629 -0.3320
 5075TIP3    H236641   0.483   2.945   5.086  1.6535 -0.3545  0.2999
 5076TIP3   OH236642   6.645   4.459   4.772 -0.1995  0.6099 -0.0463
 5076TIP3    H136643   6.697   4.467   4.692  3.3438 -1.4764  1.7800
 5076TIP3    H236644   6.613   4.369   4.771 -0.0070  0.5193  0.9308
 5077TIP3   OH236645   2.379   1.547  16.967 -0.4006  0.5732 -0.0702
 5077TIP3    H136646   2.383   1.486  16.894 -3.6243 -0.0357  0.0964
 5077TIP3    H236647   2.399   1.632  16.928 -1.0420  0.1123 -1.4649
 5078TIP3   OH236648   0.527   2.431   4.101  0.3669 -0.0592 -0.1349
 5078TIP3    H136649   0.504   2.524   4.103  1.5541  0.2479  0.3223
 5078TIP3    H236650   0.564   2.417   4.014 -3.0091 -0.9849 -1.5963
 5079TIP3   OH236651   3.497   0.980  14.461 -0.0394 -0.0588  0.2245
 5079TIP3    H136652   3.527   0.901  14.504  1.4708  0.1531 -0.3519
 5079TIP3    H236653   3.496   0.958  14.368 -0.2313  0.3990  0.1131
 5080TIP3   OH236654   3.929   0.412   1.846 -0.2476 -0.0372 -0.2118
 5080TIP3    H136655   3.872   0.352   1.895 -0.4259  0.0903 -0.2627
 5080TIP3    H236656   3.991   0.354   1.802  0.1162 -0.1366  0.4187
 5081TIP3   OH236657   0.348   5.520   5.622 -0.3579  0.9107 -0.0251
 5081TIP3    H136658   0.376   5.463   5.694  0.7980  1.5818  0.0908
 5081TIP3    H236659   0.259   5.493   5.603 -0.7802  0.8652  1.8248
 5082TIP3   OH236660   0.481   3.878   3.921  0.3012 -0.5599 -0.9845
 5082TIP3    H136661   0.515   3.803   3.872 -0.3479 -2.3161  1.0758
 5082TIP3    H236662   0.409   3.842   3.972  2.0145  0.6539  2.6275
 5083TIP3   OH236663   5.819   4.772   1.740 -0.2277 -0.0643 -0.5498
 5083TIP3    H136664   5.822   4.864   1.764  0.0555 -0.6446  1.8708
 5083TIP3    H236665   5.901   4.756   1.693 -0.6812  1.0763 -1.7922
 5084TIP3   OH236666   5.222   3.544  13.047  0.1394 -0.3410  0.0756
 5084TIP3    H136667   5.130   3.545  13.021  0.2679  2.2788 -0.5413
 5084TIP3    H236668   5.269   3.519  12.967  0.1539  2.3602 -0.8794
 5085TIP3   OH236669   3.977   3.708   3.200  0.4416  0.0366  0.1247
 5085TIP3    H136670   3.969   3.801   3.219 -0.1341 -0.0741  0.4723
 5085TIP3    H236671   3.912   3.667   3.257 -0.4129 -0.4321 -1.1548
 5086TIP3   OH236672   1.711   5.778   1.870 -0.2877  0.2882  0.0259
 5086TIP3    H136673   1.682   5.853   1.922 -0.2857 -0.2088  0.7575
 5086TIP3    H236674   1.631   5.730   1.850 -0.2716  0.4004 -0.3108
 5087TIP3   OH236675   6.099   1.384  11.077  0.1816 -0.2174  0.7153
 5087TIP3    H136676   6.006   1.363  11.068 -0.0516  1.4641 -2.1281
 5087TIP3    H236677   6.144   1.304  11.050 -0.4381 -0.6120  0.8170
 5088TIP3   OH236678   3.195   4.144  13.761 -0.7333  0.0330 -0.2617
 5088TIP3    H136679   3.250   4.183  13.693  2.5836 -0.7439  1.6926
 5088TIP3    H236680   3.163   4.062  13.722 -0.2863  0.3916 -1.4227
 5089TIP3   OH236681   5.974   3.770   0.175  0.3023  0.4950  0.0974
 5089TIP3    H136682   6.045   3.717   0.140  1.5679  0.6608  2.2268
 5089TIP3    H236683   5.963   3.840   0.111  0.3739 -0.8468 -1.4593
 5090TIP3   OH236684   2.224   0.278   5.509 -0.5855  0.3297 -0.2275
 5090TIP3    H136685   2.241   0.184   5.505  0.4164  0.4608  0.6515
 5090TIP3    H236686   2.147   0.287   5.566  0.5932  0.1636  1.4331
 5091TIP3   OH236687   3.314   3.161   1.870  0.9409 -0.0108  0.3820
 5091TIP3    H136688   3.355   3.156   1.783  1.5517 -0.4812  0.6868
 5091TIP3    H236689   3.230   3.204   1.854  1.5202  0.9257 -0.2690
 5092TIP3   OH236690   0.837   1.963   5.234  0.5403 -0.0272  0.5591
 5092TIP3    H136691   0.819   1.913   5.154  0.1091  0.6110  0.2525
 5092TIP3    H236692   0.836   1.898   5.304  2.0224 -0.7949 -0.0709
 5093TIP3   OH236693   0.673   2.944   6.208 -0.0693 -0.4408  0.4156
 5093TIP3    H136694   0.655   2.966   6.299 -1.4026 -0.0990  0.0920
 5093TIP3    H236695   0.625   2.863   6.192 -2.0641  0.8741 -0.6717
 5094TIP3   OH236696   3.480   0.408  12.878  0.0564 -0.1501 -0.1826
 5094TIP3    H136697   3.401   0.454  12.908 -0.1313  0.4278 -1.4869
 5094TIP3    H236698   3.454   0.369  12.795  1.5854  1.5068 -1.5238
 5095TIP3   OH236699   5.696   0.145  14.551 -0.1426  1.0911  0.0856
 5095TIP3    H136700   5.727   0.056  14.566 -0.2720  1.4999  3.5524
 5095TIP3    H236701   5.735   0.171  14.467  0.4860 -1.9065 -0.6624
 5096TIP3   OH236702   5.829   4.029   2.549  0.1294  0.5879  0.1662
 5096TIP3    H136703   5.881   4.101   2.514  0.2915 -0.2769 -1.4688
 5096TIP3    H236704   5.831   4.042   2.644  0.2940  2.6134 -0.0713
 5097TIP3   OH236705   5.964   4.918  12.832 -0.0195  0.5018 -0.2869
 5097TIP3    H136706   5.882   4.889  12.792  1.1363 -2.6221 -0.6123
 5097TIP3    H236707   6.030   4.903  12.765  1.0788  1.2953  0.5832
 5098TIP3   OH236708   1.602   0.106  15.860  0.4308 -0.3993  0.1896
 5098TIP3    H136709   1.557   0.074  15.782 -2.8442 -1.3469  2.2531
 5098TIP3    H236710   1.556   0.186  15.885  1.4561 -0.0590  1.1173
 5099TIP3   OH236711   5.518   2.163   5.799  0.1579  0.2466 -0.3082
 5099TIP3    H136712   5.517   2.068   5.804  0.5602  0.2188 -0.6759
 5099TIP3    H236713   5.568   2.183   5.720 -0.0691  0.7606 -0.3300
 5100TIP3   OH236714   6.542   6.435  15.163 -0.6033 -0.1703  0.0396
 5100TIP3    H136715   6.451   6.459  15.182 -0.4609  1.4247 -1.1009
 5100TIP3    H236716   6.576   6.403  15.246 -1.6238  1.1057  0.9919
 5101TIP3   OH236717   3.402   3.619   0.350 -0.4466 -0.2728 -0.0244
 5101TIP3    H136718   3.456   3.588   0.423 -1.0178  2.2097  1.5753
 5101TIP3    H236719   3.313   3.618   0.384 -0.6017  1.9882 -0.1886
 5102TIP3   OH236720   4.941   0.953   0.139 -0.1434 -0.9872  0.0187
 5102TIP3    H136721   5.003   0.948   0.067 -0.1411  1.4765 -0.2513
 5102TIP3    H236722   4.992   0.928   0.216  1.3887  1.3079 -0.1399
 5103TIP3   OH236723   5.782   2.764   1.041 -0.0625  0.1002 -0.1921
 5103TIP3    H136724   5.850   2.832   1.045 -0.2410  0.2256  1.1706
 5103TIP3    H236725   5.700   2.814   1.030  0.0178 -0.0445 -1.7073
 5104TIP3   OH236726   2.927   5.172  16.381  0.0809  0.1943  0.1748
 5104TIP3    H136727   2.951   5.215  16.299 -0.9683  0.8357  0.1945
 5104TIP3    H236728   2.930   5.242  16.446  1.7014 -0.4715  0.8581
 5105TIP3   OH236729   6.343   1.721  12.471 -0.3125  0.5147  0.1345
 5105TIP3    H136730   6.436   1.717  12.491 -0.0141  0.5328 -1.1361
 5105TIP3    H236731   6.318   1.811  12.492 -0.1518  0.3917  0.8762
 5106TIP3   OH236732   1.764   4.790  16.800  0.3562  0.1606 -0.1870
 5106TIP3    H136733   1.820   4.771  16.724  1.0298 -0.5364  0.4541
 5106TIP3    H236734   1.824   4.832  16.863 -0.0172  0.0586  0.2361
 5107TIP3   OH236735   3.150   0.202  12.523 -0.3661  0.0530 -0.0026
 5107TIP3    H136736   3.062   0.183  12.556 -0.3550 -0.1045 -0.0625
 5107TIP3    H236737   3.178   0.121  12.482 -0.1285  0.0497  0.1589
 5108TIP3   OH236738   1.759   2.506  13.834  0.4411 -0.2801 -0.1972
 5108TIP3    H136739   1.813   2.502  13.912  0.4737 -0.6225 -0.2359
 5108TIP3    H236740   1.817   2.539  13.765  0.4809 -0.2267 -0.1377
 5109TIP3   OH236741   2.320   4.815  14.129  0.3523 -0.3536 -0.2416
 5109TIP3    H136742   2.347   4.825  14.220  1.5498  2.1948 -0.7919
 5109TIP3    H236743   2.398   4.836  14.078 -1.3536  2.7734 -1.8707
 5110TIP3   OH236744   2.210   1.414  13.565  0.5163 -0.0434 -0.4246
 5110TIP3    H136745   2.300   1.432  13.591  0.6535  0.2025 -1.0618
 5110TIP3    H236746   2.180   1.347  13.627 -0.5929  3.4161  3.1989
 5111TIP3   OH236747   0.123   2.813  11.868 -0.2904  0.4514  0.5911
 5111TIP3    H136748   0.073   2.792  11.789 -0.0436 -0.3019  0.6212
 5111TIP3    H236749   0.194   2.868  11.837  0.0363 -0.1681  0.2120
 5112TIP3   OH236750   1.714   1.955  13.589  0.3040  0.4073 -0.1841
 5112TIP3    H136751   1.758   1.870  13.592 -0.1194  0.1320 -1.3450
 5112TIP3    H236752   1.733   1.989  13.502  0.7236  1.6583  0.3707
 5113TIP3   OH236753   0.048   1.852  14.091 -0.6462  0.1885  0.0304
 5113TIP3    H136754  -0.024   1.875  14.150  0.0917  1.4981  0.4462
 5113TIP3    H236755   0.005   1.812  14.016 -1.6776 -0.6482  1.0245
 5114TIP3   OH236756   4.264   4.305  15.151 -0.3862 -0.0573 -0.1180
 5114TIP3    H136757   4.219   4.329  15.232 -0.5176 -0.7427  0.0190
 5114TIP3    H236758   4.219   4.354  15.083  1.9066  3.3467  0.5409
 5115TIP3   OH236759   4.063   6.240  12.780  0.4359 -0.1325  0.5101
 5115TIP3    H136760   4.072   6.153  12.742  2.0846  0.6065 -0.9140
 5115TIP3    H236761   4.151   6.262  12.810  0.0573  1.0661  0.7764
 5116TIP3   OH236762   2.111   0.253   3.463 -0.4059 -0.2680 -0.0027
 5116TIP3    H136763   2.024   0.288   3.483  0.4255  1.7234  0.2963
 5116TIP3    H236764   2.163   0.272   3.540  1.0310  1.1537 -1.2733
 5117TIP3   OH236765   4.582   1.725   3.590 -0.4036  1.0332  0.2151
 5117TIP3    H136766   4.650   1.758   3.648  1.5785 -1.2095 -0.6517
 5117TIP3    H236767   4.568   1.796   3.527 -1.1751  2.7166  2.1556
 5118TIP3   OH236768   5.241   4.705  14.235 -0.3722 -0.2859 -0.9491
 5118TIP3    H136769   5.147   4.721  14.231 -1.1720 -2.2945  3.5434
 5118TIP3    H236770   5.255   4.629  14.179 -1.5360 -0.2989 -1.2463
 5119TIP3   OH236771   4.653   6.147  12.585  0.1030 -0.5461 -0.0762
 5119TIP3    H136772   4.584   6.167  12.648 -0.0212 -0.7032 -0.1621
 5119TIP3    H236773   4.637   6.207  12.512  0.5579  0.0036  0.2622
 5120TIP3   OH236774   5.754   3.004  11.337 -0.1497 -0.2212  0.0910
 5120TIP3    H136775   5.664   3.033  11.320  0.0069  1.2469  1.5294
 5120TIP3    H236776   5.783   2.966  11.254 -2.0561 -0.6325 -0.4270
 5121TIP3   OH236777   5.907   4.274  14.062  0.2404 -0.3780 -0.0039
 5121TIP3    H136778   5.824   4.227  14.050  0.8541 -1.1047 -1.7328
 5121TIP3    H236779   5.903   4.307  14.151 -2.3667  0.5172 -0.3639
 5122TIP3   OH236780   5.294   3.801   1.494 -0.0933 -0.3652 -0.1177
 5122TIP3    H136781   5.255   3.715   1.511 -4.2404  1.1820 -0.5893
 5122TIP3    H236782   5.300   3.843   1.580 -0.2046 -0.3222 -0.1312
 5123TIP3   OH236783   6.533   6.556  13.398  0.3507 -0.2052  0.1279
 5123TIP3    H136784   6.580   6.500  13.336  1.6520 -0.7860  1.5824
 5123TIP3    H236785   6.579   6.544  13.481 -1.3290  0.5644  1.2211
 5124TIP3   OH236786   3.689   1.299   5.420  0.1475  0.1646  0.3355
 5124TIP3    H136787   3.779   1.270   5.431  1.3554  2.8530 -1.4535
 5124TIP3    H236788   3.658   1.252   5.343  0.5171  0.2912  0.1083
 5125TIP3   OH236789   4.348   3.627   4.236 -0.1289  0.0775  0.0553
 5125TIP3    H136790   4.289   3.573   4.183 -0.0496  0.1034 -0.0598
 5125TIP3    H236791   4.389   3.565   4.297  2.0237 -0.5213 -1.8457
 5126TIP3   OH236792   0.956   5.510  14.177 -0.2584 -0.2671  0.1692
 5126TIP3    H136793   0.922   5.423  14.197 -0.3146 -0.4204 -0.5536
 5126TIP3    H236794   0.880   5.568  14.182 -0.3746 -0.3924 -0.1301
 5127TIP3   OH236795   0.262   6.432   2.691 -0.3001 -0.6216  0.0701
 5127TIP3    H136796   0.274   6.503   2.754  1.1921 -1.3181  0.6344
 5127TIP3    H236797   0.215   6.471   2.618  2.8201  1.7233 -0.8950
 5128TIP3   OH236798   5.577   3.684   5.513 -0.1035  0.3963  0.1713
 5128TIP3    H136799   5.630   3.764   5.506  0.2075  0.0842 -1.1951
 5128TIP3    H236800   5.488   3.712   5.494  0.2781  0.1171 -2.2506
 5129TIP3   OH236801   3.059   5.227   2.107 -0.2248 -0.0487 -0.6077
 5129TIP3    H136802   2.967   5.252   2.108  0.1567  1.4399 -0.2259
 5129TIP3    H236803   3.059   5.134   2.132 -1.5713  0.0793 -0.0349
 5130TIP3   OH236804   1.100   4.087  13.426 -0.2763 -0.1172 -0.0228
 5130TIP3    H136805   1.175   4.105  13.483  0.0457 -1.0466 -0.1303
 5130TIP3    H236806   1.094   3.992  13.425  0.0771 -0.1535 -1.9748
 5131TIP3   OH236807   4.138   5.385  13.087 -0.6447 -0.5834 -0.2129
 5131TIP3    H136808   4.231   5.366  13.077 -0.1470  1.8982 -0.9252
 5131TIP3    H236809   4.094   5.310  13.047  1.0896 -0.8925 -1.6474
 5132TIP3   OH236810   6.583   2.310  13.183  0.2465  0.0829 -0.0344
 5132TIP3    H136811   6.646   2.306  13.255 -0.3697 -0.3151  0.4921
 5132TIP3    H236812   6.502   2.276  13.221 -1.5115  4.3938  0.5695
 5133TIP3   OH236813   6.387   3.768   3.349 -0.4951  0.2723 -0.2455
 5133TIP3    H136814   6.331   3.842   3.370  0.9602  1.1190  0.8616
 5133TIP3    H236815   6.464   3.779   3.405 -0.6932 -2.6927  0.7847
 5134TIP3   OH236816   1.728   3.165   4.894 -0.2453  0.1832 -0.0592
 5134TIP3    H136817   1.768   3.080   4.877 -0.7676  0.0925 -0.8350
 5134TIP3    H236818   1.635   3.147   4.903 -0.9391  1.0701 -3.7691
 5135TIP3   OH236819   1.182   0.027   2.361 -0.5104  0.3916 -0.1098
 5135TIP3    H136820   1.275   0.045   2.345 -0.3725 -0.5270 -0.4494
 5135TIP3    H236821   1.138   0.109   2.342 -0.0140  0.2130 -2.3534
 5136TIP3   OH236822   6.695   5.265  15.179  0.3831  0.1240 -0.4138
 5136TIP3    H136823   6.786   5.291  15.165  1.0259 -0.5928  1.9773
 5136TIP3    H236824   6.656   5.340  15.224  0.2540 -0.2347  0.0702
 5137TIP3   OH236825   6.463   2.510  15.192  0.4343 -0.4571 -0.2491
 5137TIP3    H136826   6.430   2.494  15.104  1.2969  0.9874 -0.8588
 5137TIP3    H236827   6.464   2.423  15.233 -1.0926 -0.9812 -1.2410
 5138TIP3   OH236828   2.921   3.771  14.038  0.0624 -0.4917 -0.2651
 5138TIP3    H136829   2.941   3.857  14.002 -1.6796  0.4311  0.8344
 5138TIP3    H236830   3.007   3.734  14.062  0.8403  0.8785 -0.8594
 5139TIP3   OH236831   5.725   5.644  16.958 -0.4151  0.1625 -0.2707
 5139TIP3    H136832   5.790   5.578  16.933 -1.7180 -0.8276 -1.1856
 5139TIP3    H236833   5.714   5.698  16.880 -0.1317  0.8111  0.1331
 5140TIP3   OH236834   5.347   1.315   3.927 -0.6622  0.2474 -0.7002
 5140TIP3    H136835   5.378   1.402   3.951 -0.2729 -0.1126  0.1674
 5140TIP3    H236836   5.254   1.326   3.910 -1.3244  0.3328  2.3858
 5141TIP3   OH236837   1.192   2.905  12.689 -0.4071  0.0198  0.4089
 5141TIP3    H136838   1.210   2.840  12.622  1.3408  1.2820 -0.4276
 5141TIP3    H236839   1.164   2.983  12.641 -0.2677  0.5906  1.2146
 5142TIP3   OH236840   2.140   1.747  13.279  0.6059 -0.0423  0.0262
 5142TIP3    H136841   2.162   1.802  13.203  1.4209 -1.6832 -0.9718
 5142TIP3    H236842   2.091   1.806  13.337 -0.7208  1.0805 -2.0862
 5143TIP3   OH236843   2.145   5.777   0.826 -0.1403  0.2745 -0.4031
 5143TIP3    H136844   2.122   5.724   0.902  0.0687  1.4399  0.5004
 5143TIP3    H236845   2.162   5.713   0.757 -4.6443 -0.7992 -0.8363
 5144TIP3   OH236846   5.107   1.071   4.052 -0.7490 -0.2148 -0.1300
 5144TIP3    H136847   5.143   1.021   4.125  1.1787  2.0810  0.6121
 5144TIP3    H236848   5.172   1.061   3.982 -0.6712  0.6858 -0.1921
 5145TIP3   OH236849   5.709   5.876   3.129  0.2003 -0.2801 -0.1785
 5145TIP3    H136850   5.717   5.841   3.040 -1.9248  0.4810 -0.7297
 5145TIP3    H236851   5.725   5.800   3.186  1.2988 -0.8427 -1.1935
 5146TIP3   OH236852   0.802   6.044   0.218 -0.5154 -0.0759  0.5883
 5146TIP3    H136853   0.719   6.013   0.181 -1.2476  1.7370  0.5807
 5146TIP3    H236854   0.780   6.129   0.255  0.9925 -0.3089  2.1086
 5147TIP3   OH236855   0.429   5.142   0.892 -0.3754 -0.2377  0.0242
 5147TIP3    H136856   0.341   5.152   0.929  0.1428  0.3793  1.1602
 5147TIP3    H236857   0.487   5.163   0.965  0.7154  1.3204 -1.2284
 5148TIP3   OH236858   5.881   6.726   6.425  0.1522 -0.1790 -0.1503
 5148TIP3    H136859   5.830   6.807   6.416 -0.3673 -0.4761  0.1392
 5148TIP3    H236860   5.822   6.664   6.465  1.2398 -0.0559  1.7470
 5149TIP3   OH236861   2.348   0.107   1.046  0.1137 -0.4143 -0.2782
 5149TIP3    H136862   2.390   0.133   1.128  0.7472  0.6691 -0.9219
 5149TIP3    H236863   2.381   0.019   1.028  1.7479  0.2155 -0.5051
 5150TIP3   OH236864   1.744   4.679  13.747 -0.2841 -0.1501 -0.0867
 5150TIP3    H136865   1.690   4.675  13.668 -1.7858 -1.8816  0.9587
 5150TIP3    H236866   1.815   4.739  13.724 -0.8057 -0.3979 -2.6515
 5151TIP3   OH236867   1.189   1.819   0.199  0.7012  0.2943 -0.2645
 5151TIP3    H136868   1.230   1.844   0.282  1.8460 -0.1686 -0.6582
 5151TIP3    H236869   1.236   1.870   0.133 -0.7072  1.2218 -0.5738
 5152TIP3   OH236870   0.860   5.227  15.494 -0.2045  0.0814  0.3583
 5152TIP3    H136871   0.865   5.160  15.426 -1.0701  1.3514 -1.0280
 5152TIP3    H236872   0.853   5.310  15.446  0.2505  1.1337  2.0046
 5153TIP3   OH236873   5.538   4.450  15.328 -0.2324 -0.5866  0.8211
 5153TIP3    H136874   5.624   4.451  15.368  1.8356  0.2136 -3.1059
 5153TIP3    H236875   5.526   4.361  15.296  0.2618 -0.1827 -0.5888
 5154TIP3   OH236876   6.094   2.933  14.684 -0.7712  0.5349  0.5091
 5154TIP3    H136877   6.072   3.026  14.690 -3.2272  0.0136  0.6674
 5154TIP3    H236878   6.074   2.910  14.593  1.1474  0.4162  0.0799
 5155TIP3   OH236879   3.176   2.720   0.249  0.7087  0.4329  0.1767
 5155TIP3    H136880   3.189   2.813   0.233 -0.0765  0.5100 -0.0662
 5155TIP3    H236881   3.126   2.689   0.174  0.3063 -0.0274  0.6231
 5156TIP3   OH236882   3.617   3.765   0.494  0.5097 -1.0216  0.6542
 5156TIP3    H136883   3.601   3.770   0.400  1.8008  0.4327  0.4721
 5156TIP3    H236884   3.665   3.683   0.507 -0.7051 -1.8195  0.2401
 5157TIP3   OH236885   6.749   3.684   2.414  0.2173 -0.0466  0.4215
 5157TIP3    H136886   6.660   3.717   2.397  0.6413  2.3587  2.3907
 5157TIP3    H236887   6.798   3.761   2.443  2.3785 -1.7316  1.4965
 5158TIP3   OH236888   3.934   2.490   5.596 -0.1481 -0.2143 -0.2518
 5158TIP3    H136889   3.908   2.572   5.638  0.5536 -0.8683  1.5725
 5158TIP3    H236890   3.864   2.429   5.616  0.6320 -0.7849  0.8295
 5159TIP3   OH236891   6.457   2.916  12.341 -0.7915  0.6165 -0.5858
 5159TIP3    H136892   6.541   2.930  12.386 -1.5911  0.8746  0.8880
 5159TIP3    H236893   6.444   2.997  12.291  0.2071  0.2453 -1.4991
 5160TIP3   OH236894   2.422   6.404  13.390  0.9422 -0.2880 -0.0438
 5160TIP3    H136895   2.513   6.411  13.361  0.4138  0.8444 -1.5056
 5160TIP3    H236896   2.400   6.492  13.421 -0.6952  0.4446 -2.9864
 5161TIP3   OH236897   1.805   3.987   0.781  0.1366 -0.7133  0.5214
 5161TIP3    H136898   1.757   4.037   0.716  1.1288 -0.9930 -0.4585
 5161TIP3    H236899   1.810   4.045   0.857  0.3579  0.2663 -0.2265
 5162TIP3   OH236900   1.119   4.031   3.748  0.3465 -0.0561  0.2050
 5162TIP3    H136901   1.063   3.965   3.789  1.6085 -0.3266  1.5333
 5162TIP3    H236902   1.208   3.996   3.756  1.1031  1.9581  1.3186
 5163TIP3   OH236903   5.070   2.134  12.021 -0.3172 -0.1184 -0.3936
 5163TIP3    H136904   5.133   2.101  12.085  0.0195 -0.0465 -0.6896
 5163TIP3    H236905   5.033   2.212  12.063  0.9241  0.7476 -0.8557
 5164TIP3   OH236906   6.373   0.129  13.044 -0.3166 -0.0856 -0.6306
 5164TIP3    H136907   6.370   0.209  12.992 -1.7918  0.5659  0.3628
 5164TIP3    H236908   6.326   0.151  13.125  1.7730 -1.0745  0.9744
 5165TIP3   OH236909   0.846   5.960   3.559 -0.1915  0.0853  0.1085
 5165TIP3    H136910   0.827   6.023   3.628 -0.8972  0.1060 -0.1040
 5165TIP3    H236911   0.806   5.878   3.589  0.7050 -0.2710  0.3771
 5166TIP3   OH236912   6.751   0.845   1.615 -0.2177 -0.7170  0.0160
 5166TIP3    H136913   6.821   0.825   1.677 -0.9943 -0.2407  1.0735
 5166TIP3    H236914   6.715   0.928   1.646  0.1315  0.1490 -1.7674
 5167TIP3   OH236915   3.306   0.756   3.790  0.0076 -0.0208  0.0995
 5167TIP3    H136916   3.306   0.667   3.756  0.6585  0.0803 -0.1931
 5167TIP3    H236917   3.394   0.767   3.828 -0.4571  0.1053  1.1825
 5168TIP3   OH236918   3.833   4.438   5.809 -0.3240  0.1032 -0.4998
 5168TIP3    H136919   3.809   4.523   5.846  2.7042  1.4414 -1.3413
 5168TIP3    H236920   3.836   4.453   5.714 -0.1584 -1.0670 -0.6933
 5169TIP3   OH236921   0.159   5.521  14.177 -0.2801  0.1056  0.0145
 5169TIP3    H136922   0.202   5.552  14.096 -0.7282  2.7242  0.6882
 5169TIP3    H236923   0.104   5.448  14.148  0.5675  0.1040 -1.7926
 5170TIP3   OH236924   2.593   3.050  15.194 -0.0057 -0.0030  0.6923
 5170TIP3    H136925   2.586   3.008  15.109  1.5021  0.9934  0.0339
 5170TIP3    H236926   2.668   3.007  15.236  1.3565  1.7548  0.1360
 5171TIP3   OH236927   2.686   1.010  15.686 -0.1939 -0.3919  0.1203
 5171TIP3    H136928   2.663   0.971  15.601 -2.3561  1.4111 -0.1992
 5171TIP3    H236929   2.781   1.000  15.692 -0.2012 -2.1048 -1.7080
 5172TIP3   OH236930   5.027   4.585   3.083  0.1495 -0.6412 -0.0662
 5172TIP3    H136931   4.933   4.601   3.077  0.3309  1.2726  1.0684
 5172TIP3    H236932   5.050   4.543   3.000 -1.5247 -0.1516 -0.8285
 5173TIP3   OH236933   3.288   4.778  13.065 -0.6411 -0.3142  0.0199
 5173TIP3    H136934   3.263   4.689  13.041  1.7985 -1.4351  1.2742
 5173TIP3    H236935   3.330   4.769  13.151  1.5706  1.6974 -0.7389
 5174TIP3   OH236936   0.359   3.854  17.042 -0.4762 -0.3351  0.1281
 5174TIP3    H136937   0.451   3.877  17.031 -0.3583 -0.5344  0.6564
 5174TIP3    H236938   0.338   3.799  16.966  0.0864 -1.0107  0.4441
 5175TIP3   OH236939   5.355   4.777   3.365 -0.1686  0.3247  0.1355
 5175TIP3    H136940   5.294   4.833   3.316 -0.4840  0.9051  1.1666
 5175TIP3    H236941   5.440   4.791   3.323 -0.3529  1.1338  0.0188
 5176TIP3   OH236942   6.203   1.325   5.469 -0.4800  0.3650 -0.3755
 5176TIP3    H136943   6.108   1.332   5.471 -0.4292  1.4891 -0.9031
 5176TIP3    H236944   6.221   1.239   5.431 -1.2635 -0.9784  2.1022
 5177TIP3   OH236945   5.117   4.611   2.181  0.2334  0.0852 -0.0437
 5177TIP3    H136946   5.125   4.521   2.214  2.6151 -0.2587 -1.3317
 5177TIP3    H236947   5.207   4.637   2.161 -0.5649  2.2011 -1.1963
 5178TIP3   OH236948   1.331   0.180   0.274  0.3513 -0.1885 -0.8721
 5178TIP3    H136949   1.324   0.115   0.345 -0.3002  0.5184 -0.2761
 5178TIP3    H236950   1.417   0.163   0.235  1.1159  0.0009  0.6693
 5179TIP3   OH236951   5.250   5.175  14.567  0.8748 -0.3094  0.1224
 5179TIP3    H136952   5.221   5.157  14.656  0.2336  1.8035  0.3960
 5179TIP3    H236953   5.309   5.250  14.576  2.3187 -1.2503 -1.0396
 5180TIP3   OH236954   2.588   4.913  13.983 -0.0405  0.4453 -0.1739
 5180TIP3    H136955   2.549   4.992  13.945 -3.5345 -1.7019 -1.5631
 5180TIP3    H236956   2.642   4.877  13.913  3.1166  2.3744  1.0779
 5181TIP3   OH236957   4.767   0.949   5.213  0.0066 -0.1562 -0.4890
 5181TIP3    H136958   4.831   0.952   5.285  0.6569 -0.1339 -1.0535
 5181TIP3    H236959   4.820   0.961   5.134 -0.8775  1.5119 -0.8720
 5182TIP3   OH236960   4.019   0.834   5.794  0.2707 -0.2076 -0.0586
 5182TIP3    H136961   3.934   0.858   5.757  0.7615 -0.3343 -1.3130
 5182TIP3    H236962   4.046   0.912   5.843  0.2594  0.5454 -1.1977
 5183TIP3   OH236963   3.562   0.149  16.303  0.5570 -0.6026  0.4545
 5183TIP3    H136964   3.594   0.224  16.253 -1.9056  0.9924  1.0720
 5183TIP3    H236965   3.495   0.110  16.246 -0.1723 -0.5609  1.2592
 5184TIP3   OH236966   0.808   5.634   4.203 -0.0618  0.4719 -0.0339
 5184TIP3    H136967   0.773   5.716   4.237 -0.6885  0.5490 -0.8233
 5184TIP3    H236968   0.743   5.567   4.228 -0.0286  0.3740 -0.2031
 5185TIP3   OH236969   5.456   6.171   4.517 -0.0693 -0.7185 -0.2040
 5185TIP3    H136970   5.540   6.172   4.563 -0.5596  0.0385  0.7266
 5185TIP3    H236971   5.459   6.092   4.464  1.2804 -0.6359 -0.2935
 5186TIP3   OH236972   6.428   0.624  12.623  0.1511  0.4254 -0.1435
 5186TIP3    H136973   6.426   0.680  12.701  0.3345 -0.4666  0.5181
 5186TIP3    H236974   6.394   0.540  12.653  1.5369 -0.3636 -0.6603
 5187TIP3   OH236975   6.233   4.853  14.312  0.1558  0.4207 -0.2171
 5187TIP3    H136976   6.155   4.800  14.299  0.3765  0.4524 -1.8700
 5187TIP3    H236977   6.246   4.898  14.229  0.3434  2.5932  0.9074
 5188TIP3   OH236978   0.047   2.246  10.468  0.0273  0.4052  0.0764
 5188TIP3    H136979   0.074   2.283  10.552 -0.3613  1.9590 -0.4388
 5188TIP3    H236980  -0.026   2.301  10.440 -1.3614 -1.5011 -0.2210
 5189TIP3   OH236981   2.402   6.039  14.950 -0.1754  0.2760 -0.4873
 5189TIP3    H136982   2.385   6.036  15.044 -1.9167 -1.1499 -0.7762
 5189TIP3    H236983   2.447   6.122  14.936  0.3569  0.4046  1.6283
 5190TIP3   OH236984   3.027   2.111  11.465 -0.0584  0.6893 -0.1100
 5190TIP3    H136985   3.020   2.196  11.508 -0.4452  0.8482 -0.4772
 5190TIP3    H236986   2.970   2.118  11.389 -0.6206 -0.1257  0.2187
 5191TIP3   OH236987   2.536   3.204   5.573 -0.0171 -0.6727 -0.0237
 5191TIP3    H136988   2.589   3.127   5.552 -0.8587 -1.4672  0.7435
 5191TIP3    H236989   2.484   3.178   5.649 -2.2235 -0.2470 -1.3196
 5192TIP3   OH236990   0.994   2.477  12.851 -0.5142  0.5822  0.1699
 5192TIP3    H136991   1.027   2.507  12.936 -1.2512  0.4498  0.5136
 5192TIP3    H236992   0.906   2.513  12.846 -1.2241 -1.0537  0.3614
 5193TIP3   OH236993   4.067   0.190  15.617 -0.2252 -0.8604  0.1060
 5193TIP3    H136994   4.072   0.141  15.534  2.7922  0.3029 -0.5259
 5193TIP3    H236995   4.045   0.280  15.590  0.5262 -0.5300  0.5638
 5194TIP3   OH236996   2.298   0.134  14.003  0.2978 -0.1406 -0.1520
 5194TIP3    H136997   2.354   0.056  13.990 -1.4093 -1.3870 -0.3531
 5194TIP3    H236998   2.235   0.130  13.931 -0.8592  0.4851  0.7915
 5195TIP3   OH236999   3.545   6.111   2.453  0.0814 -0.0416 -0.0253
 5195TIP3    H137000   3.577   6.027   2.486  0.7831  0.0866 -0.3684
 5195TIP3    H237001   3.618   6.172   2.466  0.6678 -0.1494 -2.4891
 5196TIP3   OH237002   1.806   5.412   1.617  0.3936 -0.2656  0.2251
 5196TIP3    H137003   1.815   5.507   1.617  1.1371 -0.3259  0.7486
 5196TIP3    H237004   1.843   5.384   1.701 -0.7016 -0.9449  0.5047
 5197TIP3   OH237005   1.645   2.577   5.378 -0.4164  0.4705  0.5600
 5197TIP3    H137006   1.639   2.493   5.422 -1.0352 -0.0586 -0.4922
 5197TIP3    H237007   1.670   2.639   5.447  0.9981 -0.7155  1.1469
 5198TIP3   OH237008   6.402   0.545   3.654 -0.0818 -0.3863  0.5712
 5198TIP3    H137009   6.446   0.484   3.596  0.5610  1.1579 -0.6293
 5198TIP3    H237010   6.309   0.520   3.650 -0.4365  0.9815 -2.9389
 5199TIP3   OH237011   0.871   6.417  15.593  0.6494  0.0744  0.2910
 5199TIP3    H137012   0.946   6.374  15.553  0.8052  0.2665  0.3781
 5199TIP3    H237013   0.881   6.401  15.687  1.8412  2.0603  0.5550
 5200TIP3   OH237014   0.680   6.556   2.184 -0.3463  0.2752  0.4769
 5200TIP3    H137015   0.675   6.634   2.129 -0.6247  0.2210  0.4278
 5200TIP3    H237016   0.607   6.501   2.156  1.4308 -1.2689 -1.4222
 5201TIP3   OH237017   3.512   6.169   0.362 -0.3357 -0.3926  0.3062
 5201TIP3    H137018   3.512   6.260   0.331  3.9726 -0.0670  0.5821
 5201TIP3    H237019   3.509   6.177   0.457 -1.5531 -0.6709  0.2992
 5202TIP3   OH237020   3.032   2.501  13.334  0.0603 -0.2038 -0.0610
 5202TIP3    H137021   3.076   2.543  13.260  0.1020 -0.5618 -0.2419
 5202TIP3    H237022   3.055   2.555  13.409  0.2013  0.0362 -0.2725
 5203TIP3   OH237023   3.267   3.606  16.932 -0.5717  0.9536  0.4307
 5203TIP3    H137024   3.177   3.630  16.954 -0.6259  0.7078  0.4803
 5203TIP3    H237025   3.304   3.574  17.014 -0.1372  1.9497  0.6358
 5204TIP3   OH237026   3.140   0.326  16.758 -0.4420 -0.1635 -0.2646
 5204TIP3    H137027   3.223   0.280  16.749 -2.0466 -3.2321 -0.6907
 5204TIP3    H237028   3.114   0.347  16.668 -0.3468  0.3975 -0.1630
 5205TIP3   OH237029   5.751   4.077  16.023 -0.2561 -0.3088  0.6505
 5205TIP3    H137030   5.672   4.032  16.052 -0.5859 -1.4247 -1.7486
 5205TIP3    H237031   5.724   4.125  15.945  1.4724 -0.9183 -0.3762
 5206TIP3   OH237032   2.546   6.298  14.872 -0.8328 -0.3642 -0.3205
 5206TIP3    H137033   2.472   6.310  14.932 -1.3141  1.9013 -1.2866
 5206TIP3    H237034   2.506   6.287  14.786 -0.0832  1.4410 -0.9471
 5207TIP3   OH237035   2.840   0.049   1.352  0.3308 -0.3152 -0.3801
 5207TIP3    H137036   2.782  -0.026   1.365  0.6194 -0.4854 -0.0448
 5207TIP3    H237037   2.786   0.114   1.308  0.3310 -1.0632 -1.5203
 5208TIP3   OH237038   4.754   4.063   3.272 -0.2003  0.2621 -0.3514
 5208TIP3    H137039   4.789   4.138   3.320  3.2322 -0.9578 -0.7161
 5208TIP3    H237040   4.691   4.023   3.333 -2.5931  3.5856 -0.3555
 5209TIP3   OH237041   6.757   2.356   3.269  0.6159  0.8615 -0.0612
 5209TIP3    H137042   6.714   2.382   3.187  0.0249 -1.5502 -0.5915
 5209TIP3    H237043   6.807   2.277   3.245  1.9650  1.1829  1.5122
 5210TIP3   OH237044   4.974   4.170   2.387  0.1042  0.7400  0.1129
 5210TIP3    H137045   4.923   4.120   2.450  1.6213  0.6916  1.3616
 5210TIP3    H237046   5.043   4.111   2.358  0.7199  1.4551  0.0724
 5211TIP3   OH237047   1.290   4.978   0.867  0.2056  0.1890 -0.2676
 5211TIP3    H137048   1.305   4.948   0.956  1.8204  3.8935  0.9249
 5211TIP3    H237049   1.220   5.043   0.875  0.2697  0.4686 -1.7122
 5212TIP3   OH237050   2.833   0.112  11.519  0.5101  0.0460  0.0083
 5212TIP3    H137051   2.864   0.117  11.428  0.9230  1.9288  0.2135
 5212TIP3    H237052   2.748   0.157  11.517 -0.0143 -0.9176  0.3535
 5213TIP3   OH237053   6.695   6.063  14.100 -0.1641  0.6796  0.4458
 5213TIP3    H137054   6.613   6.012  14.107 -0.3741  1.2044  2.3098
 5213TIP3    H237055   6.758   6.001  14.063 -1.3939  0.3031 -1.1895
 5214TIP3   OH237056   3.570   1.605  12.825 -0.1962  0.1754  0.0966
 5214TIP3    H137057   3.515   1.649  12.890  2.1676  1.7482  1.1814
 5214TIP3    H237058   3.585   1.518  12.861 -0.2014  0.4967  0.8974
 5215TIP3   OH237059   2.967   2.349  10.666 -0.2893 -0.3029 -0.4239
 5215TIP3    H137060   3.024   2.354  10.590  0.7639 -3.2110  0.0461
 5215TIP3    H237061   2.886   2.309  10.634 -1.2650  1.7164 -0.6343
 5216TIP3   OH237062   2.941   3.442   3.366 -0.1681  0.1970  0.5535
 5216TIP3    H137063   2.989   3.521   3.393  0.2748  0.5118 -1.0323
 5216TIP3    H237064   2.855   3.475   3.340  0.1709  0.2374 -0.5449
 5217TIP3   OH237065   4.342   0.825   3.296  0.5172 -0.2604  0.2239
 5217TIP3    H137066   4.430   0.786   3.299 -0.2943 -2.2497  0.0403
 5217TIP3    H237067   4.315   0.829   3.388  0.5741 -0.2091  0.2385
 5218TIP3   OH237068   6.583   3.994  11.885  0.3199  0.1863  0.5429
 5218TIP3    H137069   6.602   3.975  11.977 -1.9360  2.2939  1.5691
 5218TIP3    H237070   6.509   3.937  11.863  1.3051 -0.8305 -0.2385
 5219TIP3   OH237071   0.734   4.693   0.526  0.3216 -0.1518 -0.3142
 5219TIP3    H137072   0.710   4.680   0.435  1.7937 -0.2999 -0.7039
 5219TIP3    H237073   0.686   4.625   0.574 -0.3634 -0.1435 -0.9752
 5220TIP3   OH237074   3.906   0.937   4.504  0.1926  0.8373 -0.0450
 5220TIP3    H137075   3.826   0.961   4.456  2.0355  0.3803 -3.7163
 5220TIP3    H237076   3.953   1.020   4.514  1.0483  0.5706 -1.6248
 5221TIP3   OH237077   0.250   5.533   4.477  0.1820  0.1564 -0.2186
 5221TIP3    H137078   0.300   5.474   4.533 -0.2104  0.6876  0.7075
 5221TIP3    H237079   0.213   5.476   4.409 -1.3502 -0.9386  1.4507
 5222TIP3   OH237080   2.215   0.531   1.801  0.6044  0.2967  0.4050
 5222TIP3    H137081   2.188   0.617   1.769  1.3983  0.4954  0.2530
 5222TIP3    H237082   2.148   0.507   1.865 -1.2687 -0.2704 -1.6349
 5223TIP3   OH237083   5.432   2.003   1.653 -0.5800  0.1984 -0.0298
 5223TIP3    H137084   5.418   2.055   1.574  0.0650  2.7686  1.4217
 5223TIP3    H237085   5.425   2.066   1.725 -0.0334 -1.8082  1.9029
 5224TIP3   OH237086   2.198   0.054   2.615 -0.3201 -0.2084 -0.9336
 5224TIP3    H137087   2.172   0.146   2.626 -0.5207 -0.2014 -1.4007
 5224TIP3    H237088   2.278   0.045   2.666  0.1751  0.4560 -1.5720
 5225TIP3   OH237089   0.660   6.490  10.572  0.3356  0.1933  0.2351
 5225TIP3    H137090   0.668   6.580  10.602 -1.0252  0.0145  1.2581
 5225TIP3    H237091   0.709   6.487  10.490 -0.7909  2.2468 -0.5892
 5226TIP3   OH237092   2.548   2.917   4.112 -0.0843  0.0253 -0.0583
 5226TIP3    H137093   2.507   2.975   4.177  1.8935  0.3330  0.9719
 5226TIP3    H237094   2.545   2.830   4.152  2.4809  0.4394  1.2242
 5227TIP3   OH237095   0.968   1.720  13.894 -0.3230  0.4998 -0.1930
 5227TIP3    H137096   0.953   1.632  13.860 -1.8134  0.6364  0.0229
 5227TIP3    H237097   1.003   1.769  13.820  1.2999 -0.4368 -0.1110
 5228TIP3   OH237098   0.487   2.809   5.974  0.4429 -0.9369  0.1049
 5228TIP3    H137099   0.459   2.718   5.979  0.2324 -0.8451  0.7549
 5228TIP3    H237100   0.581   2.804   5.959  0.0581 -1.2507 -2.6544
 5229TIP3   OH237101   6.600   1.200   5.343 -0.3897 -0.1914 -0.7010
 5229TIP3    H137102   6.589   1.147   5.423  2.9119 -0.2133 -0.1225
 5229TIP3    H237103   6.623   1.136   5.275 -1.6079 -0.0042 -1.3005
 5230TIP3   OH237104   2.865   5.124  14.949 -0.5756 -0.1506 -0.1468
 5230TIP3    H137105   2.866   5.039  14.993  0.7303 -0.9540 -1.6404
 5230TIP3    H237106   2.774   5.153  14.957 -0.5363 -0.5104  2.4845
 5231TIP3   OH237107   3.407   0.505   5.965  0.2676  0.3735  0.5649
 5231TIP3    H137108   3.366   0.546   6.041 -0.5499  0.2605  0.1924
 5231TIP3    H237109   3.497   0.488   5.993  0.5284  2.0939  0.8457
 5232TIP3   OH237110   0.660   4.380  11.534 -0.0469  0.0324 -0.1339
 5232TIP3    H137111   0.570   4.362  11.507 -0.2336 -1.3473  1.2430
 5232TIP3    H237112   0.652   4.450  11.599 -0.1749 -0.2542  0.1669
 5233TIP3   OH237113   6.388   3.097  14.867 -0.4350 -0.1867 -0.5995
 5233TIP3    H137114   6.414   3.005  14.862  1.6737  0.3831 -1.9180
 5233TIP3    H237115   6.316   3.099  14.929 -0.7750 -2.7663 -0.8035
 5234TIP3   OH237116   2.030   4.714   4.977  0.4059  0.6350  0.5688
 5234TIP3    H137117   2.119   4.681   4.969  0.1611 -0.4351  1.7971
 5234TIP3    H237118   1.985   4.681   4.899  0.4274 -1.1955  1.2710
 5235TIP3   OH237119   4.736   1.821  15.036  0.9273 -0.5558  0.2086
 5235TIP3    H137120   4.656   1.797  15.082 -0.6005  1.0034 -1.4718
 5235TIP3    H237121   4.788   1.868  15.101  0.8460 -2.1751  1.5057
 5236TIP3   OH237122   5.393   2.264  11.374 -0.1619 -0.1631 -0.2480
 5236TIP3    H137123   5.461   2.285  11.310 -0.2687  1.6616  0.1859
 5236TIP3    H237124   5.323   2.224  11.321  1.0070 -1.6077 -0.7637
 5237TIP3   OH237125   6.211   4.078  14.811  0.4367 -0.1295  0.3420
 5237TIP3    H137126   6.198   3.994  14.854  2.2896  0.1554  1.5878
 5237TIP3    H237127   6.304   4.079  14.787  0.1694  1.0608 -0.7821
 5238TIP3   OH237128   6.353   3.632   5.773 -0.0344 -0.2563  0.2855
 5238TIP3    H137129   6.416   3.610   5.704  0.3274  2.6348 -0.4187
 5238TIP3    H237130   6.283   3.567   5.763  1.2388 -1.5054 -1.0720
 5239TIP3   OH237131   0.100   2.935   0.003  0.4262 -0.2029 -1.1842
 5239TIP3    H137132   0.063   2.970   0.084  1.6165  0.0252 -0.7065
 5239TIP3    H237133   0.027   2.894  -0.043 -0.6892  1.4546 -0.9611
 5240TIP3   OH237134   2.720   5.813   2.492 -0.1268  1.0433 -0.3229
 5240TIP3    H137135   2.792   5.805   2.430  1.2945 -3.8416  1.5168
 5240TIP3    H237136   2.656   5.746   2.466  0.0545 -0.4941  2.6698
 5241TIP3   OH237137   3.610   0.418  16.582 -0.3243 -0.1664 -0.6086
 5241TIP3    H137138   3.651   0.337  16.613 -1.9709 -1.2062 -1.0227
 5241TIP3    H237139   3.583   0.463  16.662 -0.0793 -0.3867 -0.3989
 5242TIP3   OH237140   0.359   1.698  14.766 -0.5038 -0.3426 -0.0912
 5242TIP3    H137141   0.353   1.603  14.775  0.5908 -0.7251 -2.6229
 5242TIP3    H237142   0.445   1.721  14.800 -0.8708 -0.2046  0.7604
 5243TIP3   OH237143   6.064   6.471   2.893 -0.1726 -0.0971  0.2813
 5243TIP3    H137144   6.036   6.380   2.898 -1.9849  0.2438 -1.9778
 5243TIP3    H237145   5.993   6.516   2.848  0.8530  2.3801  0.9371
 5244TIP3   OH237146   5.504   0.635   6.093 -0.6619 -0.1589 -0.7487
 5244TIP3    H137147   5.596   0.607   6.096  0.5367  3.2987 -0.5206
 5244TIP3    H237148   5.482   0.636   6.000 -0.1389 -0.1382 -0.8760
 5245TIP3   OH237149   0.963   6.470  10.644  0.8869 -0.1489 -0.4240
 5245TIP3    H137150   0.905   6.510  10.579 -1.1213 -3.2151 -0.7034
 5245TIP3    H237151   0.929   6.501  10.728  0.8336  0.4858 -0.6680
 5246TIP3   OH237152   2.235   1.573   4.308  0.0561 -0.8823 -0.2466
 5246TIP3    H137153   2.200   1.576   4.219  1.3879  2.6170 -0.7998
 5246TIP3    H237154   2.161   1.598   4.363 -0.1353 -0.5673 -0.6409
 5247TIP3   OH237155   6.042   0.817   2.904  0.5875 -0.3400 -0.1082
 5247TIP3    H137156   6.035   0.750   2.836 -0.8372 -0.3747  0.0465
 5247TIP3    H237157   6.093   0.887   2.863 -0.6979 -0.1325 -1.4322
 5248TIP3   OH237158   3.230   4.725   6.781  0.2884  0.3434  0.1451
 5248TIP3    H137159   3.313   4.679   6.771  0.2409  0.3293 -0.1885
 5248TIP3    H237160   3.177   4.697   6.706  0.1162  0.6353  0.1540
 5249TIP3   OH237161   1.006   4.910  16.941 -0.0977  0.1129  0.8583
 5249TIP3    H137162   0.937   4.968  16.973 -0.4712 -0.5326  1.2528
 5249TIP3    H237163   1.001   4.834  16.998 -0.1008 -0.6250 -0.0917
 5250TIP3   OH237164   3.669   1.150  15.512 -0.2595  0.7186  0.9380
 5250TIP3    H137165   3.637   1.061  15.495  0.5459  1.0132 -3.2790
 5250TIP3    H237166   3.591   1.200  15.537 -1.7345 -0.1964 -1.5312
 5251TIP3   OH237167   5.302   4.072  14.990 -0.0354 -0.2399 -0.1441
 5251TIP3    H137168   5.272   4.057  14.901 -1.3613 -0.1575  0.2605
 5251TIP3    H237169   5.396   4.056  14.987 -0.0661 -0.2784 -1.5365
 5252TIP3   OH237170   0.732   2.692   4.241 -0.7883  0.1839  0.6301
 5252TIP3    H137171   0.792   2.637   4.291 -1.9223 -0.9719  0.7688
 5252TIP3    H237172   0.648   2.647   4.247 -1.2327  0.6732 -1.2621
 5253TIP3   OH237173   1.604   0.653   4.802  0.5129  0.3841 -0.1125
 5253TIP3    H137174   1.670   0.589   4.774 -0.5584 -0.2535 -1.2705
 5253TIP3    H237175   1.562   0.612   4.878  1.2510  0.6779  0.4678
 5254TIP3   OH237176   4.767   4.735  11.166  0.0542  0.3924 -0.5277
 5254TIP3    H137177   4.705   4.667  11.141  0.4666  0.2269 -1.1223
 5254TIP3    H237178   4.800   4.707  11.251  0.4047 -0.2951 -0.8760
 5255TIP3   OH237179   4.031   6.291  16.451 -0.5545  0.7854  0.4699
 5255TIP3    H137180   4.080   6.337  16.383  0.1362 -1.1876 -0.4512
 5255TIP3    H237181   4.070   6.204  16.453 -2.2928 -0.0171  1.5973
 5256TIP3   OH237182   4.436   4.587   4.061  0.3832 -0.3190  0.3370
 5256TIP3    H137183   4.524   4.549   4.056 -0.3699 -2.1610  0.2388
 5256TIP3    H237184   4.449   4.672   4.104  2.1095 -0.9194  1.1004
 5257TIP3   OH237185   2.580   4.730   2.384  0.8015  0.0588  0.0872
 5257TIP3    H137186   2.672   4.707   2.398  0.8460  0.2168  0.0591
 5257TIP3    H237187   2.561   4.796   2.451  0.3003 -1.0019  1.0254
 5258TIP3   OH237188   6.471   4.208   1.435  0.2018  0.4293 -0.1055
 5258TIP3    H137189   6.399   4.190   1.373 -0.3490  1.1890  0.2960
 5258TIP3    H237190   6.450   4.156   1.512  0.6408 -0.1519 -0.3700
 5259TIP3   OH237191   5.533   4.060   5.210  0.1870  0.1643  0.3439
 5259TIP3    H137192   5.521   4.040   5.117  1.0263 -1.9298  0.6385
 5259TIP3    H237193   5.455   4.024   5.252 -0.4480  1.5741  0.4396
 5260TIP3   OH237194   0.230   0.059   0.338  0.1788 -1.4240 -0.1553
 5260TIP3    H137195   0.276   0.106   0.408  0.4984 -1.5461 -0.2839
 5260TIP3    H237196   0.209  -0.026   0.376  2.6801 -2.5048 -1.0501
 5261TIP3   OH237197   1.138   2.991   3.444  0.3200 -0.0265 -0.4195
 5261TIP3    H137198   1.152   2.916   3.387 -0.3936 -0.0744 -0.5383
 5261TIP3    H237199   1.128   3.065   3.384 -0.5497 -0.0966 -0.3696
 5262TIP3   OH237200   2.931   5.756   2.358 -0.5332 -0.5367 -0.1012
 5262TIP3    H137201   2.989   5.720   2.425 -2.1463 -0.0693  1.6510
 5262TIP3    H237202   2.964   5.845   2.343 -0.0279 -0.7179 -0.0876
 5263TIP3   OH237203   2.539   4.811   5.525 -0.1165 -0.0677 -0.2867
 5263TIP3    H137204   2.475   4.855   5.469 -3.5137 -0.8110  2.5984
 5263TIP3    H237205   2.516   4.718   5.520  2.0488 -0.6264 -0.6057
 5264TIP3   OH237206   1.448   5.464  14.328  0.1059 -0.0713  0.3236
 5264TIP3    H137207   1.369   5.500  14.288  0.3711 -0.4663 -0.5714
 5264TIP3    H237208   1.498   5.541  14.355  0.3518  0.2308 -0.9497
 5265TIP3   OH237209   6.379   0.963   0.793  0.7591 -0.2899 -0.3613
 5265TIP3    H137210   6.461   0.926   0.827 -0.6298 -2.7081  0.5985
 5265TIP3    H237211   6.368   1.045   0.841  2.4214 -0.1140 -0.2319
 5266TIP3   OH237212   0.076   6.196   1.038 -0.0858  0.0461 -0.0291
 5266TIP3    H137213  -0.005   6.246   1.030 -0.1323  0.2133  1.3042
 5266TIP3    H237214   0.070   6.154   1.124  0.8992 -0.5660 -0.2442
 5267TIP3   OH237215   6.650   5.094  12.375 -0.2282  0.5461 -0.2760
 5267TIP3    H137216   6.734   5.091  12.420 -0.9319  0.6451  1.0722
 5267TIP3    H237217   6.612   5.178  12.399 -0.6382  0.5971 -1.0512
 5268TIP3   OH237218   4.743   6.020  16.019 -0.4026  0.3402  0.8358
 5268TIP3    H137219   4.660   6.010  15.972 -1.5562 -0.6090  2.9004
 5268TIP3    H237220   4.743   5.949  16.083  2.1004  0.2602  0.8437
 5269TIP3   OH237221   0.640   5.957  12.022 -0.2246 -0.2286 -0.0785
 5269TIP3    H137222   0.580   5.900  12.070 -1.0236 -0.3397 -1.1553
 5269TIP3    H237223   0.721   5.908  12.016 -0.4045 -0.5860  0.3729
 5270TIP3   OH237224   5.631   0.702  13.691 -0.2695 -0.1600  0.2691
 5270TIP3    H137225   5.667   0.632  13.745 -0.9117  0.1976  1.1925
 5270TIP3    H237226   5.604   0.769  13.754 -3.1652 -0.6772 -0.2792
 5271TIP3   OH237227   2.154   0.689  14.159  0.3401  0.0002  0.4921
 5271TIP3    H137228   2.169   0.689  14.253  0.5898 -0.8220  0.4541
 5271TIP3    H237229   2.062   0.713  14.149 -0.0000 -1.0792  0.9909
 5272TIP3   OH237230   0.700   0.107  11.124 -0.2345  0.1006 -0.1435
 5272TIP3    H137231   0.777   0.056  11.099  0.2380  0.9186 -0.4022
 5272TIP3    H237232   0.694   0.098  11.219  1.7994  2.2049  0.2672
 5273TIP3   OH237233   2.581   2.265  17.096 -0.2290  0.3386 -0.7459
 5273TIP3    H137234   2.662   2.219  17.073 -0.5983  0.1979 -1.8485
 5273TIP3    H237235   2.573   2.334  17.030 -0.2541  1.2772  0.2363
 5274TIP3   OH237236   2.306   6.272   3.275 -0.0878  0.1337  0.4731
 5274TIP3    H137237   2.338   6.253   3.363 -0.5863  0.8750  0.8232
 5274TIP3    H237238   2.315   6.190   3.227 -1.7465 -0.8641  1.7945
 5275TIP3   OH237239   6.680   1.774   4.367  0.2741 -0.1959  0.7801
 5275TIP3    H137240   6.772   1.758   4.388  0.5728 -3.5456 -2.2782
 5275TIP3    H237241   6.631   1.718   4.428  0.4310 -0.7841  0.3623
 5276TIP3   OH237242   4.775   6.546   2.196  0.2766 -0.2154  0.0437
 5276TIP3    H137243   4.757   6.638   2.176 -1.0237 -0.2063  1.1470
 5276TIP3    H237244   4.787   6.505   2.110 -2.7470  0.2763 -0.7360
 5277TIP3   OH237245   5.005   1.033   4.735  0.8985 -0.1244  0.1158
 5277TIP3    H137246   5.100   1.036   4.727  0.8298 -0.3587 -1.0242
 5277TIP3    H237247   4.974   1.037   4.644 -0.1577 -0.5332  0.4475
 5278TIP3   OH237248   6.351   5.360  15.121 -0.3351  0.1529 -0.3509
 5278TIP3    H137249   6.412   5.396  15.185 -0.1163  0.8848 -0.9582
 5278TIP3    H237250   6.298   5.436  15.093 -1.5944 -0.4778  0.2381
 5279TIP3   OH237251   5.077   1.514  11.547  0.0396  0.2243  0.7358
 5279TIP3    H137252   5.044   1.424  11.546  0.6268  0.0078  0.0757
 5279TIP3    H237253   5.066   1.544  11.457  1.5797  0.1558  0.5048
 5280TIP3   OH237254   5.668   1.714   1.425 -0.0023 -0.6612 -0.5119
 5280TIP3    H137255   5.747   1.670   1.394 -0.5733 -1.0278 -1.4619
 5280TIP3    H237256   5.669   1.799   1.381 -0.2655 -0.7624 -0.7123
 5281TIP3   OH237257   2.768   2.497  12.975 -0.2863 -0.3141 -0.3256
 5281TIP3    H137258   2.800   2.432  13.037  0.5369 -0.6903 -1.1288
 5281TIP3    H237259   2.814   2.478  12.893 -0.6360  0.7686 -0.8007
 5282TIP3   OH237260   2.181   4.617   0.484  0.4579 -0.2861 -0.1120
 5282TIP3    H137261   2.226   4.535   0.503  1.8781  0.2775 -0.8798
 5282TIP3    H237262   2.142   4.604   0.397 -0.2780 -0.5248  0.2467
 5283TIP3   OH237263   3.983   2.791  17.303  0.0784  0.0544  0.6949
 5283TIP3    H137264   4.006   2.858  17.239 -1.1192 -0.0292  0.1494
 5283TIP3    H237265   3.936   2.838  17.372  0.7760  0.0380  1.1922
 5284TIP3   OH237266   0.546   6.642   5.772 -0.0684 -0.5048 -0.0746
 5284TIP3    H137267   0.562   6.726   5.728  1.3539  0.4912  2.1616
 5284TIP3    H237268   0.459   6.652   5.812  0.1013 -0.0905  0.1942
 5285TIP3   OH237269   2.401   2.233   2.484 -0.2450 -0.2176 -0.2991
 5285TIP3    H137270   2.332   2.169   2.503  0.2225 -0.6955 -0.2076
 5285TIP3    H237271   2.482   2.190   2.509  0.3479 -0.6168 -2.6352
 5286TIP3   OH237272   5.784   3.399  13.177 -0.0532  0.0941 -0.4166
 5286TIP3    H137273   5.755   3.403  13.268 -0.3478  0.8835 -0.5327
 5286TIP3    H237274   5.870   3.358  13.181  0.5692  1.3997  0.3911
 5287TIP3   OH237275   6.444   6.380   0.152 -0.2540  0.5815 -0.7651
 5287TIP3    H137276   6.436   6.302   0.097  0.0905 -1.2149  1.5937
 5287TIP3    H237277   6.501   6.439   0.102  1.0195 -1.4401 -1.8178
 5288TIP3   OH237278   1.391   0.730   4.509 -0.1054 -0.2279 -0.5014
 5288TIP3    H137279   1.338   0.763   4.437 -0.7221 -1.0247 -0.4263
 5288TIP3    H237280   1.475   0.707   4.468 -0.8751 -1.8822 -1.2490
 5289TIP3   OH237281   3.538   5.601  16.236 -0.3178 -0.1682  0.0174
 5289TIP3    H137282   3.609   5.584  16.298 -0.0864  1.1756  0.1413
 5289TIP3    H237283   3.580   5.596  16.150 -0.1590  0.1855  0.0720
 5290TIP3   OH237284   1.699   3.414  12.185  0.7488  0.4407 -0.1521
 5290TIP3    H137285   1.654   3.496  12.166  1.0635  0.4382 -0.9736
 5290TIP3    H237286   1.671   3.390  12.273 -0.3152  0.7874 -0.3898
 5291TIP3   OH237287   6.135   5.434   0.518 -0.2696 -0.5562 -0.5525
 5291TIP3    H137288   6.048   5.472   0.531 -0.1136 -0.7337  1.1184
 5291TIP3    H237289   6.128   5.344   0.549  0.1368 -1.0440 -1.7933
 5292TIP3   OH237290   3.067   6.533  16.476 -0.0837  0.1555  0.1974
 5292TIP3    H137291   3.156   6.536  16.441  0.3245 -0.1714  1.1573
 5292TIP3    H237292   3.076   6.565  16.566 -1.1690  1.4138 -0.1090
 5293TIP3   OH237293   4.036   0.235   0.037  0.5362 -0.1955  0.0720
 5293TIP3    H137294   4.020   0.251   0.130  2.3793  3.2269  0.0023
 5293TIP3    H237295   4.122   0.193   0.035  0.9575  0.6295 -0.0287
 5294TIP3   OH237296   5.937   0.982   6.645  0.0325 -0.2432  0.4584
 5294TIP3    H137297   5.956   0.931   6.566  0.0497 -0.3660  0.5415
 5294TIP3    H237298   5.862   1.036   6.620  0.6631  0.4618  0.0356
 5295TIP3   OH237299   6.378   3.102  15.437  0.2461  0.1120  0.3862
 5295TIP3    H137300   6.379   3.045  15.514  1.1213 -0.2992  0.0827
 5295TIP3    H237301   6.387   3.190  15.472 -0.8979  0.0542  0.8481
 5296TIP3   OH237302   0.757   1.420   4.823 -0.0761 -0.1249  0.3850
 5296TIP3    H137303   0.682   1.436   4.880  0.5971  0.1044  1.2350
 5296TIP3    H237304   0.827   1.475   4.860  0.4857 -0.2730 -0.4359
 5297TIP3   OH237305   3.259   2.907   3.114 -0.3415 -0.2507  0.3466
 5297TIP3    H137306   3.183   2.911   3.173  0.0333 -0.1920  0.8315
 5297TIP3    H237307   3.225   2.939   3.030 -0.2653  2.2974  1.1870
 5298TIP3   OH237308   0.892   0.111   5.132 -0.1589  0.2445  0.6278
 5298TIP3    H137309   0.969   0.073   5.091  0.1569  1.1771  0.3417
 5298TIP3    H237310   0.819   0.056   5.102  0.4025 -0.7097  0.9955
 5299TIP3   OH237311   1.199   2.969  16.639  0.5301 -0.0527  0.5124
 5299TIP3    H137312   1.279   2.974  16.586 -0.7542  1.9152 -1.4489
 5299TIP3    H237313   1.146   2.902  16.595  0.0090  0.6163  0.1023
 5300TIP3   OH237314   4.276   3.149   2.263 -0.0370  0.6630 -0.1991
 5300TIP3    H137315   4.290   3.087   2.192  1.2184  1.1870 -0.4318
 5300TIP3    H237316   4.349   3.135   2.323 -0.1302  1.4162  0.1023
 5301TIP3   OH237317   6.324   1.086   4.796  0.3146 -0.5064 -0.1616
 5301TIP3    H137318   6.280   1.125   4.721  0.9205  0.1218 -0.1995
 5301TIP3    H237319   6.417   1.088   4.773  0.5580  0.1701  0.8121
 5302TIP3   OH237320   3.972   3.514  15.950  0.9260 -0.4179  0.0075
 5302TIP3    H137321   3.908   3.456  15.909 -1.1089  1.2677  0.6376
 5302TIP3    H237322   4.032   3.537  15.880  2.9876 -4.5744  0.0801
 5303TIP3   OH237323   3.958   1.025   4.221  0.4119  0.0231 -0.9194
 5303TIP3    H137324   3.886   0.990   4.274  0.9826 -0.9995 -0.7799
 5303TIP3    H237325   3.971   1.114   4.253 -3.2055  1.6946 -3.4121
 5304TIP3   OH237326   0.677   4.302   2.597  0.0872  0.2224  0.1803
 5304TIP3    H137327   0.710   4.222   2.638  0.2511  0.3551  0.3080
 5304TIP3    H237328   0.628   4.271   2.521  0.4474  0.0162  0.0258
 5305TIP3   OH237329   6.375   5.209   0.520  0.1039 -0.3896  0.4545
 5305TIP3    H137330   6.368   5.160   0.438 -0.0457 -4.0130  2.4150
 5305TIP3    H237331   6.289   5.200   0.560  0.0524  1.6829  0.9157
 5306TIP3   OH237332   6.457   3.379   6.117 -0.0160 -0.0349 -0.1106
 5306TIP3    H137333   6.510   3.318   6.066 -1.4895 -1.8806  0.4954
 5306TIP3    H237334   6.489   3.369   6.207  0.4312  0.8909 -0.1481
 5307TIP3   OH237335   5.501   2.816  13.167 -0.1251  0.0843  0.8203
 5307TIP3    H137336   5.449   2.819  13.247 -0.5680  1.0321  0.5091
 5307TIP3    H237337   5.588   2.848  13.193 -0.2385  0.2920  0.9410
 5308TIP3   OH237338   5.410   6.133  13.077  0.1048 -0.5734  0.3242
 5308TIP3    H137339   5.356   6.174  13.144 -1.0606 -1.6516  0.0762
 5308TIP3    H237340   5.419   6.200  13.009 -1.8705 -0.7017 -0.1305
 5309TIP3   OH237341   2.980   4.054   5.918 -0.1626 -0.1635 -0.3827
 5309TIP3    H137342   2.978   3.959   5.931  0.8514 -0.2436 -0.6728
 5309TIP3    H237343   3.069   4.079   5.944 -0.6855  0.8421  0.5283
 5310TIP3   OH237344   5.022   0.936  15.059 -0.1760 -0.3471 -0.4526
 5310TIP3    H137345   4.990   1.025  15.072 -1.8637 -1.1801  1.7046
 5310TIP3    H237346   4.963   0.881  15.111  0.4020 -2.8219 -2.1836
 5311TIP3   OH237347   5.890   0.052  11.851  0.2289 -0.0093  0.2581
 5311TIP3    H137348   5.822   0.054  11.784  0.9924 -2.1048 -0.6715
 5311TIP3    H237349   5.844   0.029  11.932 -0.4489  0.6651  0.0678
 5312TIP3   OH237350   3.824   2.853   5.368  0.1515  0.3733  0.4059
 5312TIP3    H137351   3.792   2.944   5.365 -2.1448 -0.3907 -2.0343
 5312TIP3    H237352   3.810   2.826   5.459  0.4417  2.3021  1.0688
 5313TIP3   OH237353   1.854   6.613   1.724  0.2911  0.0376  0.0954
 5313TIP3    H137354   1.943   6.579   1.730 -0.0560 -1.0162 -0.6014
 5313TIP3    H237355   1.863   6.694   1.674  1.2073  1.4049  2.2995
 5314TIP3   OH237356   3.855   6.440  11.361 -0.1499 -0.3541  0.2917
 5314TIP3    H137357   3.804   6.485  11.293 -1.0722 -0.8152  0.6601
 5314TIP3    H237358   3.844   6.494  11.439 -1.4292 -1.2644  0.7916
 5315TIP3   OH237359   1.705   3.206   1.884  0.2354 -0.5926  0.1732
 5315TIP3    H137360   1.681   3.133   1.826  0.2531 -1.2315  0.9576
 5315TIP3    H237361   1.767   3.257   1.832 -0.8419 -0.3352 -0.9216
 5316TIP3   OH237362   2.926   5.946  12.526 -0.1234 -0.0956 -0.5007
 5316TIP3    H137363   2.991   5.960  12.594 -0.4429 -1.5426  0.1463
 5316TIP3    H237364   2.952   6.003  12.455  1.7974 -0.5636 -0.2134
 5317TIP3   OH237365   0.926   0.090  16.513 -0.2443  0.7608  0.8089
 5317TIP3    H137366   0.858   0.156  16.497  0.5060  1.2616 -0.4807
 5317TIP3    H237367   1.008   0.140  16.512  0.5545 -0.3692 -2.3415
 5318TIP3   OH237368   5.941   3.272   2.151  0.6494 -0.5117 -0.4844
 5318TIP3    H137369   5.979   3.220   2.080  2.6120  1.4537 -0.9917
 5318TIP3    H237370   5.907   3.350   2.107  1.6777  0.6232  0.6610
 5319TIP3   OH237371   2.975   1.062  12.186  0.8093 -0.2161  0.1378
 5319TIP3    H137372   2.967   1.003  12.111  0.7992 -1.3460  1.0004
 5319TIP3    H237373   2.898   1.042  12.240  1.6233 -0.5500  1.2101
 5320TIP3   OH237374   1.377   3.318  10.963 -0.4423 -0.2079 -0.1628
 5320TIP3    H137375   1.467   3.344  10.980 -0.5048 -0.3212  0.3779
 5320TIP3    H237376   1.349   3.274  11.043 -1.4264  1.0405  0.2339
 5321TIP3   OH237377   3.952   1.320  14.275  0.3451  0.5566 -0.1547
 5321TIP3    H137378   3.972   1.328  14.182 -0.7021 -0.8422 -0.5124
 5321TIP3    H237379   3.996   1.240  14.303 -1.3640 -0.3895 -0.0416
 5322TIP3   OH237380   0.718   0.896   1.134  0.1625  0.2028 -0.1683
 5322TIP3    H137381   0.739   0.854   1.050  1.7429  0.7246 -0.0465
 5322TIP3    H237382   0.627   0.869   1.151  0.1934 -0.8424 -1.4780
 5323TIP3   OH237383   6.193   0.289   1.041  0.0417 -0.2720  0.2612
 5323TIP3    H137384   6.223   0.201   1.067 -1.0549 -0.3924  1.2192
 5323TIP3    H237385   6.098   0.280   1.031 -0.0340  0.7142 -0.0205
 5324TIP3   OH237386   1.287   0.004   4.854 -0.1828  0.1283  0.1639
 5324TIP3    H137387   1.344  -0.018   4.780  0.6803  1.8144  0.2748
 5324TIP3    H237388   1.342   0.059   4.911 -0.4806 -1.9013  2.6145
 5325TIP3   OH237389   0.207   4.717   1.739 -0.1137  0.0640 -0.2665
 5325TIP3    H137390   0.166   4.643   1.693 -0.5140 -0.6638  1.1886
 5325TIP3    H237391   0.134   4.774   1.761 -0.1279 -0.2872  0.6548
 5326TIP3   OH237392   2.623   2.512   6.414  0.5063  0.3388 -0.0616
 5326TIP3    H137393   2.568   2.453   6.466 -0.1580  0.5156 -0.5397
 5326TIP3    H237394   2.560   2.565   6.365  1.1122  0.5565 -0.6113
 5327TIP3   OH237395   0.362   1.435   5.192  0.0765 -0.0567  0.1391
 5327TIP3    H137396   0.410   1.451   5.273  2.4687 -0.7193 -1.0688
 5327TIP3    H237397   0.367   1.341   5.179  0.2479  0.1090 -1.0869
 5328TIP3   OH237398   3.965   6.256  12.210  0.0309 -0.2785 -0.1973
 5328TIP3    H137399   3.883   6.210  12.193 -0.1714 -0.1000  0.2986
 5328TIP3    H237400   3.963   6.331  12.151 -1.3186  1.1290  1.5283
 5329TIP3   OH237401   2.729   6.199   5.888 -0.3718  0.0371  0.4484
 5329TIP3    H137402   2.648   6.176   5.936 -0.7862  2.1607  0.8405
 5329TIP3    H237403   2.753   6.285   5.922  1.0175  0.2703 -1.0519
 5330TIP3   OH237404   4.650   5.793   0.831 -0.6634 -0.5602 -0.1970
 5330TIP3    H137405   4.733   5.804   0.878  1.4283 -2.6965 -3.0186
 5330TIP3    H237406   4.639   5.876   0.784  0.8192 -0.7961 -1.0448
 5331TIP3   OH237407   2.036   6.548  12.600  0.5302 -0.1946  0.1248
 5331TIP3    H137408   1.995   6.610  12.539  1.8182  1.4331  0.8537
 5331TIP3    H237409   2.008   6.577  12.686  0.0815 -1.4680  0.4281
 5332TIP3   OH237410   6.037   2.835   0.903  0.1597  0.6172  0.0348
 5332TIP3    H137411   5.990   2.784   0.837 -2.1313 -2.9763  3.9351
 5332TIP3    H237412   6.122   2.794   0.909 -0.2646 -0.2233  0.4505
 5333TIP3   OH237413   1.365   2.443  15.549 -0.1291 -0.2667  0.0820
 5333TIP3    H137414   1.421   2.514  15.582  0.2488 -0.1644 -0.7568
 5333TIP3    H237415   1.319   2.412  15.626  0.1942  0.4546  0.5841
 5334TIP3   OH237416   2.122   0.108  13.764 -0.3767  0.5064  0.3915
 5334TIP3    H137417   2.035   0.132  13.794 -0.8696  1.3429 -1.5616
 5334TIP3    H237418   2.115   0.014  13.744 -0.6824  0.4621  0.6999
 5335TIP3   OH237419   6.139   6.389   2.238 -0.1205 -0.3357  0.3874
 5335TIP3    H137420   6.223   6.409   2.197 -0.4290  0.6475  0.2042
 5335TIP3    H237421   6.124   6.297   2.218 -0.2307  0.0843 -1.7315
 5336TIP3   OH237422   0.370   1.212  11.405  0.1219  0.3137  0.1305
 5336TIP3    H137423   0.446   1.225  11.461 -0.2198  0.2224  0.6205
 5336TIP3    H237424   0.396   1.142  11.345  0.1552 -0.2571  0.8001
 5337TIP3   OH237425   5.706   5.698   1.297 -0.0586  0.1476  0.0627
 5337TIP3    H137426   5.663   5.768   1.248 -1.9215 -0.6023  0.5261
 5337TIP3    H237427   5.703   5.727   1.388 -0.6329 -0.4047  0.2288
 5338TIP3   OH237428   0.992   0.645   0.467 -0.0965 -0.0426 -0.6867
 5338TIP3    H137429   0.956   0.591   0.397 -0.2699 -1.6346  0.5946
 5338TIP3    H237430   0.947   0.729   0.458 -3.1987 -1.5172  0.0064
 5339TIP3   OH237431   5.638   2.812  11.685  0.7604 -0.4692  0.0892
 5339TIP3    H137432   5.671   2.783  11.770 -0.4448 -0.1558  0.6891
 5339TIP3    H237433   5.618   2.905  11.697 -1.4129 -0.8959  0.1412
 5340TIP3   OH237434   6.114   5.580   2.200 -0.5823 -0.2687 -0.4073
 5340TIP3    H137435   6.035   5.531   2.177 -0.6749 -0.5703  0.5387
 5340TIP3    H237436   6.174   5.515   2.236  0.8112 -0.3822 -2.6798
 5341TIP3   OH237437   4.924   5.858  16.429 -0.0313 -0.2319 -0.2268
 5341TIP3    H137438   4.922   5.807  16.349  1.7406 -0.4545 -0.1753
 5341TIP3    H237439   4.833   5.884  16.444 -0.1696  1.9254 -3.6288
 5342TIP3   OH237440   4.296   5.166   3.511  0.2765 -0.6369 -0.5950
 5342TIP3    H137441   4.318   5.243   3.458 -1.1021  0.8184  0.8058
 5342TIP3    H237442   4.226   5.122   3.462  0.2820 -0.3431 -0.8676
 5343TIP3   OH237443   1.176   3.666  11.606  0.7457 -0.2816  0.9514
 5343TIP3    H137444   1.144   3.735  11.664 -1.9815 -2.0079  1.7076
 5343TIP3    H237445   1.154   3.695  11.518 -0.0171 -0.0069  1.2303
 5344TIP3   OH237446   4.486   5.825  11.449  0.1286 -0.5894 -0.8055
 5344TIP3    H137447   4.455   5.800  11.536 -0.0992 -0.9991 -1.0012
 5344TIP3    H237448   4.559   5.765  11.432  0.4313 -0.2496 -0.7381
 5345TIP3   OH237449   3.273   5.860  16.567  0.2617  0.6147  0.1303
 5345TIP3    H137450   3.273   5.782  16.512 -1.3399  0.1544  0.7486
 5345TIP3    H237451   3.196   5.909  16.540 -1.1738 -0.1214  2.5970
 5346TIP3   OH237452   4.395   5.338   3.310  0.5717 -0.6592  0.5803
 5346TIP3    H137453   4.344   5.374   3.237 -1.5334  1.8642  3.0753
 5346TIP3    H237454   4.471   5.394   3.316  1.6773 -1.9476 -0.6433
 5347TIP3   OH237455   1.615   6.572   6.494 -0.0115 -0.1745  0.1294
 5347TIP3    H137456   1.659   6.513   6.554  1.8808  1.9894  1.0101
 5347TIP3    H237457   1.654   6.553   6.409 -0.3880 -1.0691  0.1484
 5348TIP3   OH237458   2.423   5.778  10.784 -0.2084  0.3914  0.2120
 5348TIP3    H137459   2.477   5.848  10.820  1.4694 -0.8250  0.1485
 5348TIP3    H237460   2.485   5.711  10.756 -1.7867 -1.6864  1.4086
 5349TIP3   OH237461   3.709   1.610  16.087  0.1438 -0.0934 -0.3434
 5349TIP3    H137462   3.619   1.579  16.095 -0.1353  1.1000  1.7427
 5349TIP3    H237463   3.753   1.580  16.166  0.5630  2.3930  0.4656
 5350TIP3   OH237464   1.329   3.692   4.325 -0.0178  0.1532  0.2348
 5350TIP3    H137465   1.330   3.783   4.353  0.6794  0.4971 -0.8731
 5350TIP3    H237466   1.236   3.670   4.316 -0.1890  0.6865  0.6908
 5351TIP3   OH237467   4.813   5.446  16.323  0.3686  0.5704  0.1727
 5351TIP3    H137468   4.898   5.485  16.304 -0.3623  1.9799 -0.3154
 5351TIP3    H237469   4.810   5.367  16.269  0.9434  1.0606 -0.5829
 5352TIP3   OH237470   4.556   3.499  12.592  0.2038 -0.3130 -0.6063
 5352TIP3    H137471   4.631   3.451  12.556 -0.2190 -1.4010 -0.0823
 5352TIP3    H237472   4.485   3.435  12.593  0.1965 -0.4150  2.1961
 5353TIP3   OH237473   5.918   6.646   5.789 -0.2119  0.0616  0.0534
 5353TIP3    H137474   5.877   6.662   5.874  3.5139 -0.0377  2.0485
 5353TIP3    H237475   5.911   6.551   5.777 -0.9140  0.0978  0.0914
 5354TIP3   OH237476   0.027   5.116  16.966  0.3437 -0.1686 -0.2114
 5354TIP3    H137477   0.075   5.167  17.031 -1.0502 -0.9446  1.5050
 5354TIP3    H237478  -0.065   5.129  16.988 -0.0947 -2.3810 -0.5019
 5355TIP3   OH237479   4.570   4.761  10.792 -0.3665  0.1795  0.6715
 5355TIP3    H137480   4.539   4.671  10.801 -0.5728  0.0491 -1.0135
 5355TIP3    H237481   4.665   4.755  10.807 -0.3127 -0.3978  0.1537
 5356TIP3   OH237482   0.536   0.043   3.837  0.0236  0.5224 -0.3408
 5356TIP3    H137483   0.472   0.079   3.776  1.0424  1.2843 -0.9836
 5356TIP3    H237484   0.578  -0.028   3.790  0.5641  0.8772 -0.3939
 5357TIP3   OH237485   2.512   2.685  14.033 -0.0293 -0.1013  0.3549
 5357TIP3    H137486   2.525   2.711  14.124  1.2250  0.9548 -0.0984
 5357TIP3    H237487   2.600   2.673  13.998 -0.5119 -1.3451 -0.4936
 5358TIP3   OH237488   4.155   2.187   3.811  0.1728 -0.0082  0.2789
 5358TIP3    H137489   4.079   2.213   3.863 -1.0843 -1.0379 -0.9367
 5358TIP3    H237490   4.140   2.226   3.725 -0.3634 -2.2687 -0.7476
 5359TIP3   OH237491   0.819   1.995  13.950  0.4296  0.2606 -0.2384
 5359TIP3    H137492   0.858   1.916  13.987  0.2209  0.8286  1.2570
 5359TIP3    H237493   0.811   1.976  13.856 -1.6180 -2.3458  0.3423
 5360TIP3   OH237494   5.514   4.081   0.982 -0.4316  0.4912 -0.0913
 5360TIP3    H137495   5.504   4.070   0.888  0.8435 -0.6626 -0.1239
 5360TIP3    H237496   5.604   4.056   1.000 -1.6389 -3.1939  1.9446
 5361TIP3   OH237497   5.952   1.319  12.566 -0.4121 -0.0580  0.3807
 5361TIP3    H137498   5.942   1.256  12.495 -0.5306  0.3123  0.0681
 5361TIP3    H237499   5.863   1.338  12.594 -0.4612  1.0998 -0.5227
 5362TIP3   OH237500   3.842   3.732   4.203 -0.3734  0.7692  0.1578
 5362TIP3    H137501   3.908   3.664   4.192  0.4454  1.3480  1.2451
 5362TIP3    H237502   3.844   3.782   4.121  0.4233  0.6741  0.1157
 5363TIP3   OH237503   0.861   5.689  17.279 -0.8213  0.2410 -0.5004
 5363TIP3    H137504   0.793   5.730  17.226 -0.2377  0.2534 -1.2565
 5363TIP3    H237505   0.813   5.639  17.345 -1.5712  2.3351  0.6514
 5364TIP3   OH237506   3.581   5.443   5.153  0.0843  0.2591  0.1968
 5364TIP3    H137507   3.671   5.469   5.172  0.9505 -1.7098 -0.8946
 5364TIP3    H237508   3.564   5.370   5.212 -0.2996 -0.2653 -0.5478
 5365TIP3   OH237509   5.320   3.914  12.763  0.0616  0.3741 -0.1455
 5365TIP3    H137510   5.378   3.916  12.840 -0.7415  2.3515  0.4761
 5365TIP3    H237511   5.365   3.856  12.701  2.3493  1.2277  0.5884
 5366TIP3   OH237512   2.145   1.979   0.175  0.0447 -0.2673  0.2208
 5366TIP3    H137513   2.054   1.975   0.205 -1.0910 -1.0370 -2.9110
 5366TIP3    H237514   2.173   1.888   0.171 -0.5104 -0.4212 -2.4722
 5367TIP3   OH237515   5.928   1.691   3.743  0.1205  0.3910  0.3575
 5367TIP3    H137516   6.000   1.668   3.684 -0.4400 -1.5738  0.3694
 5367TIP3    H237517   5.943   1.783   3.765  0.4405  1.1584 -2.6985
 5368TIP3   OH237518   2.138   0.879   2.912 -0.0855 -0.5016  0.0052
 5368TIP3    H137519   2.158   0.958   2.962  0.0839 -1.1053  0.9171
 5368TIP3    H237520   2.223   0.839   2.895 -0.2479 -1.2514  0.8521
 5369TIP3   OH237521   5.297   1.037  11.851  0.2925  0.9290  0.3231
 5369TIP3    H137522   5.252   1.086  11.783 -0.1463 -1.0686 -0.8992
 5369TIP3    H237523   5.383   1.017  11.813  0.1210 -0.0290  0.4247
 5370TIP3   OH237524   3.913   1.311   2.666  0.1345  0.2003 -0.5741
 5370TIP3    H137525   3.973   1.380   2.640  0.3047 -0.2260 -1.3565
 5370TIP3    H237526   3.896   1.262   2.585 -0.9628  0.0809 -0.2949
 5371TIP3   OH237527   0.322   4.809   2.643 -0.4466  0.1757  0.1171
 5371TIP3    H137528   0.312   4.743   2.710  1.9852 -0.5555 -0.1518
 5371TIP3    H237529   0.274   4.774   2.567  0.9885 -1.4559 -0.0989
 5372TIP3   OH237530   6.510   5.159   5.504 -0.0105  0.1895  0.0430
 5372TIP3    H137531   6.447   5.226   5.479 -0.4953  0.2780  1.4260
 5372TIP3    H237532   6.595   5.199   5.486 -0.3100  0.6205 -0.4746
 5373TIP3   OH237533   3.563   3.013   1.091 -0.3629 -0.0280  0.1160
 5373TIP3    H137534   3.636   3.075   1.098 -0.1046 -0.3065 -0.0734
 5373TIP3    H237535   3.556   2.996   0.997  1.1478 -2.1390  0.3182
 5374TIP3   OH237536   2.175   5.233   2.554 -0.1478  0.4496  0.2924
 5374TIP3    H137537   2.106   5.300   2.555 -0.0479  0.5483  0.8083
 5374TIP3    H237538   2.135   5.157   2.596 -0.0299  0.4152  0.3418
 5375TIP3   OH237539   5.411   1.738   1.053 -0.2901  0.5495 -0.1411
 5375TIP3    H137540   5.392   1.729   1.147 -0.4399 -0.0185 -0.2219
 5375TIP3    H237541   5.468   1.814   1.048 -2.0862  1.9858  0.1636
 5376TIP3   OH237542   4.408   4.559  11.810  0.1015  0.4466  0.2199
 5376TIP3    H137543   4.353   4.545  11.733 -0.3319 -1.5336  0.8370
 5376TIP3    H237544   4.397   4.651  11.831 -1.6674  0.4692 -0.6683
 5377TIP3   OH237545   1.091   0.607  15.671  0.1814  0.5066 -0.1818
 5377TIP3    H137546   1.170   0.637  15.716  1.5400 -1.5377 -1.0388
 5377TIP3    H237547   1.119   0.591  15.581 -1.3378  0.2127 -0.6285
 5378TIP3   OH237548   3.916   5.267  11.730 -0.3991 -0.0807 -0.2857
 5378TIP3    H137549   3.912   5.281  11.635  0.6025  1.0420 -0.1789
 5378TIP3    H237550   3.850   5.325  11.766 -0.1981  0.1195 -0.2394
 5379TIP3   OH237551   1.383   0.063  13.024  0.2360  0.0555 -0.8077
 5379TIP3    H137552   1.306   0.045  12.970 -1.2184 -1.0455  1.4563
 5379TIP3    H237553   1.351   0.124  13.091  1.7514  0.7491 -0.6856
 5380TIP3   OH237554   1.391   5.382  13.619 -0.0367 -0.2183 -0.6069
 5380TIP3    H137555   1.360   5.296  13.645  0.0546  0.4024  1.7588
 5380TIP3    H237556   1.483   5.383  13.645 -0.5164  1.2243  1.1937
 5381TIP3   OH237557   5.665   5.547   5.288 -0.5015 -0.2716 -0.2718
 5381TIP3    H137558   5.598   5.550   5.220 -0.8652 -0.5113  0.0795
 5381TIP3    H237559   5.619   5.521   5.367  0.2073 -1.7011 -0.2945
 5382TIP3   OH237560   2.753   3.657   0.823 -0.4416 -0.9284  0.0990
 5382TIP3    H137561   2.757   3.735   0.768 -1.0247  0.5472  2.0282
 5382TIP3    H237562   2.844   3.638   0.845 -0.2746 -1.0085 -0.6301
 5383TIP3   OH237563   4.438   0.890  16.195 -0.0573 -0.2467 -0.2412
 5383TIP3    H137564   4.360   0.919  16.147  0.7160  1.2665 -0.6554
 5383TIP3    H237565   4.444   0.950  16.270 -0.4640 -1.7056  1.0202
 5384TIP3   OH237566   0.437   2.648   5.591  0.0166 -0.4767  0.1523
 5384TIP3    H137567   0.391   2.589   5.650 -4.3404  0.4350 -1.9304
 5384TIP3    H237568   0.506   2.688   5.645 -1.1585 -2.5033  3.4182
 5385TIP3   OH237569   3.829   6.607   2.013 -0.1511 -0.1197  0.5930
 5385TIP3    H137570   3.831   6.645   2.101  0.5062 -1.2578  1.0855
 5385TIP3    H237571   3.919   6.583   1.995 -0.0160  1.3740 -0.9948
 5386TIP3   OH237572   6.759   3.340  11.324  0.3280  0.0620  0.2888
 5386TIP3    H137573   6.688   3.282  11.350 -0.0465  0.0744 -0.6776
 5386TIP3    H237574   6.766   3.329  11.229  1.2620  0.4629  0.2971
 5387TIP3   OH237575   4.072   1.746  12.595  0.0467 -0.5720 -0.3201
 5387TIP3    H137576   4.056   1.824  12.649 -1.6282 -1.1950  0.1482
 5387TIP3    H237577   4.062   1.777  12.505 -0.0693 -0.1191 -0.1563
 5388TIP3   OH237578   6.262   5.470   4.038  0.7763 -0.2553 -0.1768
 5388TIP3    H137579   6.170   5.465   4.066  0.8946  0.8488  0.4615
 5388TIP3    H237580   6.259   5.451   3.945 -0.1516  0.1550 -0.2448
 5389TIP3   OH237581   5.067   4.040  13.404 -0.1710 -0.0681 -0.0895
 5389TIP3    H137582   5.139   3.979  13.387 -1.7653 -2.4743  1.1759
 5389TIP3    H237583   4.996   4.011  13.347 -1.4100 -0.3074  1.4881
 5390TIP3   OH237584   1.023   3.326   2.347 -0.1508 -0.4109 -0.1281
 5390TIP3    H137585   1.110   3.359   2.324  0.7732 -0.7717  2.5082
 5390TIP3    H237586   1.034   3.231   2.352 -1.9763 -1.0829 -4.3715
 5391TIP3   OH237587   1.830   3.659  16.515 -0.0805  0.4350 -0.0811
 5391TIP3    H137588   1.826   3.668  16.419 -0.8944  1.3399  0.0198
 5391TIP3    H237589   1.830   3.565  16.531  1.3782  0.2384 -1.0094
 5392TIP3   OH237590   3.749   1.834  13.687 -0.0207  0.3662 -0.6506
 5392TIP3    H137591   3.737   1.929  13.690 -0.6761  0.2846 -0.4954
 5392TIP3    H237592   3.843   1.821  13.698  0.0479  0.9875 -0.4677
 5393TIP3   OH237593   1.120   3.612  15.354  0.2672 -0.2222 -0.1085
 5393TIP3    H137594   1.025   3.613  15.370  0.0573 -1.0615 -1.1518
 5393TIP3    H237595   1.155   3.680  15.411 -1.0745  0.6668 -0.2940
 5394TIP3   OH237596   6.182   1.077  16.738  0.6082  0.6991 -0.2963
 5394TIP3    H137597   6.136   1.011  16.684  0.9031  0.1765  0.0814
 5394TIP3    H237598   6.165   1.160  16.693 -0.0236  0.4088 -0.6179
 5395TIP3   OH237599   6.667   2.773  16.377 -0.0933 -0.0416 -0.4076
 5395TIP3    H137600   6.748   2.757  16.425 -1.2137 -0.8505  1.3264
 5395TIP3    H237601   6.693   2.773  16.285  2.1502  1.5757  0.1342
 5396TIP3   OH237602   6.188   0.136   3.260 -0.2396 -0.3336 -0.1116
 5396TIP3    H137603   6.194   0.058   3.205 -2.0139  0.8105 -2.1291
 5396TIP3    H237604   6.094   0.144   3.279 -0.2127  1.6062 -0.5280
 5397TIP3   OH237605   2.977   3.246   5.845  0.7266  0.3456  0.3680
 5397TIP3    H137606   2.891   3.205   5.857 -0.5840  2.2469 -1.6855
 5397TIP3    H237607   3.033   3.174   5.814 -0.1522 -0.8744  1.4944
 5398TIP3   OH237608   4.273   2.424   1.837 -0.0770 -0.8531  0.0835
 5398TIP3    H137609   4.276   2.441   1.931  0.6077 -0.8444  0.0654
 5398TIP3    H237610   4.192   2.467   1.807  0.1146 -0.1653  0.5306
 5399TIP3   OH237611   1.282   0.727   4.763  0.1193  0.0169 -0.5097
 5399TIP3    H137612   1.320   0.725   4.675 -0.9605  2.5563 -1.1270
 5399TIP3    H237613   1.221   0.654   4.764  0.4206 -0.2773 -1.7536
 5400TIP3   OH237614   5.788   4.626   0.999  0.2805 -0.0937  0.5062
 5400TIP3    H137615   5.862   4.602   0.943  1.4503 -1.4716  2.5271
 5400TIP3    H237616   5.763   4.714   0.970  0.6019 -0.8371 -2.3436
 5401TIP3   OH237617   1.443   3.491   1.006  0.5969 -0.1007  0.2542
 5401TIP3    H137618   1.439   3.405   0.965  3.4568 -0.2870  0.1530
 5401TIP3    H237619   1.501   3.479   1.082  0.1060  1.4786  0.9307
 5402TIP3   OH237620   2.175   5.041  16.096 -0.0338  0.4308 -0.5616
 5402TIP3    H137621   2.198   5.005  16.182  1.8559  2.1606 -0.2634
 5402TIP3    H237622   2.159   5.134  16.113  0.4609  0.8107 -2.0856
 5403TIP3   OH237623   1.188   6.153   1.880  0.2975  0.1015 -0.2929
 5403TIP3    H137624   1.108   6.178   1.835 -0.0491 -0.6662 -0.1271
 5403TIP3    H237625   1.214   6.231   1.929 -0.2065  0.4325 -0.5500
 5404TIP3   OH237626   1.700   2.213  15.646  0.0870 -0.0500  0.2561
 5404TIP3    H137627   1.694   2.306  15.622  0.7697 -0.2298 -0.6715
 5404TIP3    H237628   1.793   2.199  15.663  0.2806 -0.9628 -1.3449
 5405TIP3   OH237629   0.954   5.886  12.206 -0.2571 -0.3543  0.3675
 5405TIP3    H137630   1.037   5.911  12.246  0.0988 -3.1430  1.5728
 5405TIP3    H237631   0.892   5.883  12.279 -0.6115 -1.4604  0.0408
 5406TIP3   OH237632   1.030   4.034   1.688 -0.6571  0.6048 -0.3040
 5406TIP3    H137633   1.005   4.021   1.780 -0.2060 -1.1214 -0.4046
 5406TIP3    H237634   1.074   4.120   1.688 -1.9284  1.3074  0.8018
 5407TIP3   OH237635   6.202   1.936   1.005 -0.0325  0.5277  0.1417
 5407TIP3    H137636   6.173   2.000   0.940 -0.9822 -1.2709 -1.2878
 5407TIP3    H237637   6.158   1.962   1.086 -0.0105  1.9280 -0.2631
 5408TIP3   OH237638   6.333   2.508  15.894  0.7887  0.4405  0.6513
 5408TIP3    H137639   6.400   2.565  15.857 -0.1902 -0.0385 -2.0862
 5408TIP3    H237640   6.312   2.547  15.979  2.8537  1.8944  0.5634
 5409TIP3   OH237641   5.627   5.657  16.143 -0.1490  0.3182 -0.3339
 5409TIP3    H137642   5.604   5.565  16.132  1.6356  0.0152 -2.0416
 5409TIP3    H237643   5.546   5.698  16.174 -1.0934 -1.7257  0.0829
 5410TIP3   OH237644   2.842   5.380  13.718  0.2874  0.5374  0.2508
 5410TIP3    H137645   2.847   5.286  13.737 -1.5460  0.3247 -0.1325
 5410TIP3    H237646   2.925   5.400  13.676 -0.1787 -1.4551 -1.8187
 5411TIP3   OH237647   3.085   2.466   1.038  0.4749 -0.1902 -0.7938
 5411TIP3    H137648   3.020   2.399   1.015 -0.8666  0.9174 -0.4098
 5411TIP3    H237649   3.063   2.541   0.982  0.2046  0.8601  0.6594
 5412TIP3   OH237650   4.007   0.213   3.074 -0.0775  0.5413  0.3758
 5412TIP3    H137651   4.068   0.178   3.139  0.3273 -1.3852 -0.9545
 5412TIP3    H237652   4.056   0.210   2.992 -1.3893  0.5753 -0.4275
 5413TIP3   OH237653   5.853   0.262  15.855 -0.2960 -0.5131  0.2288
 5413TIP3    H137654   5.852   0.339  15.911 -1.1094 -0.1154 -0.3235
 5413TIP3    H237655   5.894   0.194  15.908 -1.0725 -0.1513  1.3110
 5414TIP3   OH237656   6.401   6.280  13.912  0.7776  0.6676  0.3622
 5414TIP3    H137657   6.448   6.267  13.830  0.1169 -0.9592  0.2222
 5414TIP3    H237658   6.463   6.327  13.967  1.7011  0.6370 -0.6208
 5415TIP3   OH237659   1.901   1.554  14.448  0.2488 -0.3342 -0.0882
 5415TIP3    H137660   1.942   1.633  14.485  0.5608 -0.1382 -0.8130
 5415TIP3    H237661   1.975   1.498  14.424  0.1668  0.2581 -1.9209
 5416TIP3   OH237662   2.562   4.681   1.122  0.1222 -0.0089  0.5153
 5416TIP3    H137663   2.615   4.761   1.118  2.7469 -1.6514  0.0574
 5416TIP3    H237664   2.590   4.637   1.202 -1.5618 -0.3586  0.9631
 5417TIP3   OH237665   2.889   0.931   4.991 -0.3046  0.6007  0.3644
 5417TIP3    H137666   2.973   0.908   4.953 -1.2438 -0.3762 -1.2510
 5417TIP3    H237667   2.835   0.852   4.980 -2.0514  1.8451 -0.6305
 5418TIP3   OH237668   2.364   2.819   6.084 -0.2504  0.1544  0.0821
 5418TIP3    H137669   2.409   2.744   6.123  1.8485  1.9360  1.3268
 5418TIP3    H237670   2.330   2.868   6.159 -3.8625 -0.6960 -0.7610
 5419TIP3   OH237671   0.680   5.303  11.437 -0.1353 -0.4350 -0.1861
 5419TIP3    H137672   0.606   5.250  11.404 -0.2439 -0.9745  0.8810
 5419TIP3    H237673   0.738   5.311  11.362 -0.6338 -1.1673 -0.6721
 5420TIP3   OH237674   2.085   4.757  10.695 -0.0668 -0.2886  0.3651
 5420TIP3    H137675   2.047   4.774  10.609 -1.2811 -2.2479  0.4688
 5420TIP3    H237676   2.042   4.819  10.753  1.7734  2.0540 -0.5683
 5421TIP3   OH237677   4.136   4.798   1.133  0.0153  0.3161  0.0553
 5421TIP3    H137678   4.108   4.743   1.206  1.1565 -0.0476  0.2381
 5421TIP3    H237679   4.230   4.811   1.147 -0.1487  2.0010 -0.2058
 5422TIP3   OH237680   6.245   5.864   3.005  0.4263  0.1365 -0.1971
 5422TIP3    H137681   6.193   5.788   3.032  0.6776  0.4664  1.3393
 5422TIP3    H237682   6.181   5.926   2.970  0.0950 -0.4159 -0.5729
 5423TIP3   OH237683   1.221   0.611  12.964  0.5876 -0.6859  0.0637
 5423TIP3    H137684   1.197   0.691  12.917  0.4753  0.0417  1.3304
 5423TIP3    H237685   1.226   0.544  12.896 -0.9772  0.0287 -0.7891
 5424TIP3   OH237686   6.077   0.176  15.664 -0.0528 -0.5192  0.3150
 5424TIP3    H137687   6.037   0.192  15.579  1.3609 -1.3529 -0.5269
 5424TIP3    H237688   6.007   0.196  15.727 -0.8150  1.0977 -0.9619
 5425TIP3   OH237689   1.711   3.799  14.164 -0.0002  0.1520 -0.0553
 5425TIP3    H137690   1.740   3.857  14.234  1.3092  0.0555 -0.4867
 5425TIP3    H237691   1.740   3.842  14.083 -1.6209  0.3450 -0.5803
 5426TIP3   OH237692   5.775   6.557  16.509 -0.5110  0.1115  0.1458
 5426TIP3    H137693   5.776   6.505  16.428 -1.3107  1.7079 -0.9274
 5426TIP3    H237694   5.706   6.517  16.562 -0.8477 -0.1753 -0.4970
 5427TIP3   OH237695   6.631   5.673  14.140  0.1182 -0.1673  0.1221
 5427TIP3    H137696   6.575   5.736  14.094  1.8002  1.9312  0.7801
 5427TIP3    H237697   6.630   5.704  14.231  0.8561 -1.2241  0.5015
 5428TIP3   OH237698   0.457   3.769   1.698 -0.0528 -0.3267 -0.1961
 5428TIP3    H137699   0.550   3.777   1.680 -0.1286 -1.3322 -1.2029
 5428TIP3    H237700   0.422   3.722   1.621 -1.0772 -1.5026  0.9358
 5429TIP3   OH237701   1.126   2.895  11.839  0.5561 -0.1608  0.1387
 5429TIP3    H137702   1.066   2.864  11.907  2.6512 -0.8001  1.8092
 5429TIP3    H237703   1.183   2.957  11.883  2.2591 -0.9047 -0.8950
 5430TIP3   OH237704   2.658   1.311   6.290 -0.5491  0.2219 -0.1482
 5430TIP3    H137705   2.610   1.323   6.372 -2.1432  0.9274 -1.1346
 5430TIP3    H237706   2.727   1.248   6.311 -1.5548 -0.3940  1.4830
 5431TIP3   OH237707   0.904   2.169  16.443  0.3332  0.1899 -0.3042
 5431TIP3    H137708   0.852   2.247  16.423 -1.2546 -1.1867 -1.9504
 5431TIP3    H237709   0.968   2.198  16.508 -2.1854  2.1136  1.4881
 5432TIP3   OH237710   5.473   2.127   1.928  0.1617  0.1649 -0.1825
 5432TIP3    H137711   5.503   2.217   1.934  0.0073  0.2350 -0.4661
 5432TIP3    H237712   5.547   2.075   1.959  0.8026  0.2976 -1.4402
 5433TIP3   OH237713   4.611   5.109   2.434  0.1411 -0.3359 -0.1364
 5433TIP3    H137714   4.544   5.135   2.498 -0.3059 -1.4968 -0.1094
 5433TIP3    H237715   4.693   5.111   2.484 -0.0251 -0.0082  0.1317
 5434TIP3   OH237716   2.810   4.343   3.223  0.0504 -0.5014 -0.4607
 5434TIP3    H137717   2.736   4.360   3.282  0.4235  0.4628 -0.2503
 5434TIP3    H237718   2.888   4.356   3.278  0.3898 -0.6880 -0.8888
 5435TIP3   OH237719   6.622   3.009   5.103  0.0107 -0.7409 -0.0589
 5435TIP3    H137720   6.696   2.975   5.052  1.1246  2.5904 -0.8990
 5435TIP3    H237721   6.644   2.987   5.193  2.2068  0.3219 -0.2629
 5436TIP3   OH237722   5.055   0.879  13.131  0.1358  0.5884 -0.7805
 5436TIP3    H137723   5.147   0.886  13.156  0.1468 -0.5368 -0.4827
 5436TIP3    H237724   5.029   0.791  13.156 -1.8610  1.7971  1.8573
 5437TIP3   OH237725   1.205   6.381  16.501  0.2207 -0.1930  0.1013
 5437TIP3    H137726   1.258   6.461  16.492 -1.4970  0.9444 -0.5393
 5437TIP3    H237727   1.227   6.329  16.424  1.8328 -0.6749  0.8506
 5438TIP3   OH237728   6.110   6.298   4.042 -0.8214 -0.4313  0.4235
 5438TIP3    H137729   6.167   6.232   4.082 -0.3621 -0.9864 -1.0620
 5438TIP3    H237730   6.093   6.264   3.954 -1.7694  0.7413  0.1328
 5439TIP3   OH237731   2.612   2.453  11.634  0.1598 -0.1436 -0.4918
 5439TIP3    H137732   2.552   2.484  11.566  1.2342  0.2551 -1.3016
 5439TIP3    H237733   2.555   2.419  11.703 -0.9734 -1.6024 -2.0568
 5440TIP3   OH237734   1.351   6.232  16.309 -0.3686  0.0510  0.2193
 5440TIP3    H137735   1.431   6.276  16.282 -0.5893 -1.3871 -3.4147
 5440TIP3    H237736   1.380   6.150  16.348 -0.0895  1.3904  3.0840
 5441TIP3   OH237737   2.194   0.586   4.036  0.2336  0.3551  0.8289
 5441TIP3    H137738   2.175   0.502   3.995 -0.7506  0.7587  0.4329
 5441TIP3    H237739   2.119   0.641   4.015  1.9911  2.1826 -1.2055
 5442TIP3   OH237740   6.625   6.547  14.414  0.2576 -0.4449  0.2351
 5442TIP3    H137741   6.575   6.622  14.447 -0.5722 -0.7842 -0.2508
 5442TIP3    H237742   6.560   6.479  14.398  0.4091  0.0384 -3.1454
 5443TIP3   OH237743   5.566   3.047   5.867 -0.0657  0.0882  0.5478
 5443TIP3    H137744   5.535   3.137   5.873 -0.4696  0.0188 -0.2864
 5443TIP3    H237745   5.588   3.023   5.957 -1.1785  0.5941  0.9794
 5444TIP3   OH237746   0.801   6.548  11.972  0.0355 -0.5404 -0.0370
 5444TIP3    H137747   0.882   6.504  11.945  0.8609  0.9594 -0.1030
 5444TIP3    H237748   0.732   6.503  11.924  1.0204 -0.7723 -1.2764
 5445TIP3   OH237749   3.621   5.248   1.443  0.0449  0.1611 -0.1447
 5445TIP3    H137750   3.673   5.204   1.376 -1.9151 -1.1377 -0.8874
 5445TIP3    H237751   3.591   5.178   1.501 -2.1438  0.6248 -0.6457
 5446TIP3   OH237752   0.238   1.153  16.512  0.3286 -0.0838 -0.4776
 5446TIP3    H137753   0.201   1.073  16.473 -0.3830  0.7603 -1.6161
 5446TIP3    H237754   0.327   1.157  16.478  0.5509 -0.6622  0.0165
 5447TIP3   OH237755   6.072   2.354   3.557  0.3044 -0.3439  0.2193
 5447TIP3    H137756   6.077   2.272   3.509 -2.5609 -1.7670  2.0788
 5447TIP3    H237757   6.156   2.359   3.604  1.4897 -0.9077 -1.7089
 5448TIP3   OH237758   5.551   5.867   1.940 -0.1771  0.0131 -0.3355
 5448TIP3    H137759   5.481   5.933   1.945  0.6628  1.0731 -1.8455
 5448TIP3    H237760   5.632   5.917   1.955  0.2870 -1.2327  1.6276
 5449TIP3   OH237761   4.946   5.704  15.777  0.0368  0.3305  0.2642
 5449TIP3    H137762   4.978   5.632  15.722 -0.4171  0.4798 -0.2050
 5449TIP3    H237763   4.932   5.776  15.716  0.9442  0.9757  0.8050
 5450TIP3   OH237764   5.461   2.611   0.365  0.2026 -0.0437  0.7907
 5450TIP3    H137765   5.407   2.534   0.382 -0.8686  0.8468  1.5415
 5450TIP3    H237766   5.404   2.670   0.316  1.5581 -0.3789 -1.3230
 5451TIP3   OH237767   4.993   6.242  12.198 -0.0080 -0.2411  0.2586
 5451TIP3    H137768   4.973   6.283  12.282  1.3584 -0.7119  0.8476
 5451TIP3    H237769   4.977   6.149  12.212  3.2395 -0.7958  1.0728
 5452TIP3   OH237770   0.643   2.005   4.006  0.3601 -0.0948 -1.2111
 5452TIP3    H137771   0.557   2.002   4.049  0.6981  1.9153 -0.3003
 5452TIP3    H237772   0.629   2.058   3.928  0.7849  0.2627 -1.0435
 5453TIP3   OH237773   4.658   3.262   2.329  0.0952  0.1106  0.5756
 5453TIP3    H137774   4.690   3.352   2.334 -1.9482  1.1339 -1.8891
 5453TIP3    H237775   4.724   3.216   2.278  0.1604  0.8210 -0.0076
 5454TIP3   OH237776   0.123   0.710  14.895 -0.4821  0.0603 -0.4405
 5454TIP3    H137777   0.085   0.794  14.919  1.1074  0.2790  1.6491
 5454TIP3    H237778   0.069   0.679  14.822 -2.5717  1.7627  0.2713
 5455TIP3   OH237779   4.049   2.410   6.168  0.1126  0.0141  0.0595
 5455TIP3    H137780   4.065   2.435   6.076  1.1577 -0.4010  0.1215
 5455TIP3    H237781   4.109   2.338   6.184 -0.8725 -0.6691  0.7499
 5456TIP3   OH237782   2.160   3.216   5.419  0.1447 -0.2924  0.4052
 5456TIP3    H137783   2.149   3.267   5.338 -1.3938  0.6275  1.1488
 5456TIP3    H237784   2.129   3.274   5.488 -0.0520 -1.6410  1.4873
 5457TIP3   OH237785   3.109   4.449  11.214  0.2737 -1.0754  0.1863
 5457TIP3    H137786   3.186   4.458  11.271 -0.8500  1.2584  1.5028
 5457TIP3    H237787   3.135   4.490  11.132 -0.3343  2.4509  1.5829
 5458TIP3   OH237788   0.221   1.685  14.519 -0.7417 -0.1107  0.3361
 5458TIP3    H137789   0.220   1.721  14.608  0.3770 -0.7429  0.6290
 5458TIP3    H237790   0.310   1.703  14.488 -0.5180 -1.5744  0.0678
 5459TIP3   OH237791   1.277   6.148  13.439  0.6743 -0.0921  0.0406
 5459TIP3    H137792   1.243   6.208  13.373  1.2687  2.6522  2.0506
 5459TIP3    H237793   1.200   6.110  13.480  0.2410  0.3944 -0.3180
 5460TIP3   OH237794   6.678   1.864   3.506 -0.0486 -0.1220 -0.5830
 5460TIP3    H137795   6.706   1.809   3.433  1.2464  0.9958 -0.9624
 5460TIP3    H237796   6.742   1.847   3.575  0.7139  1.2840 -0.9024
 5461TIP3   OH237797   4.825   6.646   1.052  0.0270 -0.6203 -0.0404
 5461TIP3    H137798   4.870   6.600   0.981 -0.0742 -0.6959 -0.0551
 5461TIP3    H237799   4.896   6.689   1.100 -0.0621  1.0188 -1.3065
 5462TIP3   OH237800   1.906   1.386  12.598  0.1214 -0.0254 -0.4571
 5462TIP3    H137801   1.843   1.317  12.619  0.0387 -0.0846 -0.8926
 5462TIP3    H237802   1.947   1.407  12.682 -1.5076  1.0349  0.1421
 5463TIP3   OH237803   0.532   5.061  14.655  0.1586  0.1933 -0.0439
 5463TIP3    H137804   0.564   5.149  14.677  0.5411  0.3099 -1.0339
 5463TIP3    H237805   0.544   5.011  14.735 -0.0634  1.0456  0.5374
 5464TIP3   OH237806   0.071   6.110   4.397  0.0817  0.0678  0.0924
 5464TIP3    H137807   0.015   6.117   4.475 -1.8002 -2.3452 -0.9367
 5464TIP3    H237808   0.146   6.167   4.417 -0.4053 -0.2863  3.5581
 5465TIP3   OH237809   0.800   4.168  15.591  0.4006  0.3650  0.6092
 5465TIP3    H137810   0.858   4.093  15.596  0.0010  0.1092  1.6796
 5465TIP3    H237811   0.784   4.180  15.497  1.0966 -0.3912  0.3880
 5466TIP3   OH237812   3.770   4.307   6.079 -0.0565 -0.0920  0.2806
 5466TIP3    H137813   3.837   4.309   6.010 -2.0695  1.3197 -1.7660
 5466TIP3    H237814   3.806   4.361   6.149  1.1011  0.3308 -0.6126
 5467TIP3   OH237815   3.216   3.368   2.599  0.1620  0.6537 -0.1923
 5467TIP3    H137816   3.122   3.355   2.605  0.2877  0.1312  0.9878
 5467TIP3    H237817   3.243   3.313   2.525 -0.3174 -0.0625  0.1545
 5468TIP3   OH237818   0.206   4.443   1.057 -0.2857  0.2713 -0.4390
 5468TIP3    H137819   0.177   4.533   1.048 -0.2675  0.4957  1.3569
 5468TIP3    H237820   0.164   4.412   1.137 -2.5797 -2.2727 -2.4521
 5469TIP3   OH237821   0.864   0.790  13.770  0.3881 -0.1064  0.4881
 5469TIP3    H137822   0.924   0.727  13.729 -0.6259 -0.5843 -0.3014
 5469TIP3    H237823   0.904   0.808  13.855  0.3962 -2.3450  1.0307
 5470TIP3   OH237824   2.417   0.863  14.977  0.3876 -0.2001 -0.0577
 5470TIP3    H137825   2.411   0.932  14.912  0.7016 -1.2041 -1.1934
 5470TIP3    H237826   2.394   0.783  14.929 -0.1523 -0.8702  1.2596
 5471TIP3   OH237827   3.172   4.338   1.672 -0.2363 -0.6440 -0.0819
 5471TIP3    H137828   3.200   4.349   1.763 -0.4339 -0.6902 -0.0145
 5471TIP3    H237829   3.078   4.319   1.678 -0.0942 -1.4060 -0.2586
 5472TIP3   OH237830   2.374   3.501   0.587 -0.5022  0.6744  0.2729
 5472TIP3    H137831   2.330   3.575   0.629 -1.0319 -0.1529  1.2284
 5472TIP3    H237832   2.429   3.464   0.656 -0.1295  0.2611 -0.2395
 5473TIP3   OH237833   5.217   5.606  13.254  0.1762  0.3603  0.4369
 5473TIP3    H137834   5.212   5.691  13.209  0.4105  0.3494  0.3918
 5473TIP3    H237835   5.127   5.573  13.252  0.1381  0.4767  0.1988
 5474TIP3   OH237836   1.029   1.399  13.319 -0.3133 -0.2307  0.6431
 5474TIP3    H137837   1.012   1.399  13.414 -0.9149  0.2355  0.5415
 5474TIP3    H237838   1.109   1.347  13.309  0.4882  0.7937  1.5254
 5475TIP3   OH237839   1.548   2.294   4.314 -0.2045 -0.1472  0.0686
 5475TIP3    H137840   1.479   2.237   4.347 -1.9610  1.3229 -0.8701
 5475TIP3    H237841   1.514   2.383   4.327  1.9564  0.6904  0.4779
 5476TIP3   OH237842   2.067   1.853   4.386  0.1714 -0.4168  0.5990
 5476TIP3    H137843   1.984   1.850   4.338  0.9957 -0.3605 -0.9151
 5476TIP3    H237844   2.058   1.787   4.454 -0.9560 -0.7187  0.1805
 5477TIP3   OH237845   3.448   0.154  17.031 -0.4533 -0.5737  0.2311
 5477TIP3    H137846   3.390   0.096  17.081  0.2848  0.8007  2.8558
 5477TIP3    H237847   3.461   0.230  17.087  0.5924  1.0480 -2.0533
 5478TIP3   OH237848   5.357   1.299  16.331  0.1516  0.1395  0.3178
 5478TIP3    H137849   5.298   1.371  16.353 -0.0797 -0.1673  0.7110
 5478TIP3    H237850   5.388   1.266  16.415  0.6432  0.0941  0.1218
 5479TIP3   OH237851   5.984   1.639  13.418 -0.4127 -0.3668 -0.4899
 5479TIP3    H137852   5.919   1.678  13.476 -0.8637 -1.8834  0.0664
 5479TIP3    H237853   5.972   1.684  13.335 -1.8367 -0.2586 -0.2555
 5480TIP3   OH237854   6.281   4.589  11.456 -0.4308 -0.4774  0.3553
 5480TIP3    H137855   6.343   4.609  11.526 -1.5700 -0.3679  1.3617
 5480TIP3    H237856   6.300   4.498  11.434  1.1894  0.0400 -0.5261
 5481TIP3   OH237857   4.169   5.716  13.490 -0.1875  0.2753  0.1407
 5481TIP3    H137858   4.172   5.702  13.395 -1.6490  1.7631 -0.1633
 5481TIP3    H237859   4.076   5.726  13.510  0.1688  1.0645  1.5604
 5482TIP3   OH237860   2.614   4.943   1.506 -0.4820  0.5535 -0.1174
 5482TIP3    H137861   2.700   4.905   1.522 -0.9419 -0.9824 -1.0881
 5482TIP3    H237862   2.565   4.925   1.586 -0.9766 -1.8407 -0.8746
 5483TIP3   OH237863   2.645   3.872   4.877 -0.7239  0.2660  0.1056
 5483TIP3    H137864   2.663   3.782   4.850 -0.3692  0.7348 -1.3312
 5483TIP3    H237865   2.730   3.906   4.903 -0.5695  0.6236 -0.8129
 5484TIP3   OH237866   2.642   6.529  14.974  0.2319 -0.2736 -1.0598
 5484TIP3    H137867   2.584   6.469  14.927  0.0083 -0.7076 -0.2392
 5484TIP3    H237868   2.614   6.616  14.945 -2.1751 -0.3383  0.7682
 5485TIP3   OH237869   0.709   2.879   1.483  0.3883 -0.0407 -0.0007
 5485TIP3    H137870   0.781   2.922   1.529  0.1368  0.4954 -0.1054
 5485TIP3    H237871   0.673   2.817   1.546  2.1377 -1.7271 -0.5262
 5486TIP3   OH237872   4.645   5.487  11.871  0.0311 -0.2902 -0.3388
 5486TIP3    H137873   4.673   5.409  11.918 -2.3404 -0.7087  0.5344
 5486TIP3    H237874   4.564   5.514  11.914 -0.4704  1.2864 -2.0943
 5487TIP3   OH237875   2.447   1.963   0.766 -0.2091 -0.1668  0.4898
 5487TIP3    H137876   2.383   1.898   0.739 -1.7709  0.7591  1.7161
 5487TIP3    H237877   2.485   1.996   0.685  0.3098 -2.2506 -0.1616
 5488TIP3   OH237878   0.311   5.005   1.239 -0.3296  0.3795 -0.9162
 5488TIP3    H137879   0.401   5.035   1.229 -0.0866  0.0102  0.0877
 5488TIP3    H237880   0.269   5.027   1.156  0.5732  0.9339 -1.2343
 5489TIP3   OH237881   4.984   4.394  15.667 -0.1339  0.4075  0.4713
 5489TIP3    H137882   4.948   4.350  15.591 -0.8375 -0.0574  1.0656
 5489TIP3    H237883   5.027   4.324  15.717  1.1968  0.8712  0.0141
 5490TIP3   OH237884   2.618   1.073   5.685  0.3701 -0.1962  0.5862
 5490TIP3    H137885   2.665   1.156   5.691  0.9581 -0.5069  0.3239
 5490TIP3    H237886   2.561   1.083   5.608  1.6565 -0.6368 -0.4515
 5491TIP3   OH237887   1.887   6.606  11.889  0.1088  0.0316 -0.2559
 5491TIP3    H137888   1.962   6.664  11.902 -0.6530  0.8361  0.7366
 5491TIP3    H237889   1.895   6.575  11.799  1.3139  0.5503 -0.3400
 5492TIP3   OH237890   1.391   5.586   4.777  0.1157 -0.0913 -0.1480
 5492TIP3    H137891   1.307   5.611   4.740  0.0846 -2.2000 -1.6776
 5492TIP3    H237892   1.373   5.572   4.870 -1.4606 -1.3256 -0.6033
 5493TIP3   OH237893   3.525   4.803  15.116  0.4001 -0.1432  0.1356
 5493TIP3    H137894   3.603   4.747  15.111  0.5096 -0.0773  0.9932
 5493TIP3    H237895   3.545   4.866  15.185 -1.5895 -1.9852  2.5592
 5494TIP3   OH237896   3.449   0.195   4.390 -0.0026 -0.3697 -0.3714
 5494TIP3    H137897   3.470   0.126   4.452  0.1429  0.6337  0.7302
 5494TIP3    H237898   3.533   0.228   4.360 -0.0711 -0.5970 -0.8297
 5495TIP3   OH237899   5.462   4.911  17.309  0.1475  0.1838  0.3658
 5495TIP3    H137900   5.381   4.906  17.360 -0.4026  1.5441 -0.3534
 5495TIP3    H237901   5.435   4.899  17.218  0.4161  2.6916 -0.1176
 5496TIP3   OH237902   5.872   6.078   5.591  0.3275  0.0030 -0.4597
 5496TIP3    H137903   5.880   6.061   5.685 -1.7988 -1.6286 -0.4958
 5496TIP3    H237904   5.791   6.129   5.583  0.3134 -0.1544 -1.4303
 5497TIP3   OH237905   0.557   1.462  15.556  0.0992 -0.0081  0.0135
 5497TIP3    H137906   0.494   1.464  15.628  0.3742 -1.0781  0.2921
 5497TIP3    H237907   0.614   1.537  15.572 -0.9949  0.8882 -0.1537
 5498TIP3   OH237908   2.391   1.371  16.744  0.2897  0.5866  0.3150
 5498TIP3    H137909   2.371   1.328  16.661 -0.8531  0.3024  0.7191
 5498TIP3    H237910   2.456   1.315  16.786  0.9072  0.7553 -0.3903
 5499TIP3   OH237911   1.306   3.335  11.778  0.1096 -0.1913  0.3074
 5499TIP3    H137912   1.248   3.373  11.713  0.3364 -1.3185 -0.5911
 5499TIP3    H237913   1.248   3.305  11.848 -0.1677  0.6952  0.4713
 5500TIP3   OH237914   4.693   6.458   2.728 -0.2094  0.1911  0.3132
 5500TIP3    H137915   4.751   6.438   2.655 -2.7072  0.3376 -1.8881
 5500TIP3    H237916   4.736   6.528   2.776  0.8372  1.2125 -1.9783
 5501TIP3   OH237917   3.449   2.014   6.879 -0.7510  0.0419 -0.2715
 5501TIP3    H137918   3.400   1.933   6.868 -1.5291  0.2371  1.4846
 5501TIP3    H237919   3.541   1.987   6.883 -0.7564 -0.4494 -2.3251
 5502TIP3   OH237920   3.031   4.693  13.287  0.0291 -0.3725 -0.0632
 5502TIP3    H137921   3.108   4.667  13.338 -0.2628 -0.9437  0.1002
 5502TIP3    H237922   3.042   4.787  13.274 -0.0234 -0.1512  1.3030
 5503TIP3   OH237923   1.544   5.875  12.220 -0.9948  0.0533 -0.3675
 5503TIP3    H137924   1.526   5.781  12.233  0.9835 -0.4974 -1.2914
 5503TIP3    H237925   1.591   5.901  12.299  0.9127 -0.4615 -1.2870
 5504TIP3   OH237926   3.020   4.248  12.486 -0.5756  0.2894  0.1604
 5504TIP3    H137927   2.981   4.189  12.421 -1.6900  0.4425  0.6618
 5504TIP3    H237928   2.982   4.333  12.467  0.7074  0.7793 -0.2909
 5505TIP3   OH237929   3.102   6.208  12.694 -0.4377 -0.5190  0.0599
 5505TIP3    H137930   3.090   6.248  12.608  1.8890 -0.7177 -0.4203
 5505TIP3    H237931   3.156   6.270  12.742 -0.7498 -0.9427  0.9788
 5506TIP3   OH237932   2.345   2.013  11.947 -0.1714 -0.0774 -0.1698
 5506TIP3    H137933   2.394   2.004  11.866  0.4623 -1.0760  0.3033
 5506TIP3    H237934   2.299   1.930  11.957  2.5862 -1.5110  2.2761
 5507TIP3   OH237935   5.770   3.269  12.066  0.0910 -0.0347 -0.5710
 5507TIP3    H137936   5.779   3.197  12.128 -0.0764  0.7825  0.4386
 5507TIP3    H237937   5.860   3.299  12.051  0.0354  0.7634  0.5296
 5508TIP3   OH237938   4.419   0.405   4.571 -0.2711 -0.2768 -0.3878
 5508TIP3    H137939   4.458   0.442   4.492  0.2405 -2.0474 -1.0041
 5508TIP3    H237940   4.481   0.427   4.641  0.8098 -1.2631 -1.0064
 5509TIP3   OH237941   5.586   1.754  14.001 -0.2793 -0.1521 -0.0840
 5509TIP3    H137942   5.541   1.673  13.975  0.3070 -0.4000 -0.3398
 5509TIP3    H237943   5.587   1.750  14.097  1.8085 -1.6357 -0.0961
 5510TIP3   OH237944   1.896   2.479   4.940 -0.4914  0.3900 -0.5801
 5510TIP3    H137945   1.850   2.399   4.915 -1.1713  0.8823 -0.9692
 5510TIP3    H237946   1.894   2.480   5.035 -0.4335 -0.0839 -0.5746
 5511TIP3   OH237947   2.781   3.794  12.980 -0.0232 -0.2160  0.2584
 5511TIP3    H137948   2.873   3.814  13.000  0.1589  1.8324 -2.0885
 5511TIP3    H237949   2.736   3.878  12.991 -1.6441 -1.1747  1.2710
 5512TIP3   OH237950   2.309   1.285   1.140 -0.7295 -0.2120 -0.3130
 5512TIP3    H137951   2.322   1.380   1.135  2.1849 -0.5084 -0.1394
 5512TIP3    H237952   2.293   1.267   1.232  0.8241 -0.0331  0.0229
 5513TIP3   OH237953   1.594   3.270  14.042  0.7897 -0.1400  0.3773
 5513TIP3    H137954   1.647   3.344  14.073 -2.7647  1.7781  2.5829
 5513TIP3    H237955   1.549   3.304  13.964 -0.5273 -0.0232  1.1512
 5514TIP3   OH237956   2.420   2.458  11.824 -0.2759  0.5650 -0.0631
 5514TIP3    H137957   2.405   2.397  11.897  0.2055 -0.5380 -0.8561
 5514TIP3    H237958   2.341   2.512  11.822 -1.0679 -0.5324  0.2136
 5515TIP3   OH237959   0.209   1.264  11.731  0.5948  0.3853  0.0875
 5515TIP3    H137960   0.222   1.297  11.642 -0.1039 -0.3032 -0.2790
 5515TIP3    H237961   0.148   1.190  11.721  2.3543 -1.2533  0.8260
 5516TIP3   OH237962   1.000   3.394  16.525 -0.1018 -0.4539 -0.0002
 5516TIP3    H137963   1.043   3.384  16.441 -0.4178  0.6384 -0.3101
 5516TIP3    H237964   0.931   3.328  16.525  0.4870 -1.0851 -0.1950
 5517TIP3   OH237965   3.340   4.587  13.953  0.0691  0.0404  0.5424
 5517TIP3    H137966   3.257   4.633  13.970 -0.2601 -0.3928  0.1477
 5517TIP3    H237967   3.392   4.602  14.032 -1.1639 -1.3583  1.6891
 5518TIP3   OH237968   1.312   0.985  15.909 -0.0813 -0.2763  0.0577
 5518TIP3    H137969   1.320   0.965  16.003 -0.1744  1.0630  0.3836
 5518TIP3    H237970   1.352   1.072  15.901 -1.6851  0.4089 -0.8202
 5519TIP3   OH237971   2.916   5.917   5.388  0.1107  0.8481 -0.6490
 5519TIP3    H137972   2.877   5.991   5.342  1.7465  1.2568 -1.4390
 5519TIP3    H237973   2.844   5.855   5.398 -0.8009  1.6735 -1.8353
 5520TIP3   OH237974   4.372   5.916   2.184  0.5272  0.0518 -0.2074
 5520TIP3    H137975   4.295   5.891   2.235 -0.4322  0.2848 -1.4977
 5520TIP3    H237976   4.423   5.972   2.243  0.2093 -0.8764  0.9899
 5521TIP3   OH237977   4.865   5.126  16.366 -0.2410  0.0492 -0.2237
 5521TIP3    H137978   4.898   5.072  16.295  0.4086 -0.8100  0.7013
 5521TIP3    H237979   4.774   5.097  16.378 -0.0972 -0.3677 -0.1591
 5522TIP3   OH237980   0.026   4.759   3.820 -0.4293 -0.3291 -0.1459
 5522TIP3    H137981   0.016   4.854   3.817 -0.6010 -0.3413  0.0079
 5522TIP3    H237982  -0.028   4.732   3.894  0.2032 -0.4761  0.2648
 5523TIP3   OH237983   2.901   5.366  16.598 -0.2246  0.0914  0.2561
 5523TIP3    H137984   2.949   5.417  16.663 -1.7373  3.0073 -0.7046
 5523TIP3    H237985   2.811   5.364  16.630 -1.1870  2.2866 -1.9306
 5524TIP3   OH237986   3.653   5.720  11.110 -0.3222 -0.1371 -0.1868
 5524TIP3    H137987   3.627   5.803  11.149 -2.4520 -1.2774  1.0404
 5524TIP3    H237988   3.639   5.732  11.016  0.2761  1.1410 -0.1366
 5525TIP3   OH237989   3.188   3.967  13.556 -0.4316  0.1591 -0.0856
 5525TIP3    H137990   3.197   4.032  13.487 -1.0275 -0.3862 -0.6863
 5525TIP3    H237991   3.230   3.888  13.521 -1.0018 -0.2078  0.0511
 5526TIP3   OH237992   5.935   2.540  16.664 -0.0049  0.5874  0.6799
 5526TIP3    H137993   5.953   2.630  16.689  0.6290  0.2880  1.3312
 5526TIP3    H237994   5.994   2.488  16.718  3.1616 -0.0125 -2.9590
 5527TIP3   OH237995   0.144   4.583   2.267 -0.2029  0.0522 -0.2133
 5527TIP3    H137996   0.119   4.584   2.175  0.4999 -0.7170 -0.4231
 5527TIP3    H237997   0.065   4.557   2.313 -0.6531  0.7693 -0.5567
 5528TIP3   OH237998   0.786   1.780  11.103 -0.1259  0.1268 -0.1291
 5528TIP3    H137999   0.705   1.799  11.056 -0.5825 -1.9207 -0.2526
 5528TIP3    H238000   0.856   1.812  11.046 -0.7786  0.1528 -0.9194
 5529TIP3   OH238001   4.220   6.301  13.214 -0.4269  0.4351  0.0582
 5529TIP3    H138002   4.185   6.367  13.274 -0.3480 -0.1333  0.7415
 5529TIP3    H238003   4.160   6.227  13.222 -0.3686  0.3210 -0.5082
 5530TIP3   OH238004   0.507   3.367  13.548 -0.1756 -0.1100 -0.0020
 5530TIP3    H138005   0.425   3.363  13.500  0.5220  0.2768 -1.2798
 5530TIP3    H238006   0.521   3.277  13.578 -0.4564 -0.4502 -0.8496
 5531TIP3   OH238007   6.433   0.715   6.172  0.1494 -0.2389  0.3514
 5531TIP3    H138008   6.504   0.664   6.211 -0.6709  0.7900  3.5055
 5531TIP3    H238009   6.353   0.667   6.196 -0.3809 -0.0180 -0.8899
 5532TIP3   OH238010   5.171   4.998   3.277  0.1348  0.3941  0.4845
 5532TIP3    H138011   5.080   4.995   3.309  0.0126 -0.1858  0.0955
 5532TIP3    H238012   5.168   5.056   3.201  0.2183  0.8978  0.8603
 5533TIP3   OH238013   6.601   3.069  14.263  0.1664 -0.1403 -0.6181
 5533TIP3    H138014   6.670   3.097  14.324  1.1243 -0.5555 -1.4908
 5533TIP3    H238015   6.559   2.995  14.307 -1.1947  1.4214  0.8914
 5534TIP3   OH238016   2.181   4.507   5.206 -0.3883 -0.2403 -0.0961
 5534TIP3    H138017   2.220   4.576   5.152 -0.1990  0.0078  0.3492
 5534TIP3    H238018   2.181   4.430   5.150  4.3269 -1.3321  1.0285
 5535TIP3   OH238019   1.023   1.352  17.336 -0.1064  0.0472 -0.3695
 5535TIP3    H138020   1.033   1.386  17.426  0.9788 -4.5781  1.5729
 5535TIP3    H238021   0.932   1.367  17.314 -0.3080  1.6680  1.3394
 5536TIP3   OH238022   2.235   1.927   3.602 -0.2516 -0.4306 -0.4382
 5536TIP3    H138023   2.213   2.019   3.585  2.5784  0.1427 -1.6346
 5536TIP3    H238024   2.239   1.921   3.697  1.9100  1.4387 -0.3120
 5537TIP3   OH238025   0.037   3.454  16.526 -0.0747  0.1339 -0.0635
 5537TIP3    H138026  -0.018   3.422  16.454 -0.0085  1.1004 -0.5672
 5537TIP3    H238027   0.013   3.547  16.534  0.7229  0.3035  0.4235
 5538TIP3   OH238028   5.541   3.611   1.600 -0.6512  0.4643  0.4971
 5538TIP3    H138029   5.527   3.575   1.513  0.2615  0.7748  0.2140
 5538TIP3    H238030   5.636   3.618   1.609 -0.7589  1.2505  1.1811
 5539TIP3   OH238031   4.066   1.559  11.889 -0.0771 -0.3742 -0.1459
 5539TIP3    H138032   4.033   1.476  11.856 -1.7649 -0.0459  0.5877
 5539TIP3    H238033   4.041   1.623  11.823 -0.7795 -0.1493  0.3250
 5540TIP3   OH238034   3.271   4.944  15.435  0.2381  0.6259  0.2137
 5540TIP3    H138035   3.242   4.856  15.460 -0.7429  1.4419  2.1648
 5540TIP3    H238036   3.364   4.946  15.459  0.1899  0.2093  0.4470
 5541TIP3   OH238037   5.672   4.824   3.555 -0.0723 -0.2041 -0.0259
 5541TIP3    H138038   5.648   4.826   3.462  0.6096  0.8336 -0.2007
 5541TIP3    H238039   5.608   4.881   3.597 -0.6407 -1.0105  0.2190
 5542TIP3   OH238040   2.107   1.383   3.021  0.5790 -0.0631 -0.5638
 5542TIP3    H138041   2.159   1.459   3.046  0.8010 -0.2293 -0.5099
 5542TIP3    H238042   2.016   1.413   3.022  0.3123 -0.6310  2.8011
 5543TIP3   OH238043   2.065   4.899   3.125 -0.2686 -0.5633  0.2011
 5543TIP3    H138044   2.098   4.953   3.196 -0.3219  1.6151 -1.3414
 5543TIP3    H238045   2.056   4.959   3.051 -2.3596 -2.2298 -1.0254
 5544TIP3   OH238046   2.851   1.207   3.289 -0.1099 -0.3454  0.2148
 5544TIP3    H138047   2.867   1.133   3.348 -1.0484 -0.6934  0.0391
 5544TIP3    H238048   2.770   1.247   3.322  0.4778  0.7175  0.4142
 5545TIP3   OH238049   1.266   3.782   5.846  0.0815 -0.0205 -0.3490
 5545TIP3    H138050   1.339   3.816   5.795 -0.0146  1.6163  0.5658
 5545TIP3    H238051   1.307   3.732   5.917  0.3859  1.5388  0.6196
 5546TIP3   OH238052   5.677   4.593   5.728  0.0710  0.4686 -0.0143
 5546TIP3    H138053   5.674   4.498   5.718  0.3983  0.4731 -0.1459
 5546TIP3    H238054   5.718   4.625   5.648  0.5054  0.6807  0.2918
 5547TIP3   OH238055   4.563   6.347  16.186 -0.4380  0.2125  0.2866
 5547TIP3    H138056   4.591   6.430  16.226 -0.8858  0.4131  0.1838
 5547TIP3    H238057   4.637   6.321  16.131  0.4068 -0.3209  1.6202
 5548TIP3   OH238058   2.801   4.051  13.573 -0.2308  0.6124  0.1007
 5548TIP3    H138059   2.838   3.987  13.635 -0.0374 -0.0926 -0.7218
 5548TIP3    H238060   2.792   4.131  13.624 -0.8957 -0.1842  1.2849
 5549TIP3   OH238061   6.109   5.311  15.279 -0.4381  0.0884 -0.2987
 5549TIP3    H138062   6.192   5.313  15.231  0.9670  0.7290  2.0501
 5549TIP3    H238063   6.129   5.348  15.365 -2.8678 -0.9255  0.7952
 5550TIP3   OH238064   2.163   5.676  13.340  0.0670 -0.5359 -0.3781
 5550TIP3    H138065   2.107   5.598  13.342 -0.1327 -0.3824  0.2782
 5550TIP3    H238066   2.252   5.641  13.338 -0.0428 -0.7881 -1.9177
 5551TIP3   OH238067   2.420   2.915  17.096 -0.5384  0.1030  0.7258
 5551TIP3    H138068   2.371   2.997  17.087 -1.9593 -0.7590  0.2184
 5551TIP3    H238069   2.504   2.932  17.053 -0.6887  1.3708  0.8978
 5552TIP3   OH238070   5.667   6.114  14.722 -0.3456  0.9392 -0.3454
 5552TIP3    H138071   5.708   6.094  14.637 -1.3823 -0.5782 -0.5287
 5552TIP3    H238072   5.713   6.058  14.784 -0.0005  1.5968 -0.0075
 5553TIP3   OH238073   5.196   3.683   0.854  0.4650  0.1991 -0.5346
 5553TIP3    H138074   5.146   3.739   0.913  0.2218  0.1213 -0.6671
 5553TIP3    H238075   5.227   3.742   0.786  1.0977  0.3695 -0.1126
 5554TIP3   OH238076   4.191   3.601   5.970 -0.2573  0.4267  0.1889
 5554TIP3    H138077   4.145   3.605   6.054 -0.6498  0.9742 -0.0491
 5554TIP3    H238078   4.179   3.511   5.941 -0.4343  0.3327  0.5412
 5555TIP3   OH238079   0.075   4.989   5.332  0.0716 -0.3445 -0.2187
 5555TIP3    H138080   0.053   5.055   5.398  2.0210 -1.1276  1.3135
 5555TIP3    H238081   0.145   5.030   5.280 -1.1519  0.1005 -1.5733
 5556TIP3   OH238082   3.791   2.480   1.447 -0.1631 -0.4752  0.5798
 5556TIP3    H138083   3.845   2.537   1.393 -0.6475 -0.4858  0.0663
 5556TIP3    H238084   3.757   2.536   1.516 -1.1517  0.0280 -0.2854
 5557TIP3   OH238085   5.395   5.767  12.534 -0.7812 -0.2471  0.6255
 5557TIP3    H138086   5.352   5.785  12.618 -0.5804  1.1741  0.4491
 5557TIP3    H238087   5.477   5.817  12.538 -0.8879  0.0498 -0.5029
 5558TIP3   OH238088   1.716   5.051  17.079 -0.0847 -0.2939  0.0890
 5558TIP3    H138089   1.764   4.975  17.047  0.9921 -0.3741  1.7403
 5558TIP3    H238090   1.673   5.020  17.159 -1.1994  0.3432 -0.2470
 5559TIP3   OH238091   0.788   2.545   1.675  0.3821 -0.7111  0.1791
 5559TIP3    H138092   0.806   2.532   1.582  1.4758  0.6455  0.1620
 5559TIP3    H238093   0.826   2.631   1.695  1.1717 -1.4460  2.1313
 5560TIP3   OH238094   1.556   0.490   5.024  0.4830 -0.1460  0.7147
 5560TIP3    H138095   1.507   0.498   5.106 -1.6614  1.1364 -0.5961
 5560TIP3    H238096   1.647   0.506   5.049 -0.3840  2.6547  2.5292
 5561TIP3   OH238097   5.292   5.979   2.549 -0.1765  0.2368  0.0551
 5561TIP3    H138098   5.208   5.976   2.502  0.2947 -0.3544 -0.7622
 5561TIP3    H238099   5.279   6.047   2.615 -2.0372 -1.2666  1.3636
 5562TIP3   OH238100   0.901   2.313   3.146 -0.2880 -0.4710 -0.1528
 5562TIP3    H138101   0.988   2.350   3.133  0.1814 -1.3961  0.2826
 5562TIP3    H238102   0.883   2.265   3.065 -0.7310  0.3515 -0.5566
 5563TIP3   OH238103   1.323   5.011  13.023 -0.3206 -0.3805  0.0369
 5563TIP3    H138104   1.350   5.060  13.100 -0.7162  0.1808 -0.1699
 5563TIP3    H238105   1.272   4.938  13.058  0.1602 -0.5745  0.3407
 5564TIP3   OH238106   5.667   0.483  15.482 -0.4054  0.5937  0.5678
 5564TIP3    H138107   5.726   0.550  15.518 -1.2548  2.0720 -0.6699
 5564TIP3    H238108   5.590   0.487  15.539  0.5621 -1.2531  2.1110
 5565TIP3   OH238109   5.369   4.838  14.011 -0.4014 -0.5056 -0.6771
 5565TIP3    H138110   5.356   4.776  14.083 -0.9567 -0.5175 -0.7845
 5565TIP3    H238111   5.422   4.790  13.948  0.5267 -0.3263 -0.0608
 5566TIP3   OH238112   6.747   5.946  13.391 -0.4502 -1.0494  0.1006
 5566TIP3    H138113   6.693   5.996  13.330  1.0405 -0.3570 -0.7196
 5566TIP3    H238114   6.740   5.993  13.474  0.0989 -0.0351 -0.4006
 5567TIP3   OH238115   0.696   3.746  13.731  0.1027 -0.5218  0.9626
 5567TIP3    H138116   0.764   3.683  13.756  0.2011 -2.0119 -2.5114
 5567TIP3    H238117   0.744   3.816  13.687 -0.4720 -1.6112 -1.5644
 5568TIP3   OH238118   4.455   2.935  14.636  0.0405 -0.1046 -0.5986
 5568TIP3    H138119   4.474   3.028  14.625 -0.9227  0.4321  1.7295
 5568TIP3    H238120   4.496   2.911  14.719  0.2723 -1.7953 -1.1539
 5569TIP3   OH238121   4.609   4.372   5.398 -0.0408 -0.2068  0.2089
 5569TIP3    H138122   4.615   4.437   5.468 -1.8867 -1.6665  1.8097
 5569TIP3    H238123   4.533   4.398   5.347 -1.9886 -2.0461  1.9996
 5570TIP3   OH238124   2.394   0.765   4.200 -0.4789 -0.7462 -0.4510
 5570TIP3    H138125   2.338   0.841   4.185 -0.0849 -0.6415 -1.5491
 5570TIP3    H238126   2.378   0.708   4.124 -0.8478 -1.8145  0.4057
 5571TIP3   OH238127   3.953   3.685   2.424 -0.5127  0.0223  0.1701
 5571TIP3    H138128   3.882   3.749   2.438  0.7913  1.2776  1.3463
 5571TIP3    H238129   3.931   3.644   2.341 -1.5759  1.7835 -0.4889
 5572TIP3   OH238130   1.212   6.720   6.229 -0.1840  0.1229 -0.2202
 5572TIP3    H138131   1.194   6.812   6.213  0.0440  0.4124  1.0808
 5572TIP3    H238132   1.161   6.674   6.162 -0.8419  1.1618 -0.4597
 5573TIP3   OH238133   2.624   0.022  15.580 -0.4216 -0.5328  0.1419
 5573TIP3    H138134   2.659  -0.062  15.551 -0.5736 -0.8810  0.9364
 5573TIP3    H238135   2.681   0.087  15.540 -0.5394 -0.9996 -0.8056
 5574TIP3   OH238136   2.025   2.834  16.927 -0.9603  1.0998 -0.3725
 5574TIP3    H138137   1.951   2.810  16.982  0.1187 -1.2447  0.1731
 5574TIP3    H238138   2.050   2.752  16.883  1.3324  1.7907 -0.4872
 5575TIP3   OH238139   5.389   6.511  15.178  0.0485  0.5689  0.2751
 5575TIP3    H138140   5.418   6.602  15.177 -0.7095  0.8208 -0.0055
 5575TIP3    H238141   5.295   6.516  15.157 -0.2591 -0.1878  1.3727
 5576TIP3   OH238142   0.957   2.525  12.049 -0.3025  0.1300  0.2135
 5576TIP3    H138143   0.985   2.437  12.078 -0.9203 -0.4079 -0.7714
 5576TIP3    H238144   1.004   2.538  11.967 -0.5193  0.5704  0.1615
 5577TIP3   OH238145   5.899   3.120  11.756 -0.1651  0.4141 -0.3033
 5577TIP3    H138146   5.804   3.120  11.767 -0.2142  0.0591 -0.7183
 5577TIP3    H238147   5.915   3.064  11.680  0.4430 -0.3632  0.3730
 5578TIP3   OH238148   6.085   0.263   4.813 -0.1905 -0.1911 -0.1292
 5578TIP3    H138149   6.075   0.170   4.831  2.7658 -0.6265 -0.3546
 5578TIP3    H238150   6.065   0.306   4.897 -2.2241 -0.8923 -0.1959
 5579TIP3   OH238151   3.207   6.670  10.964 -1.0392  0.0443  0.0061
 5579TIP3    H138152   3.150   6.653  10.888 -1.4571  1.2718  0.0229
 5579TIP3    H238153   3.289   6.626  10.941 -0.3797  2.2141 -2.2200
 5580TIP3   OH238154   0.855   3.384   1.463 -0.3265  0.1577 -0.0793
 5580TIP3    H138155   0.827   3.437   1.538  0.0540  0.1663  0.0582
 5580TIP3    H238156   0.773   3.352   1.424 -0.5310  0.3022  0.2306
 5581TIP3   OH238157   6.586   5.865  15.004  0.3330  0.7132 -0.0673
 5581TIP3    H138158   6.536   5.832  14.929  0.3594  1.0621 -0.2389
 5581TIP3    H238159   6.529   5.932  15.043  0.6741  1.1252 -0.2732
 5582TIP3   OH238160   3.674   2.476   2.282  0.1811 -0.2347  0.0607
 5582TIP3    H138161   3.617   2.467   2.358  1.1098  0.0698  0.8164
 5582TIP3    H238162   3.636   2.417   2.217 -1.2121  0.2506  0.3902
 5583TIP3   OH238163   1.936   0.940  16.695  0.6810 -0.3329  0.4108
 5583TIP3    H138164   1.941   0.910  16.604 -1.3031  1.9816 -0.5782
 5583TIP3    H238165   2.027   0.961  16.718  0.9749  2.2554 -2.3223
 5584TIP3   OH238166   3.973   6.617  16.765 -0.2155  0.0870 -0.0296
 5584TIP3    H138167   3.926   6.605  16.682  0.3583 -2.2090 -0.0766
 5584TIP3    H238168   3.905   6.610  16.832 -0.1333 -2.6315 -0.1241
 5585TIP3   OH238169   2.283   0.673  14.431  0.0995 -0.3602 -0.4444
 5585TIP3    H138170   2.318   0.587  14.408  3.7106  0.3174  1.7244
 5585TIP3    H238171   2.200   0.654  14.475  1.2314 -2.8566  0.7912
 5586TIP3   OH238172   6.714   3.877   5.807  0.6582  0.1205  0.0362
 5586TIP3    H138173   6.707   3.797   5.756  0.2410 -0.4106  0.9237
 5586TIP3    H238174   6.776   3.857   5.876 -0.2074  0.2288  0.8680
 5587TIP3   OH238175   2.511   5.627   1.346  0.3976  0.1037 -0.1310
 5587TIP3    H138176   2.577   5.667   1.290  0.3448  0.8339  0.3090
 5587TIP3    H238177   2.440   5.602   1.286  0.5571  0.4167 -0.4541
 5588TIP3   OH238178   6.259   0.644  15.436  0.2413  0.3084  0.3197
 5588TIP3    H138179   6.324   0.580  15.464  0.1750  0.7568  1.5517
 5588TIP3    H238180   6.267   0.715  15.499 -0.2714  1.1394 -0.5275
 5589TIP3   OH238181   4.672   4.550   5.607  0.0666  0.1652  0.0028
 5589TIP3    H138182   4.739   4.614   5.583  1.5513 -0.4161  2.3031
 5589TIP3    H238183   4.652   4.569   5.698 -0.2639 -1.9399  0.4100
 5590TIP3   OH238184   1.792   4.848   0.350 -0.0022  0.0129  0.0122
 5590TIP3    H138185   1.784   4.939   0.320  1.6381 -0.6660 -2.9352
 5590TIP3    H238186   1.732   4.799   0.293  1.1196 -1.0254 -0.3252
 5591TIP3   OH238187   0.375   1.562  13.577  0.2242 -0.1018  0.2215
 5591TIP3    H138188   0.427   1.640  13.597 -0.5449  0.6030 -0.4160
 5591TIP3    H238189   0.346   1.576  13.486  0.1544 -1.1779  0.0677
 5592TIP3   OH238190   3.781   6.430  12.543  0.5052 -0.0798  0.5592
 5592TIP3    H138191   3.843   6.359  12.530 -0.2488 -0.6648  0.0167
 5592TIP3    H238192   3.812   6.476  12.621  1.5465 -0.4166  0.3576
 5593TIP3   OH238193   3.283   5.553  10.898 -0.1343 -0.0717 -0.2792
 5593TIP3    H138194   3.279   5.483  10.832 -1.1285 -0.7079  0.4209
 5593TIP3    H238195   3.310   5.631  10.849  0.8650 -0.9081 -1.1035
 5594TIP3   OH238196   1.595   3.548  12.946  0.3466 -0.5916  0.0466
 5594TIP3    H138197   1.654   3.532  13.019 -1.1305  0.1262  1.4719
 5594TIP3    H238198   1.560   3.636  12.962 -1.4511 -1.1628 -0.4391
 5595TIP3   OH238199   5.927   1.990   5.361 -0.0946 -0.6321  0.1861
 5595TIP3    H138200   6.011   1.996   5.315 -0.2210 -2.2695 -0.3101
 5595TIP3    H238201   5.870   2.051   5.314 -0.3947 -2.6675 -2.3205
 5596TIP3   OH238202   0.666   0.941  14.372  0.4760 -0.1037 -0.4345
 5596TIP3    H138203   0.596   0.966  14.312 -0.2666  1.3869  0.9599
 5596TIP3    H238204   0.678   0.847  14.357 -1.1043 -0.1827 -1.4499
 5597TIP3   OH238205   3.138   1.559   3.156 -0.1538  0.2022  0.0070
 5597TIP3    H138206   3.174   1.647   3.163 -1.5180  0.7898  0.0571
 5597TIP3    H238207   3.174   1.512   3.231  1.4773  0.3656 -0.6502
 5598TIP3   OH238208   5.715   4.792   0.698  0.4310 -0.1466  0.2940
 5598TIP3    H138209   5.756   4.833   0.623  0.2185  0.6685  0.6066
 5598TIP3    H238210   5.750   4.704   0.700  2.1619  0.5143  0.5480
 5599TIP3   OH238211   3.210   2.986   0.187  0.1904  0.3482 -0.3401
 5599TIP3    H138212   3.204   2.975   0.282 -1.2352 -2.6796 -0.6643
 5599TIP3    H238213   3.175   3.074   0.171  0.1416  0.7999  1.8898
 5600TIP3   OH238214   3.184   4.507   3.104  0.0071  0.5147  0.0557
 5600TIP3    H138215   3.093   4.522   3.078 -0.1645 -0.4126  0.1146
 5600TIP3    H238216   3.180   4.487   3.197  0.0138 -1.7244 -0.3848
 5601TIP3   OH238217   2.802   3.367   5.461  0.1483  0.0639  0.2649
 5601TIP3    H138218   2.858   3.306   5.413  0.9372  0.7561  0.2822
 5601TIP3    H238219   2.729   3.314   5.492  1.4042 -1.1387  1.2796
 5602TIP3   OH238220   0.130   1.602  12.131  0.1986 -0.0602 -0.3701
 5602TIP3    H138221   0.161   1.643  12.050  0.3608 -0.5106 -0.5394
 5602TIP3    H238222   0.035   1.594  12.119 -0.2890  2.7246  0.7753
 5603TIP3   OH238223   4.807   2.744  12.422  0.3172 -0.5421 -0.0385
 5603TIP3    H138224   4.808   2.820  12.480 -0.6661 -0.6332  0.1207
 5603TIP3    H238225   4.747   2.769  12.351  1.1548 -0.6030 -0.7824
 5604TIP3   OH238226   2.400   1.463   1.375 -0.1613 -0.2379  0.4096
 5604TIP3    H138227   2.383   1.409   1.452  0.8835 -0.7381  0.3046
 5604TIP3    H238228   2.321   1.516   1.365 -0.2689 -0.0991  1.8740
 5605TIP3   OH238229   4.906   5.944  14.915 -0.0456  0.4931 -0.5604
 5605TIP3    H138230   4.842   5.977  14.852 -1.1127  0.2832  0.3803
 5605TIP3    H238231   4.950   5.872  14.869 -0.1888  0.9071 -1.3626
 5606TIP3   OH238232   2.168   2.955   0.206  0.5506  0.2487 -0.2092
 5606TIP3    H138233   2.264   2.960   0.213  0.5014  0.6709  0.1867
 5606TIP3    H238234   2.153   2.895   0.133  1.0999 -1.3251  0.9102
 5607TIP3   OH238235   2.150   4.252   4.441 -0.3237 -0.4603  0.5023
 5607TIP3    H138236   2.178   4.325   4.497  0.6135 -0.1447 -0.3369
 5607TIP3    H238237   2.059   4.270   4.421 -0.2164  0.2564  0.6462
 5608TIP3   OH238238   0.376   2.862   0.783  0.4777 -0.0129 -0.0751
 5608TIP3    H138239   0.391   2.946   0.741 -0.8057 -0.6850 -2.0492
 5608TIP3    H238240   0.347   2.804   0.712  3.0551 -2.6673  0.8227
 5609TIP3   OH238241   0.217   1.966  10.410 -0.2499  0.2563  0.3986
 5609TIP3    H138242   0.164   1.891  10.384 -0.3543  0.2697  0.5724
 5609TIP3    H238243   0.159   2.020  10.463  0.1276 -0.0517  1.1420
 5610TIP3   OH238244   0.084   0.544   5.689 -0.9939  0.3964 -0.0411
 5610TIP3    H138245   0.046   0.589   5.613  1.7185  0.9077 -1.2326
 5610TIP3    H238246   0.124   0.465   5.652  1.2123  1.1381  0.6093
 5611TIP3   OH238247   3.342   2.522   1.005 -0.2809 -0.0627 -0.2348
 5611TIP3    H138248   3.361   2.434   0.973 -1.1516 -0.5859  0.6017
 5611TIP3    H238249   3.251   2.516   1.035  0.3591  0.4504  1.9686
 5612TIP3   OH238250   6.586   4.728   1.411  0.2583 -0.2992 -0.4264
 5612TIP3    H138251   6.670   4.751   1.370  1.0286 -2.2068 -0.0220
 5612TIP3    H238252   6.606   4.650   1.464 -1.8955 -1.1457 -0.7718
 5613TIP3   OH238253   6.274   0.557  13.710 -0.2107  0.1052 -0.3290
 5613TIP3    H138254   6.346   0.619  13.725  2.3941 -3.1459  2.2737
 5613TIP3    H238255   6.261   0.516  13.795 -3.6377 -1.1280 -1.3261
 5614TIP3   OH238256   4.501   1.893  15.962 -0.5284  0.3035 -0.6680
 5614TIP3    H138257   4.581   1.944  15.977  0.3618 -1.3606  0.7136
 5614TIP3    H238258   4.430   1.957  15.969  0.5594  1.4669  0.4032
 5615TIP3   OH238259   0.660   0.064  14.696 -0.1169  0.5771 -0.1780
 5615TIP3    H138260   0.659   0.065  14.791  0.0070  2.0023 -0.1788
 5615TIP3    H238261   0.618   0.146  14.670  1.3523  1.0141 -1.3177
 5616TIP3   OH238262   2.255   1.879  13.580 -0.7727 -0.4326 -0.3023
 5616TIP3    H138263   2.179   1.902  13.634  0.0589  3.0816 -0.3968
 5616TIP3    H238264   2.302   1.961  13.568  3.4945 -2.5307  0.2754
 5617TIP3   OH238265   2.224   4.278  15.010  0.4467  0.0690 -0.3517
 5617TIP3    H138266   2.275   4.275  15.090 -1.7289 -0.2958  1.1059
 5617TIP3    H238267   2.183   4.192  15.004 -1.0727  0.7790 -0.6810
 5618TIP3   OH238268   2.197   2.725   5.856 -0.2761  0.0797  0.2266
 5618TIP3    H138269   2.248   2.753   5.933 -0.3624 -0.1595  0.3726
 5618TIP3    H238270   2.139   2.656   5.890 -0.2568 -0.0824 -0.0731
 5619TIP3   OH238271   2.768   5.151  16.838  0.0600 -0.3831 -0.2885
 5619TIP3    H138272   2.822   5.184  16.910  0.4762  0.8240 -1.1289
 5619TIP3    H238273   2.706   5.221  16.819 -1.6370 -1.6044  0.4232
 5620TIP3   OH238274   3.276   0.899  11.899  0.0816 -0.3593 -0.3073
 5620TIP3    H138275   3.261   0.833  11.967 -3.6958  0.0514 -0.5076
 5620TIP3    H238276   3.294   0.847  11.820  2.0727 -0.9082  0.4529
 5621TIP3   OH238277   1.725   6.125  15.082 -0.1392 -0.2519  0.1972
 5621TIP3    H138278   1.634   6.095  15.077 -0.7309  1.3300  0.5487
 5621TIP3    H238279   1.723   6.191  15.152  1.7327 -1.6426  1.6705
 5622TIP3   OH238280   1.107   2.403  16.045 -0.0241  0.8193 -0.2682
 5622TIP3    H138281   1.036   2.350  16.007 -0.4077  1.1509 -0.0300
 5622TIP3    H238282   1.138   2.456  15.972  0.6698 -0.0476 -0.6170
 5623TIP3   OH238283   5.388   5.556   6.392  0.0005  0.6090 -0.3431
 5623TIP3    H138284   5.370   5.463   6.405 -1.1786  0.7040 -1.1376
 5623TIP3    H238285   5.402   5.590   6.480  2.2835 -0.6277 -0.1291
 5624TIP3   OH238286   1.300   1.356  16.285  0.1363 -0.6786 -0.1870
 5624TIP3    H138287   1.335   1.320  16.366 -0.4612 -1.0092 -0.0713
 5624TIP3    H238288   1.219   1.401  16.311  1.4569  1.8652 -0.1099
 5625TIP3   OH238289   0.559   4.178   1.975 -0.0357  0.4951 -0.1853
 5625TIP3    H138290   0.518   4.258   2.008 -1.0486 -0.0520 -0.0947
 5625TIP3    H238291   0.652   4.201   1.965 -0.2287  1.5279  0.3048
 5626TIP3   OH238292   4.635   1.214  15.385  0.6996 -0.8326 -0.1381
 5626TIP3    H138293   4.708   1.152  15.386 -0.7051 -2.5529  1.3473
 5626TIP3    H238294   4.655   1.276  15.456  0.4958 -1.5911  0.5897
 5627TIP3   OH238295   3.778   1.754   5.609  0.1905 -0.6033  0.6119
 5627TIP3    H138296   3.847   1.785   5.667 -1.0277 -2.7961  3.4175
 5627TIP3    H238297   3.696   1.776   5.654 -0.9141 -0.7068 -1.2141
 5628TIP3   OH238298   3.188   3.396   5.330 -0.5764  0.1026 -0.0196
 5628TIP3    H138299   3.168   3.450   5.254  1.0415 -1.5394 -1.7391
 5628TIP3    H238300   3.120   3.329   5.330 -1.5939  1.0867  1.0951
 5629TIP3   OH238301   0.576   4.797   4.875  0.0240  0.1083  0.0528
 5629TIP3    H138302   0.571   4.724   4.813 -1.7587  0.6262 -0.4542
 5629TIP3    H238303   0.670   4.813   4.884  0.4054 -1.3561 -0.8706
 5630TIP3   OH238304   1.473   5.516   1.556  0.4504 -1.1408  0.1037
 5630TIP3    H138305   1.538   5.586   1.565  0.9246 -1.7504  1.8357
 5630TIP3    H238306   1.482   5.465   1.636 -1.4978 -1.8261 -0.0614
 5631TIP3   OH238307   1.585   1.463  11.648  0.0885 -0.0297 -0.5518
 5631TIP3    H138308   1.587   1.559  11.637 -1.1794 -0.0756 -1.4960
 5631TIP3    H238309   1.493   1.443  11.665  0.2708 -1.1234 -0.7901
 5632TIP3   OH238310   4.272   0.973   6.186  0.2066  0.2553 -0.1781
 5632TIP3    H138311   4.208   0.914   6.227  0.3335 -0.0453 -0.4127
 5632TIP3    H238312   4.253   1.059   6.225  1.0050 -0.2061  1.3179
 5633TIP3   OH238313   4.136   0.585   5.738  0.0834 -0.4616  0.0147
 5633TIP3    H138314   4.101   0.668   5.769  0.2665  0.0852 -1.1870
 5633TIP3    H238315   4.084   0.518   5.783 -0.4506  0.3029  0.5481
 5634TIP3   OH238316   5.243   6.073   1.439 -0.2253 -0.9019 -0.2995
 5634TIP3    H138317   5.173   6.135   1.462 -0.5416 -1.6299  0.7659
 5634TIP3    H238318   5.316   6.098   1.496 -0.7212 -2.1752  0.9436
 5635TIP3   OH238319   6.226   2.207  16.976  0.5200 -0.4326  0.2314
 5635TIP3    H138320   6.311   2.236  17.008 -0.1113  2.1264 -0.2267
 5635TIP3    H238321   6.185   2.162  17.050  2.2362 -1.7199  0.4456
 5636TIP3   OH238322   0.425   0.190  14.425 -0.1584 -0.5705 -0.1621
 5636TIP3    H138323   0.470   0.181  14.341  0.4520 -0.3486  0.1363
 5636TIP3    H238324   0.379   0.274  14.419 -0.8461 -0.9635 -0.6030
 5637TIP3   OH238325   0.345   1.221   0.022  0.8776 -0.0124 -0.0430
 5637TIP3    H138326   0.339   1.126   0.029  0.6384  0.0788  1.3782
 5637TIP3    H238327   0.256   1.252   0.039  1.1443  0.4914  0.4911
 5638TIP3   OH238328   4.544   1.342   1.288  0.0312  0.1547 -0.0624
 5638TIP3    H138329   4.589   1.340   1.204 -1.2504 -4.7251 -0.9964
 5638TIP3    H238330   4.595   1.283   1.344 -0.5869  1.2251  1.7170
 5639TIP3   OH238331   4.922   1.434  16.362  0.2087  0.2491 -0.2720
 5639TIP3    H138332   4.871   1.429  16.282  0.3073 -0.7238 -0.2767
 5639TIP3    H238333   5.009   1.463  16.333  0.5574 -1.1515 -0.6625
 5640TIP3   OH238334   5.701   1.774  11.604  0.8852  0.5036  0.2053
 5640TIP3    H138335   5.640   1.845  11.585  0.8643  0.4070 -0.0968
 5640TIP3    H238336   5.766   1.813  11.662 -1.2612 -0.2212  3.3065
 5641TIP3   OH238337   0.051   0.089   2.252 -0.1278 -0.0910  0.4562
 5641TIP3    H138338   0.062   0.063   2.344  1.5039  1.1376  0.6628
 5641TIP3    H238339   0.038   0.184   2.255 -3.6830 -0.4298 -0.4210
 5642TIP3   OH238340   0.210   3.157   2.295 -0.3545 -0.3615 -0.7394
 5642TIP3    H138341   0.150   3.082   2.291  0.8655 -1.3927 -0.2436
 5642TIP3    H238342   0.220   3.175   2.388 -1.9159  1.5211 -0.8709
 5643TIP3   OH238343   6.487   6.762   3.730  0.3682 -0.0195 -0.1119
 5643TIP3    H138344   6.524   6.848   3.717 -1.2062  0.5991 -0.7848
 5643TIP3    H238345   6.440   6.768   3.814 -0.6899  0.1524 -0.6997
 5644TIP3   OH238346   6.140   4.968   4.331  0.2191  0.2835 -0.2641
 5644TIP3    H138347   6.197   5.039   4.360  1.0150 -0.2266 -0.5288
 5644TIP3    H238348   6.195   4.889   4.339 -0.4827 -0.2315 -0.4420
 5645TIP3   OH238349   2.902   4.395   4.124 -0.0158  0.1890 -0.4081
 5645TIP3    H138350   2.811   4.377   4.145 -0.0919  1.4437  0.4158
 5645TIP3    H238351   2.899   4.465   4.059  0.3482  0.7853  0.1932
 5646TIP3   OH238352   5.230   1.377  16.963  0.0811 -0.3959  0.5059
 5646TIP3    H138353   5.322   1.387  16.939 -0.4968 -0.4236 -1.9550
 5646TIP3    H238354   5.193   1.465  16.954  0.0750 -0.1214  2.7105
 5647TIP3   OH238355   5.128   3.255  13.254 -0.5998  0.1895 -0.0525
 5647TIP3    H138356   5.146   3.349  13.257  0.3134  0.0383 -0.3836
 5647TIP3    H238357   5.215   3.214  13.249 -1.0073 -0.5679 -2.3523
 5648TIP3   OH238358   4.706   6.736   3.324 -0.6448 -0.1944  0.2199
 5648TIP3    H138359   4.675   6.790   3.397 -1.1622  0.5704 -0.5513
 5648TIP3    H238360   4.780   6.688   3.360 -0.5663  0.5657  1.1048
 5649TIP3   OH238361   0.184   4.807  14.785  0.3472 -0.0798 -0.3274
 5649TIP3    H138362   0.088   4.807  14.791  0.3839  0.5381  0.3234
 5649TIP3    H238363   0.214   4.832  14.872  1.1376 -1.4590 -0.1797
 5650TIP3   OH238364   3.811   5.376   2.868 -0.1665  0.1823 -0.3011
 5650TIP3    H138365   3.842   5.305   2.925  0.4733  0.3011 -0.4947
 5650TIP3    H238366   3.722   5.394   2.898 -0.8649 -1.6438 -1.1175
 5651TIP3   OH238367   6.054   6.129   6.810 -0.3115  0.1517 -0.3998
 5651TIP3    H138368   6.111   6.202   6.785 -1.2322  0.8965 -0.3999
 5651TIP3    H238369   6.099   6.051   6.778  1.5758  0.5337  1.1360
 5652TIP3   OH238370   2.019   0.229   5.702 -0.0553 -0.8515  0.1294
 5652TIP3    H138371   2.083   0.161   5.724 -1.8966 -2.7417 -0.0371
 5652TIP3    H238372   1.942   0.208   5.755 -0.8951  0.8144 -0.3350
 5653TIP3   OH238373   0.064   2.149   5.342  0.2116  0.0509 -0.3371
 5653TIP3    H138374   0.130   2.081   5.334  2.3109  2.0255 -1.1498
 5653TIP3    H238375   0.015   2.127   5.420  1.4573 -1.8464 -0.0332
 5654TIP3   OH238376   1.895   5.908  13.367 -0.1122  0.5718  0.0255
 5654TIP3    H138377   1.810   5.909  13.411  0.4696 -0.4301  1.2275
 5654TIP3    H238378   1.874   5.881  13.277 -1.4471  3.6849 -0.7349
 5655TIP3   OH238379   3.442   6.142  14.583  0.5077  0.5338 -0.0640
 5655TIP3    H138380   3.500   6.067  14.593  2.5880  1.8478 -1.5686
 5655TIP3    H238381   3.451   6.191  14.665  1.0920  0.4217 -0.0586
 5656TIP3   OH238382   3.605   3.961   5.365 -0.1246 -0.6878 -0.4068
 5656TIP3    H138383   3.600   3.869   5.391 -0.2218 -1.0396 -1.5987
 5656TIP3    H238384   3.658   3.960   5.284 -0.1707  0.2940 -0.4646
 5657TIP3   OH238385   3.471   6.332  13.277 -0.1591  0.4081 -0.0077
 5657TIP3    H138386   3.475   6.293  13.190  1.0947  0.4583  0.0224
 5657TIP3    H238387   3.562   6.338  13.306 -0.2804  3.2094  0.0493
 5658TIP3   OH238388   4.778   4.472   4.974 -1.0231  0.2475  0.4539
 5658TIP3    H138389   4.693   4.501   4.941 -0.4254 -0.2645 -1.6312
 5658TIP3    H238390   4.815   4.420   4.904  0.6567 -0.2914  1.6800
 5659TIP3   OH238391   1.650   0.024   4.095  0.1101 -0.7614 -0.5154
 5659TIP3    H138392   1.710   0.016   4.021 -0.0333 -0.1683 -0.7056
 5659TIP3    H238393   1.699   0.076   4.159 -0.3351  0.0625 -0.8303
 5660TIP3   OH238394   3.858   0.724  17.354  0.2234 -0.2858 -0.0982
 5660TIP3    H138395   3.862   0.654  17.289 -1.4898 -0.5497  0.0511
 5660TIP3    H238396   3.776   0.770  17.337 -0.7497 -0.9196  2.3876
 5661TIP3   OH238397   1.875   5.599   3.922 -0.3482  0.4405  0.2084
 5661TIP3    H138398   1.814   5.644   3.864 -1.4919 -0.1700  0.8867
 5661TIP3    H238399   1.823   5.579   4.000  0.1851 -1.7593  0.0672
 5662TIP3   OH238400   0.318   0.296  16.860  0.2234  0.4816 -1.0640
 5662TIP3    H138401   0.404   0.311  16.900  0.5068  1.6817 -2.0457
 5662TIP3    H238402   0.319   0.352  16.782 -1.6490  0.9106 -0.8135
 5663TIP3   OH238403   1.636   2.602   0.846 -0.0881 -0.0586  0.2618
 5663TIP3    H138404   1.674   2.557   0.771 -3.3395  0.2035 -1.7325
 5663TIP3    H238405   1.707   2.658   0.879  2.0658 -1.7394 -1.2437
 5664TIP3   OH238406   4.884   0.875  10.540 -0.3855  0.3959 -0.4952
 5664TIP3    H138407   4.823   0.949  10.539  0.0384  0.7782  0.4818
 5664TIP3    H238408   4.970   0.915  10.529 -0.1385  0.0789  0.2237
 5665TIP3   OH238409   3.850   1.000  11.903 -0.0308 -0.4023 -0.8895
 5665TIP3    H138410   3.798   1.080  11.915  1.2436  0.2057  1.0157
 5665TIP3    H238411   3.904   0.995  11.981  2.8380 -0.9590 -2.7658
 5666TIP3   OH238412   2.019   4.110  14.472 -0.1599 -0.0364  0.2456
 5666TIP3    H138413   2.063   4.132  14.553 -0.1157  0.4894  0.0828
 5666TIP3    H238414   2.088   4.076  14.415  0.0998  1.0436 -0.1051
 5667TIP3   OH238415   4.119   5.000  11.120  0.2897  0.0844 -0.3871
 5667TIP3    H138416   4.032   5.028  11.094 -1.5949 -0.2709  4.4871
 5667TIP3    H238417   4.105   4.920  11.171  3.2546  0.6229  1.5539
 5668TIP3   OH238418   4.054   2.187  13.723 -0.0213 -0.3585  0.0620
 5668TIP3    H138419   4.141   2.152  13.708 -0.1580 -1.1480  1.0247
 5668TIP3    H238420   4.066   2.281  13.730  0.8214 -0.5087  0.6636
 5669TIP3   OH238421   1.413   3.420  17.010 -0.3097 -0.1150  0.3971
 5669TIP3    H138422   1.325   3.436  16.975  0.2776  0.4971 -0.8802
 5669TIP3    H238423   1.407   3.445  17.102 -1.4926 -0.1509  0.3419
 5670TIP3   OH238424   5.670   3.399   4.139  0.0882 -0.5099 -0.1116
 5670TIP3    H138425   5.637   3.367   4.055 -0.9230 -2.6611  0.9877
 5670TIP3    H238426   5.656   3.325   4.199  0.8860  0.8917  1.9162
 5671TIP3   OH238427   4.945   3.166  11.324  0.0937  0.3264  0.1482
 5671TIP3    H138428   4.881   3.195  11.259  0.7303  0.0420 -0.6220
 5671TIP3    H238429   5.029   3.183  11.283  0.4996 -1.6628  0.0761
 5672TIP3   OH238430   3.352   6.353  10.263 -0.2953 -0.2471  0.5487
 5672TIP3    H138431   3.266   6.310  10.266 -1.0729  1.2582  0.5014
 5672TIP3    H238432   3.346   6.424  10.327  1.0171 -0.2854  0.7425
 5673TIP3   OH238433   2.670   6.415  13.592 -0.1022 -0.3328  0.4950
 5673TIP3    H138434   2.631   6.362  13.662  1.3158 -0.5735  1.1370
 5673TIP3    H238435   2.673   6.357  13.517 -0.9145 -0.3259  0.4502
 5674TIP3   OH238436   3.764   0.871  12.665  0.1262  0.2139  0.3846
 5674TIP3    H138437   3.752   0.933  12.736 -1.7992  0.6480 -0.2610
 5674TIP3    H238438   3.715   0.793  12.693  2.5947 -1.1215  1.2312
 5675TIP3   OH238439   3.493   1.260   0.462 -0.5175 -0.0814 -0.1513
 5675TIP3    H138440   3.550   1.205   0.516 -1.2412 -0.0234  0.6892
 5675TIP3    H238441   3.536   1.262   0.376 -0.4724 -1.9396 -0.1979
 5676TIP3   OH238442   0.229   6.089   2.097  0.1477 -0.2274  0.0695
 5676TIP3    H138443   0.173   6.025   2.054  1.1458 -0.7855 -0.4225
 5676TIP3    H238444   0.268   6.139   2.026  0.4155  0.0329  0.3963
 5677TIP3   OH238445   3.143   6.205  14.923 -0.3737  0.0377 -0.2240
 5677TIP3    H138446   3.139   6.115  14.893  0.1340  0.3927 -1.4119
 5677TIP3    H238447   3.055   6.239  14.909 -0.3555 -0.0401 -0.5259
 5678TIP3   OH238448   6.221   3.480  16.882 -0.2183  0.5751  0.1977
 5678TIP3    H138449   6.236   3.422  16.807  0.9733  1.5339 -0.3317
 5678TIP3    H238450   6.303   3.527  16.894 -0.1979  0.1209  2.4319
 5679TIP3   OH238451   2.257   1.643   3.484  0.2762 -0.3083  0.3452
 5679TIP3    H138452   2.273   1.723   3.535  1.5948  0.1706 -0.7614
 5679TIP3    H238453   2.274   1.572   3.545  2.6753  0.2368  0.3984
 5680TIP3   OH238454   2.700   1.590   4.067  0.1012  0.5852  0.5629
 5680TIP3    H138455   2.755   1.562   4.141 -0.2550 -1.7890  0.0029
 5680TIP3    H238456   2.674   1.508   4.024 -1.1294  1.8242 -1.1775
 5681TIP3   OH238457   6.233   6.494  13.138  0.1844 -0.3883  0.6581
 5681TIP3    H138458   6.315   6.448  13.122 -0.2118 -1.6041  1.9001
 5681TIP3    H238459   6.187   6.439  13.202 -1.4260  0.4577  0.2822
 5682TIP3   OH238460   4.649   5.805   6.576  0.1331  0.1128 -0.1214
 5682TIP3    H138461   4.694   5.721   6.579  0.8726  0.4068 -1.8505
 5682TIP3    H238462   4.556   5.783   6.573  0.3405 -0.7110 -1.4619
 5683TIP3   OH238463   2.390   3.985  17.260  0.2739  0.5161 -0.4944
 5683TIP3    H138464   2.406   3.905  17.209  2.0644 -0.8428  1.9409
 5683TIP3    H238465   2.336   4.039  17.204  0.5641 -1.6180 -3.0357
 5684TIP3   OH238466   3.368   4.406  11.796  0.1849  0.4589  0.8154
 5684TIP3    H138467   3.308   4.366  11.733  1.7144 -1.5689  0.5782
 5684TIP3    H238468   3.415   4.473  11.745 -0.6920  0.9325  0.6011
 5685TIP3   OH238469   4.604   2.791  14.450 -0.8606  0.4384 -0.3401
 5685TIP3    H138470   4.648   2.875  14.439 -0.2219  0.1724  0.1358
 5685TIP3    H238471   4.540   2.807  14.520 -0.3114  0.3744  0.1870
 5686TIP3   OH238472   5.247   0.750  11.599  0.1041 -0.2382  0.6150
 5686TIP3    H138473   5.170   0.695  11.593 -0.3763  0.3447  1.3678
 5686TIP3    H238474   5.299   0.712  11.670  0.7715 -0.9314 -0.2194
 5687TIP3   OH238475   0.962   2.353  13.451 -0.5705  0.2910  0.1828
 5687TIP3    H138476   0.925   2.265  13.446  0.4036 -0.1579  0.5018
 5687TIP3    H238477   0.973   2.369  13.544 -0.3282  0.5618  0.1097
 5688TIP3   OH238478   2.222   3.023   6.249 -0.3965  0.3480  0.2292
 5688TIP3    H138479   2.237   3.107   6.206  0.6229 -0.1356 -0.3822
 5688TIP3    H238480   2.153   3.042   6.313 -0.1695  1.6542  0.1260
 5689TIP3   OH238481   0.077   0.080   1.412  0.2748  0.3194  0.3456
 5689TIP3    H138482   0.046   0.066   1.323  0.4862  0.6898  0.2094
 5689TIP3    H238483   0.001   0.117   1.458  0.7431  2.0425 -0.2101
 5690TIP3   OH238484   1.683   2.599  16.567  0.0537 -0.0778  0.5203
 5690TIP3    H138485   1.676   2.572  16.658  3.0927 -1.1294  0.5588
 5690TIP3    H238486   1.762   2.653  16.563  0.3780 -0.5888 -1.5715
 5691TIP3   OH238487   3.309   6.045   0.624  0.2762  0.0148 -0.0442
 5691TIP3    H138488   3.243   6.012   0.563  0.4576  0.1528 -0.3169
 5691TIP3    H238489   3.366   5.969   0.640  1.1804  0.3926 -1.3180
 5692TIP3   OH238490   5.556   6.538   4.996 -0.3447  0.1680  0.4325
 5692TIP3    H138491   5.590   6.621   5.028  1.6382  0.1712 -1.4335
 5692TIP3    H238492   5.615   6.472   5.032  1.8926  0.1650 -2.7601
 5693TIP3   OH238493   5.858   6.657   0.181  0.5847 -0.6145 -0.0506
 5693TIP3    H138494   5.936   6.678   0.233  1.5387 -0.6297 -1.4273
 5693TIP3    H238495   5.814   6.588   0.231  1.3544 -0.5024  0.8183
 5694TIP3   OH238496   0.829   6.165   3.327  0.1228  0.2873  0.2763
 5694TIP3    H138497   0.835   6.121   3.412 -0.7035 -1.2320 -0.4010
 5694TIP3    H238498   0.746   6.135   3.291  0.8012  0.3097 -1.3758
 5695TIP3   OH238499   4.664   0.828  12.996 -0.1640 -0.1494 -0.0171
 5695TIP3    H138500   4.727   0.852  12.928  0.6697 -1.8582  0.1254
 5695TIP3    H238501   4.585   0.876  12.972  0.6226  0.5961 -1.2379
 5696TIP3   OH238502   1.073   0.144  13.548 -0.7520 -0.8018  0.0754
 5696TIP3    H138503   1.131   0.106  13.613  1.1876  0.0706 -1.0496
 5696TIP3    H238504   1.042   0.225  13.587  1.8986  0.6910 -0.6744
 5697TIP3   OH238505   3.799   5.646  14.713 -0.4943 -0.4930 -0.2212
 5697TIP3    H138506   3.774   5.732  14.680  0.0874 -0.5702 -0.9007
 5697TIP3    H238507   3.716   5.601  14.729 -0.7994  0.2163  0.2072
 5698TIP3   OH238508   6.473   6.528  14.899 -0.0093 -0.1978  0.0394
 5698TIP3    H138509   6.426   6.607  14.925 -1.4272 -1.5694  1.9398
 5698TIP3    H238510   6.556   6.533  14.946  0.4534  0.6859 -0.8126
 5699TIP3   OH238511   3.006   4.065  16.576 -0.9551 -0.1366  0.2270
 5699TIP3    H138512   3.045   4.129  16.516  0.2006 -0.9685  0.0382
 5699TIP3    H238513   3.051   4.080  16.659 -1.1694 -0.2507  0.3628
 5700TIP3   OH238514   3.182   4.738  14.100  0.2300  0.3210  0.2969
 5700TIP3    H138515   3.222   4.825  14.099  1.5926 -0.2454  1.7376
 5700TIP3    H238516   3.091   4.753  14.073  0.7088  2.0299 -0.4864
 5701TIP3   OH238517   5.267   2.366   5.344  0.2804 -0.4680 -0.5288
 5701TIP3    H138518   5.248   2.310   5.269  0.7503 -0.5055 -0.6218
 5701TIP3    H238519   5.327   2.315   5.399  0.6985 -0.0688 -0.6041
 5702TIP3   OH238520   5.596   1.224  14.335 -0.5533 -0.0652  0.0293
 5702TIP3    H138521   5.582   1.316  14.354  0.8417  0.0770  0.4114
 5702TIP3    H238522   5.510   1.193  14.304 -1.1291  1.2516  0.2526
 5703TIP3   OH238523   6.188   3.238   6.577 -0.2920 -0.5272 -0.1235
 5703TIP3    H138524   6.158   3.162   6.628  0.3953 -1.3724 -0.9409
 5703TIP3    H238525   6.107   3.276   6.542 -0.6653 -0.7286  0.5025
 5704TIP3   OH238526   6.326   4.025   4.074 -0.2728  0.0493  0.2787
 5704TIP3    H138527   6.292   4.084   4.141 -0.5082  1.6250 -1.1584
 5704TIP3    H238528   6.286   4.056   3.993  1.1513 -0.8555 -0.8106
 5705TIP3   OH238529   5.297   2.026  17.006  0.4112  0.0539  1.0160
 5705TIP3    H138530   5.246   2.086  17.061  1.5143 -0.5267  2.7439
 5705TIP3    H238531   5.374   2.078  16.980 -0.2664  0.4417 -0.3545
 5706TIP3   OH238532   1.219   3.193   2.906  0.1000 -0.1327  0.4270
 5706TIP3    H138533   1.151   3.254   2.934  0.2277 -0.9811  2.7609
 5706TIP3    H238534   1.298   3.221   2.953  1.7813  1.4625 -2.9623
 5707TIP3   OH238535   1.396   4.226   0.411  0.4399  0.0500 -0.4449
 5707TIP3    H138536   1.350   4.142   0.416 -0.2446  0.4707  0.3772
 5707TIP3    H238537   1.414   4.237   0.318 -1.3205 -0.0175 -0.8283
 5708TIP3   OH238538   0.870   0.447  11.271  0.0482  0.6250  0.6599
 5708TIP3    H138539   0.929   0.522  11.284  0.4549  0.1904  1.4210
 5708TIP3    H238540   0.918   0.373  11.308  0.1012 -0.2333 -1.0237
 5709TIP3   OH238541   3.577   0.620   3.543  0.6515  0.0245 -0.3656
 5709TIP3    H138542   3.647   0.555   3.534  1.1096  0.5238 -0.5080
 5709TIP3    H238543   3.516   0.600   3.473  0.3245 -0.8092  0.1474
 5710TIP3   OH238544   5.220   1.008   5.009  0.3444  0.5691  0.3854
 5710TIP3    H138545   5.228   1.013   4.914  0.0668 -0.7403  0.2791
 5710TIP3    H238546   5.201   1.098   5.036 -0.1981  0.8449 -0.8480
 5711TIP3   OH238547   4.293   6.677   5.583  0.2277 -0.2346  0.1548
 5711TIP3    H138548   4.282   6.770   5.603 -1.1239  0.0551 -1.6504
 5711TIP3    H238549   4.237   6.632   5.646 -0.8497  0.3658 -0.3314
 5712TIP3   OH238550   3.311   1.025  14.673 -0.1702 -0.8318  0.5938
 5712TIP3    H138551   3.270   0.969  14.608 -0.6636  1.1260 -0.8786
 5712TIP3    H238552   3.402   1.032  14.645  0.2273 -1.9010  1.5346
 5713TIP3   OH238553   3.433   6.747   3.668  0.3553 -0.3315 -0.6795
 5713TIP3    H138554   3.481   6.779   3.592 -0.8751  0.0342 -1.3430
 5713TIP3    H238555   3.393   6.666   3.638 -0.2205 -0.1322 -0.4692
 5714TIP3   OH238556   6.257   2.493   1.709  0.2896 -0.0060 -0.3509
 5714TIP3    H138557   6.340   2.540   1.724  0.5496 -0.5463 -0.0919
 5714TIP3    H238558   6.223   2.476   1.796 -0.1877  0.3642 -0.4600
 5715TIP3   OH238559   1.187   1.214  15.063  0.3795  0.4849 -0.1425
 5715TIP3    H138560   1.142   1.252  14.988 -0.8279  0.5111  0.5735
 5715TIP3    H238561   1.270   1.261  15.067 -0.4440  1.9920 -0.1815
 5716TIP3   OH238562   5.382   1.144  15.156 -0.1512 -0.0665  0.0246
 5716TIP3    H138563   5.424   1.061  15.134 -0.7162 -0.5027  0.5845
 5716TIP3    H238564   5.455   1.203  15.175  0.3093 -0.0842 -1.5061
 5717TIP3   OH238565   5.062   1.172  17.344  0.2208  0.1663 -0.3382
 5717TIP3    H138566   5.106   1.166  17.259  0.5594 -2.2121 -0.0467
 5717TIP3    H238567   5.132   1.185  17.407  0.2365 -0.6466 -0.1785
 5718TIP3   OH238568   5.239   1.333   5.398 -0.2345  0.4789  0.3170
 5718TIP3    H138569   5.238   1.243   5.431  1.4218  0.7029  1.0728
 5718TIP3    H238570   5.161   1.374   5.434 -0.6545 -0.4633  0.4979
 5719TIP3   OH238571   2.671   0.906   3.110  0.2336  0.3866  0.1173
 5719TIP3    H138572   2.764   0.915   3.130  0.1532  0.1611  0.6190
 5719TIP3    H238573   2.669   0.858   3.027  0.5849  1.7417 -0.7084
 5720TIP3   OH238574   4.893   6.383   0.026 -0.1256 -0.6055  0.2900
 5720TIP3    H138575   4.882   6.291   0.004 -1.6879 -0.0370 -1.6022
 5720TIP3    H238576   4.855   6.430  -0.049 -0.1613  1.5744  1.5953
 5721TIP3   OH238577   4.046   0.732   6.183 -0.0989 -0.3076 -0.4294
 5721TIP3    H138578   4.030   0.781   6.264  1.7206 -0.6143  0.1653
 5721TIP3    H238579   4.080   0.648   6.212  2.6841  0.3529 -1.4627
 5722TIP3   OH238580   5.794   0.734  17.231 -0.6238  0.0974  0.0643
 5722TIP3    H138581   5.820   0.825  17.229 -2.1510  0.5581 -2.2986
 5722TIP3    H238582   5.826   0.697  17.149 -1.3861 -1.0692  0.2613
 5723TIP3   OH238583   4.900   5.928  10.460 -0.3974  0.1673  0.1430
 5723TIP3    H138584   4.860   5.881  10.387  0.1693 -0.1945  0.0617
 5723TIP3    H238585   4.965   5.868  10.495  0.0745  0.7383  0.2744
 5724TIP3   OH238586   6.303   3.668   4.834  0.1864  0.0492  0.0301
 5724TIP3    H138587   6.275   3.576   4.832  1.3516 -0.3212  0.0991
 5724TIP3    H238588   6.230   3.716   4.795 -1.1250 -0.7149  1.4085
 5725TIP3   OH238589   5.351   1.655   1.289  0.9065  0.0833 -0.4640
 5725TIP3    H138590   5.351   1.686   1.380  2.2268  2.0666 -1.0744
 5725TIP3    H238591   5.421   1.590   1.287 -0.2889 -1.2911  0.2881
 5726TIP3   OH238592   0.183   3.399   1.237 -0.5685 -0.7398 -0.3766
 5726TIP3    H138593   0.184   3.494   1.243  0.7624 -0.7655  0.1182
 5726TIP3    H238594   0.272   3.372   1.257 -1.6566 -2.3182  3.3057
 5727TIP3   OH238595   1.899   4.300   4.365 -0.0391  0.1671  0.3787
 5727TIP3    H138596   1.819   4.343   4.395 -0.0061  2.3989 -2.3134
 5727TIP3    H238597   1.880   4.274   4.275  1.8529 -0.3946  0.0992
 5728TIP3   OH238598   6.179   6.138   5.818 -0.4906  0.0827 -0.1284
 5728TIP3    H138599   6.239   6.120   5.746 -0.6182 -1.4711  0.1209
 5728TIP3    H238600   6.112   6.070   5.812 -0.1569 -0.4878  1.8147
 5729TIP3   OH238601   3.799   4.287  17.340 -0.0316 -0.4290  0.2923
 5729TIP3    H138602   3.783   4.380  17.358  1.4706  0.1263 -0.9175
 5729TIP3    H238603   3.831   4.252  17.423 -0.9056  0.0452  0.8464
 5730TIP3   OH238604   6.095   5.752  17.305 -0.3458 -0.2211  0.0593
 5730TIP3    H138605   6.188   5.748  17.329 -0.1389 -1.8674 -0.8866
 5730TIP3    H238606   6.094   5.798  17.221 -0.5216  0.8177  0.6179
 5731TIP3   OH238607   3.525   3.136   5.891  0.6642 -0.6999  0.0489
 5731TIP3    H138608   3.590   3.180   5.836 -0.8224  1.8544  0.1563
 5731TIP3    H238609   3.497   3.203   5.954 -2.3374 -1.4728 -0.2787
 5732TIP3   OH238610   2.460   5.880  10.347 -0.0221 -0.5200  0.0940
 5732TIP3    H138611   2.514   5.885  10.268 -0.1719  1.5723  0.0595
 5732TIP3    H238612   2.373   5.908  10.319 -0.3644 -0.8572  0.7788
 5733TIP3   OH238613   2.013   6.738  14.028  0.0907 -0.1862  0.1184
 5733TIP3    H138614   1.981   6.816  13.984  0.3144 -0.4758 -0.5859
 5733TIP3    H238615   1.974   6.740  14.115  0.5615  1.0072  0.3147
 5734TIP3   OH238616   1.829   4.701   0.008  0.7093 -0.0574 -0.2399
 5734TIP3    H138617   1.883   4.652   0.071 -0.4467 -0.0482  0.7894
 5734TIP3    H238618   1.892   4.736  -0.055  2.1534  1.3628  1.8446
 5735TIP3   OH238619   4.794   3.317  11.835  0.2820  0.2196 -0.4510
 5735TIP3    H138620   4.845   3.245  11.872  1.2223  0.1770 -1.7706
 5735TIP3    H238621   4.756   3.281  11.755  1.1875  1.3305 -1.4046
 5736TIP3   OH238622   1.708   5.587  11.390  0.2917 -0.3730 -0.0540
 5736TIP3    H138623   1.632   5.615  11.339 -0.5601  0.4839  1.6114
 5736TIP3    H238624   1.782   5.632  11.349  0.3588 -2.8138 -3.0267
 5737TIP3   OH238625   2.846   5.813   3.032 -0.6451 -0.1289 -0.3117
 5737TIP3    H138626   2.841   5.797   2.938 -0.3782 -1.4537 -0.1320
 5737TIP3    H238627   2.925   5.866   3.043 -1.7332  1.7134 -0.9955
 5738TIP3   OH238628   4.902   5.324  15.132  0.1464  0.2508  0.3215
 5738TIP3    H138629   4.895   5.412  15.169  0.9094  0.5681 -0.2718
 5738TIP3    H238630   4.916   5.267  15.207  2.0250  0.9235  0.5170
 5739TIP3   OH238631   1.626   0.378   4.179  0.2837 -0.2989 -0.3510
 5739TIP3    H138632   1.597   0.468   4.163 -0.7866 -0.6826 -0.6603
 5739TIP3    H238633   1.562   0.343   4.240  1.7656 -0.2906  1.2771
 5740TIP3   OH238634   2.909   1.746  17.222  0.1113  0.0669  0.4972
 5740TIP3    H138635   2.838   1.809  17.208  0.6562  0.6336  0.2529
 5740TIP3    H238636   2.892   1.676  17.159 -1.2859 -0.7488  1.6960
 5741TIP3   OH238637   4.246   3.321  14.461  0.3819 -0.4230 -0.1922
 5741TIP3    H138638   4.317   3.313  14.525 -0.5327  1.6761  1.2196
 5741TIP3    H238639   4.288   3.357  14.383  1.0976 -0.5318  0.1329
 5742TIP3   OH238640   3.635   4.742  11.466  0.1134 -0.1099 -0.6440
 5742TIP3    H138641   3.588   4.691  11.400  1.3466 -2.6317  0.3058
 5742TIP3    H238642   3.664   4.821  11.420 -2.0343 -0.0931 -2.1247
 5743TIP3   OH238643   3.173   4.837  12.694 -0.2289  0.4517  0.0199
 5743TIP3    H138644   3.218   4.816  12.613  0.3267 -0.4132  0.5305
 5743TIP3    H238645   3.222   4.789  12.761 -2.2939 -1.0892  0.5203
 5744TIP3   OH238646   4.097   4.091   0.003 -0.4137  0.2181  0.1298
 5744TIP3    H138647   4.161   4.124  -0.060  0.4023 -0.8244  0.3846
 5744TIP3    H238648   4.057   4.169   0.040  1.7828  0.9494  1.0627
 5745TIP3   OH238649   3.921   6.638  11.047  0.0054  0.5186  0.3637
 5745TIP3    H138650   3.834   6.600  11.034  0.0712  0.5834 -0.3106
 5745TIP3    H238651   3.954   6.652  10.959  0.1857  1.7037  0.6032
 5746TIP3   OH238652   5.993   2.425   2.457  0.2682 -0.3536 -0.4228
 5746TIP3    H138653   5.918   2.459   2.504  1.0570 -0.5605  1.0298
 5746TIP3    H238654   5.982   2.330   2.458  1.2239 -0.4720  1.0146
 5747TIP3   OH238655   0.073   5.117   3.985 -0.4932  0.4330 -0.3486
 5747TIP3    H138656   0.159   5.157   3.997  0.5285 -1.5189 -0.7081
 5747TIP3    H238657   0.048   5.140   3.896 -0.7946  1.7930  0.0750
 5748TIP3   OH238658   0.039   2.640   4.044  0.5365  0.3005 -0.1223
 5748TIP3    H138659  -0.004   2.555   4.034 -1.7276  1.5418 -1.9407
 5748TIP3    H238660   0.094   2.649   3.966  0.5308  0.6090 -0.0951
 5749TIP3   OH238661   0.689   2.002   3.469 -0.0653 -0.0244 -0.2642
 5749TIP3    H138662   0.642   2.005   3.386 -1.2083  2.3936  0.3738
 5749TIP3    H238663   0.734   2.087   3.474 -2.2216  1.1061  2.7321
 5750TIP3   OH238664   4.866   4.302   1.824 -0.3675  0.3377  0.1544
 5750TIP3    H138665   4.783   4.323   1.867 -0.5839 -0.2966  0.0566
 5750TIP3    H238666   4.899   4.386   1.793 -1.3789  0.5079 -0.5160
 5751TIP3   OH238667   5.507   4.098  17.001  0.1488 -0.2961  0.2956
 5751TIP3    H138668   5.499   4.104  16.906 -0.0777  0.3363  0.3460
 5751TIP3    H238669   5.572   4.165  17.024 -0.1828 -0.0828  0.6311
 5752TIP3   OH238670   4.339   4.961   2.976  0.5798  0.0260  0.1590
 5752TIP3    H138671   4.279   4.899   2.935 -0.9861  0.4604  1.6990
 5752TIP3    H238672   4.426   4.927   2.955 -0.2070 -1.4944 -0.8203
 5753TIP3   OH238673   4.732   0.942  13.654  0.4537  0.1237  0.7272
 5753TIP3    H138674   4.777   0.949  13.570  0.3028 -0.9898  0.5278
 5753TIP3    H238675   4.721   0.847  13.667 -1.1338  0.3338  1.1348
 5754TIP3   OH238676   6.406   0.877   3.907  0.0645 -0.2137  0.5147
 5754TIP3    H138677   6.468   0.828   3.851 -1.2222 -0.7128 -0.5205
 5754TIP3    H238678   6.429   0.969   3.892  0.0444 -0.3575 -0.4969
 5755TIP3   OH238679   0.700   5.508  16.972  0.2456  0.2257  0.2083
 5755TIP3    H138680   0.792   5.505  16.997  0.1519 -0.6698  0.4575
 5755TIP3    H238681   0.701   5.532  16.879  0.7399 -0.0064  0.1521
 5756TIP3   OH238682   3.556   3.100   4.826 -0.3903 -0.1415 -0.4446
 5756TIP3    H138683   3.643   3.093   4.786 -0.3381  1.1996 -0.6049
 5756TIP3    H238684   3.542   3.015   4.868  0.6767 -0.6389 -1.0546
 5757TIP3   OH238685   1.642   6.698  15.269  0.6618  0.0511 -0.6671
 5757TIP3    H138686   1.603   6.676  15.354  1.2130  0.0667 -0.4077
 5757TIP3    H238687   1.567   6.724  15.215  0.3426  0.3956 -0.0729
 5758TIP3   OH238688   4.536   5.945   5.611  0.3565  0.1859 -0.1832
 5758TIP3    H138689   4.586   5.933   5.531  1.3574  1.4631  0.2121
 5758TIP3    H238690   4.560   5.871   5.667  2.5039  1.1700  0.3105
 5759TIP3   OH238691   4.669   5.066  14.373  0.0784  0.1803  0.5189
 5759TIP3    H138692   4.744   5.083  14.430  1.0300 -2.8304  0.3645
 5759TIP3    H238693   4.690   5.111  14.291  1.7054 -0.4558  0.5428
 5760TIP3   OH238694   1.506   0.425  14.148 -0.1270  0.2160  0.0938
 5760TIP3    H138695   1.534   0.516  14.164  0.2698  0.1412 -0.1376
 5760TIP3    H238696   1.540   0.406  14.061  0.8519 -0.5568  0.6302
 5761TIP3   OH238697   6.770   1.771   0.494  0.2075  0.2077  0.6119
 5761TIP3    H138698   6.795   1.679   0.493 -0.2588  0.0812 -0.1908
 5761TIP3    H238699   6.803   1.804   0.578  3.5441  0.2271 -0.5943
 5762TIP3   OH238700   4.279   6.051  17.110  0.3898 -0.4771  0.6322
 5762TIP3    H138701   4.249   6.128  17.062 -1.4636 -0.3973  1.8108
 5762TIP3    H238702   4.287   5.983  17.043  0.9206  0.4101 -0.2427
 5763TIP3   OH238703   4.974   6.652   2.806  0.5863 -0.0589  0.2453
 5763TIP3    H138704   5.018   6.641   2.722  0.7728 -0.3673  0.3816
 5763TIP3    H238705   5.029   6.714   2.854  0.1958  0.5288 -0.0573
 5764TIP3   OH238706   4.068   3.588  15.412  0.3877 -0.8344  0.3809
 5764TIP3    H138707   4.147   3.569  15.362 -0.5018  0.8165 -1.8545
 5764TIP3    H238708   3.999   3.538  15.367 -0.3679  0.3660  0.1569
 5765TIP3   OH238709   0.810   0.291   4.800  0.0490  0.1341 -0.7654
 5765TIP3    H138710   0.890   0.238   4.802 -0.2937 -0.3859  0.1480
 5765TIP3    H238711   0.835   0.372   4.755  1.2300  0.1820 -0.0706
 5766TIP3   OH238712   6.150   2.842   1.799  0.0405  0.2275 -1.2730
 5766TIP3    H138713   6.140   2.817   1.891 -0.6826  0.2094 -1.3547
 5766TIP3    H238714   6.061   2.842   1.764  0.3478 -0.1750 -2.0813
 5767TIP3   OH238715   5.883   0.947   2.302 -0.6020 -0.0972  0.4672
 5767TIP3    H138716   5.916   0.857   2.300 -2.5695 -0.8761  0.7920
 5767TIP3    H238717   5.924   0.990   2.227  1.3997 -0.8490  1.0646
 5768TIP3   OH238718   1.389   1.257   4.320 -0.0676 -0.1516  0.1736
 5768TIP3    H138719   1.456   1.210   4.369  0.6267  0.3539 -0.2770
 5768TIP3    H238720   1.363   1.329   4.377  0.7388  0.4360 -0.1950
 5769TIP3   OH238721   4.869   0.313   3.264  0.2882  0.8305 -0.0727
 5769TIP3    H138722   4.951   0.283   3.304  0.3567  1.5140  0.3069
 5769TIP3    H238723   4.814   0.339   3.338 -1.7033 -2.9656  0.0141
 5770TIP3   OH238724   6.375   1.536   5.417 -0.3263 -0.1912  0.0660
 5770TIP3    H138725   6.305   1.471   5.420 -0.6634  0.1447 -0.4053
 5770TIP3    H238726   6.409   1.530   5.327 -0.6197  0.5497 -0.0969
 5771TIP3   OH238727   2.540   0.469  13.331  0.1299  0.0998 -0.2633
 5771TIP3    H138728   2.613   0.415  13.300 -0.4923 -0.2613 -1.1413
 5771TIP3    H238729   2.477   0.406  13.366 -0.0303  0.3570 -0.0890
 5772TIP3   OH238730   2.490   0.878  13.420  0.2247 -0.4536  0.8012
 5772TIP3    H138731   2.438   0.936  13.476 -0.1215  0.5169 -0.4858
 5772TIP3    H238732   2.470   0.790  13.451 -0.1087  0.0525  2.0608
 5773TIP3   OH238733   1.725   4.567   3.756 -0.0632 -0.4275 -0.3294
 5773TIP3    H138734   1.670   4.488   3.753  1.6030 -1.7636  1.4160
 5773TIP3    H238735   1.678   4.626   3.816 -0.7311 -0.5775 -0.6923
 5774TIP3   OH238736   5.394   2.776   6.308 -0.5706  0.8065 -0.0583
 5774TIP3    H138737   5.315   2.813   6.347  0.1199  2.1749  0.1047
 5774TIP3    H238738   5.387   2.798   6.215 -0.4087  0.8492 -0.0594
 5775TIP3   OH238739   5.470   5.916  13.322  0.0170 -0.2115 -0.3783
 5775TIP3    H138740   5.516   5.932  13.240 -0.3222 -1.2858 -0.7947
 5775TIP3    H238741   5.539   5.883  13.381 -0.2945 -2.6710 -1.2639
 5776TIP3   OH238742   5.193   1.160   3.618  0.5706 -0.4927  0.4244
 5776TIP3    H138743   5.200   1.196   3.707 -1.2886  0.0934  0.3761
 5776TIP3    H238744   5.140   1.081   3.629 -2.0376  1.0359 -0.4628
 5777TIP3   OH238745   6.269   6.430   3.753 -0.3818  0.1973 -0.6724
 5777TIP3    H138746   6.249   6.371   3.826 -0.7225  0.8522 -0.2304
 5777TIP3    H238747   6.364   6.422   3.741 -0.2255  0.5844  0.2795
 5778TIP3   OH238748   0.051   3.914   2.524 -0.0008 -0.3753 -0.1714
 5778TIP3    H138749  -0.028   3.948   2.567  0.0825 -0.3355 -0.0495
 5778TIP3    H238750   0.077   3.982   2.463 -0.0853 -0.4061 -0.2413
 5779TIP3   OH238751   4.557   3.230   3.285 -0.1190 -0.1020 -0.1895
 5779TIP3    H138752   4.464   3.230   3.267  0.0043  0.5326 -0.8673
 5779TIP3    H238753   4.572   3.309   3.337  0.2100  0.4612 -1.1026
 5780TIP3   OH238754   3.465   1.100  13.610  0.0312 -0.1941  0.2234
 5780TIP3    H138755   3.470   1.094  13.705 -0.1060 -1.4079  0.1671
 5780TIP3    H238756   3.402   1.033  13.584  1.1209 -0.8580 -0.8302
 5781TIP3   OH238757   4.752   1.263  13.776 -0.1076  0.1522  0.2878
 5781TIP3    H138758   4.679   1.236  13.721 -0.0286 -1.0453  0.7402
 5781TIP3    H238759   4.721   1.343  13.820 -1.1491 -0.3456  0.4754
 5782TIP3   OH238760   6.059   1.416  14.586  0.2991 -0.4779  0.1867
 5782TIP3    H138761   5.998   1.410  14.659  0.9585 -2.4454  0.6386
 5782TIP3    H238762   6.142   1.441  14.626 -0.1261  2.2237 -0.4295
 5783TIP3   OH238763   3.705   2.541  13.992 -0.7824 -0.2994 -0.3609
 5783TIP3    H138764   3.708   2.618  14.050  0.1952 -1.3571  1.0651
 5783TIP3    H238765   3.616   2.509  14.001 -0.9075  0.0914 -0.1618
 5784TIP3   OH238766   4.725   1.002  11.565 -0.1094  0.5768 -0.1518
 5784TIP3    H138767   4.696   1.087  11.597  2.4050  2.0225 -1.3394
 5784TIP3    H238768   4.806   0.985  11.614 -1.1258 -1.7083  0.8436
 5785TIP3   OH238769   0.644   6.054   2.406  0.1113 -0.5872  0.1955
 5785TIP3    H138770   0.586   5.989   2.446  0.3805 -0.9255  0.0500
 5785TIP3    H238771   0.683   6.101   2.479 -0.0735 -0.6072  0.3047
 5786TIP3   OH238772   1.535   6.517  12.322  0.6249 -0.0413  0.4344
 5786TIP3    H138773   1.492   6.452  12.378  0.1648  0.3007  0.4819
 5786TIP3    H238774   1.566   6.584  12.382 -0.8458  0.8838  0.2017
 5787TIP3   OH238775   5.814   2.915  15.153 -0.3562 -0.0168  0.1962
 5787TIP3    H138776   5.747   2.854  15.184 -0.2407  0.3714  1.2674
 5787TIP3    H238777   5.897   2.874  15.177 -0.1746 -0.6676 -1.4518
 5788TIP3   OH238778   3.493   3.971   2.162 -0.0577  0.2195  0.0404
 5788TIP3    H138779   3.588   3.958   2.170  0.2775  2.2389  0.0737
 5788TIP3    H238780   3.456   3.933   2.241  0.7524 -0.3475  0.1595
 5789TIP3   OH238781   0.806   2.958   4.222 -0.5199 -0.1496 -0.7417
 5789TIP3    H138782   0.798   2.864   4.209 -0.2465 -0.5053  1.3036
 5789TIP3    H238783   0.781   2.972   4.313 -0.2152  1.7139 -0.8963
 5790TIP3   OH238784   1.236   1.426  15.582 -0.6635  0.3657 -0.0358
 5790TIP3    H138785   1.176   1.352  15.596 -0.9066  0.7004  0.7684
 5790TIP3    H238786   1.322   1.392  15.606 -0.9811  0.7385  1.8328
 5791TIP3   OH238787   0.207   1.127   3.324  0.4426 -0.0727  0.4064
 5791TIP3    H138788   0.281   1.187   3.335  0.9703 -0.7946  0.8343
 5791TIP3    H238789   0.201   1.080   3.407 -0.0798 -0.4992  0.1378
 5792TIP3   OH238790   3.345   6.310  15.619  0.0776 -0.0907  0.4957
 5792TIP3    H138791   3.400   6.383  15.648  0.0516 -0.1496  0.6946
 5792TIP3    H238792   3.317   6.335  15.531 -0.5684  0.5037  0.8583
 5793TIP3   OH238793   0.190   2.095   3.781  0.1215 -0.2085  0.5051
 5793TIP3    H138794   0.219   2.185   3.764 -2.1591  0.3191 -1.1956
 5793TIP3    H238795   0.235   2.043   3.714 -0.8023  0.1726 -0.4305
 5794TIP3   OH238796   1.655   3.429  12.654  0.0432 -0.5054  0.3214
 5794TIP3    H138797   1.639   3.443  12.747 -1.5321 -1.4801  0.2340
 5794TIP3    H238798   1.737   3.379  12.651 -0.7895 -2.0176  1.3296
 5795TIP3   OH238799   4.345   5.282   3.987  0.2386  0.3540 -0.3211
 5795TIP3    H138800   4.393   5.355   4.026 -1.1476  0.4824  1.2047
 5795TIP3    H238801   4.352   5.211   4.051  0.7020 -0.5548 -1.3364
 5796TIP3   OH238802   2.262   4.380  10.900  0.0461  0.2502 -0.0247
 5796TIP3    H138803   2.313   4.441  10.952  1.7575 -1.0685 -0.0796
 5796TIP3    H238804   2.217   4.325  10.964  1.9593 -1.2117  0.1615
 5797TIP3   OH238805   3.141   2.709   5.971  0.2483  0.0213 -0.0848
 5797TIP3    H138806   3.178   2.656   6.041 -0.0116  2.5128  2.1176
 5797TIP3    H238807   3.182   2.795   5.983 -1.0573  0.9803 -2.0005
 5798TIP3   OH238808   1.180   1.962   3.442 -0.3060 -0.2253 -0.5859
 5798TIP3    H138809   1.098   1.932   3.482  0.0119 -3.0514 -1.8677
 5798TIP3    H238810   1.195   1.903   3.369  1.7880  1.5928 -1.7589
 5799TIP3   OH238811   0.765   6.264   2.583 -0.6668  0.4435  0.5252
 5799TIP3    H138812   0.815   6.342   2.558  0.9173 -0.2580  1.3717
 5799TIP3    H238813   0.690   6.299   2.632 -0.3050  1.4683  0.3741
 5800TIP3   OH238814   3.973   3.963   5.716 -0.5668 -0.0175 -0.3832
 5800TIP3    H138815   3.973   4.052   5.752  0.7393 -0.6298  1.2986
 5800TIP3    H238816   3.895   3.922   5.754 -1.4607  0.5272 -1.5737
 5801TIP3   OH238817   6.714   0.238   1.926  0.2203 -0.0288  0.1535
 5801TIP3    H138818   6.675   0.324   1.911 -1.4730 -0.6907  0.4847
 5801TIP3    H238819   6.794   0.238   1.874 -1.3750  0.5909 -2.4900
 5802TIP3   OH238820   1.850   5.481  16.097  0.1738  0.2136 -0.2904
 5802TIP3    H138821   1.869   5.464  16.189 -1.6969  0.4949  0.1701
 5802TIP3    H238822   1.807   5.401  16.066  1.0324  0.0150 -1.0126
 5803TIP3   OH238823   5.181   3.293   2.518 -0.1093  0.0426  0.1975
 5803TIP3    H138824   5.092   3.289   2.554  0.2621  3.4626  1.8205
 5803TIP3    H238825   5.169   3.330   2.430 -0.3356 -0.3533  0.0582
 5804TIP3   OH238826   0.782   2.278  16.830 -0.1360  0.5841 -0.0070
 5804TIP3    H138827   0.787   2.333  16.908  0.5673 -0.1970  0.5130
 5804TIP3    H238828   0.820   2.331  16.760  0.7530  0.6884  0.5387
 5805TIP3   OH238829   0.495   3.243   5.768 -0.0571  0.4865  0.4853
 5805TIP3    H138830   0.582   3.251   5.727 -0.5099  0.2511 -0.5640
 5805TIP3    H238831   0.451   3.325   5.745 -0.3673  0.2933  0.3893
 5806TIP3   OH238832   0.361   2.525  16.995  0.0535  0.3699  0.2604
 5806TIP3    H138833   0.448   2.544  16.961  0.0021 -0.5609 -0.4235
 5806TIP3    H238834   0.321   2.611  17.009  0.3767  0.8012 -1.2803
 5807TIP3   OH238835   6.281   0.717   4.901 -0.0277 -0.4348  0.1137
 5807TIP3    H138836   6.199   0.707   4.853  0.3048 -1.1782 -0.3260
 5807TIP3    H238837   6.267   0.792   4.958 -0.9196 -0.3952 -0.1464
 5808TIP3   OH238838   3.590   1.084   2.056  0.8190 -0.7518  0.1589
 5808TIP3    H138839   3.500   1.077   2.088 -0.0096 -1.2228 -2.0843
 5808TIP3    H238840   3.635   1.139   2.121 -1.4200  0.6215  0.6338
 5809TIP3   OH238841   3.629   3.992  13.079 -0.2367 -0.2127 -0.4388
 5809TIP3    H138842   3.696   4.029  13.137 -1.4888  1.2188  0.1922
 5809TIP3    H238843   3.624   3.900  13.104  0.4780 -0.0066  0.5381
 5810TIP3   OH238844   4.036   3.621  16.392  0.1698 -0.1253  0.3546
 5810TIP3    H138845   4.045   3.536  16.434  1.2789  0.2698  0.9676
 5810TIP3    H238846   4.087   3.614  16.311 -1.1499 -0.5660 -0.4815
 5811TIP3   OH238847   5.910   5.444   2.894  0.2747 -0.3409 -0.5317
 5811TIP3    H138848   5.958   5.416   2.817  0.6255  0.3956 -0.5963
 5811TIP3    H238849   5.821   5.457   2.864  0.3105 -0.5001 -0.7070
 5812TIP3   OH238850   2.000   0.760   3.929  0.1858 -0.0550  0.0326
 5812TIP3    H138851   1.914   0.718   3.921  0.4294 -0.6847  0.5895
 5812TIP3    H238852   1.991   0.816   4.006  0.0638  0.4181 -0.3224
 5813TIP3   OH238853   3.852   3.961  13.984  0.4006 -0.3662  0.1973
 5813TIP3    H138854   3.893   3.894  14.038  0.8324 -0.0393  0.2792
 5813TIP3    H238855   3.925   4.011  13.948  0.3543 -2.4470 -3.2412
 5814TIP3   OH238856   6.223   3.600   0.924  0.1538 -0.0180  0.2389
 5814TIP3    H138857   6.173   3.520   0.906  0.3354  0.2004 -1.3601
 5814TIP3    H238858   6.291   3.572   0.986  0.0702 -1.0434 -0.1140
 5815TIP3   OH238859   1.359   2.364  12.823  0.0533  0.3110  0.3249
 5815TIP3    H138860   1.289   2.352  12.759 -1.1553 -1.5894  1.9132
 5815TIP3    H238861   1.427   2.301  12.797 -0.3906 -0.3847  0.8459
 5816TIP3   OH238862   0.210   4.008  13.226  0.0806  0.2551  0.6664
 5816TIP3    H138863   0.135   4.038  13.277  0.6809 -0.2549  1.8789
 5816TIP3    H238864   0.188   3.918  13.202 -0.4285  0.6570 -0.4617
 5817TIP3   OH238865   4.393   1.148   0.071 -0.7000 -0.7344 -0.1022
 5817TIP3    H138866   4.446   1.198   0.133 -0.8307 -0.1327 -0.4758
 5817TIP3    H238867   4.457   1.093   0.024 -0.8577 -3.4840  2.5819
 5818TIP3   OH238868   6.670   3.077  10.950  0.2813 -0.1661 -0.1074
 5818TIP3    H138869   6.700   3.166  10.969 -0.3388 -0.0618  0.4198
 5818TIP3    H238870   6.597   3.089  10.889 -0.9550 -0.1821  1.3172
 5819TIP3   OH238871   2.873   6.278  15.518  0.1004  0.1486  0.3468
 5819TIP3    H138872   2.827   6.360  15.502  1.3176  0.9721  0.9048
 5819TIP3    H238873   2.940   6.274  15.449  0.5260 -0.0084  0.7654
 5820TIP3   OH238874   6.239   0.184  10.782 -0.7101 -0.3753  0.4204
 5820TIP3    H138875   6.325   0.206  10.818  0.1537  1.7477 -2.5515
 5820TIP3    H238876   6.251   0.096  10.745 -0.5511 -1.0275  1.9349
 5821TIP3   OH238877   1.088   2.889   6.071 -0.5015  0.0765 -0.2257
 5821TIP3    H138878   1.091   2.812   6.015 -1.4624 -1.0271  1.1765
 5821TIP3    H238879   1.015   2.941   6.037 -2.8289 -1.8533  1.4400
 5822TIP3   OH238880   4.655   5.644  16.380 -0.0593 -0.3805  0.4192
 5822TIP3    H138881   4.729   5.588  16.358 -1.4119 -1.8707 -0.6374
 5822TIP3    H238882   4.580   5.603  16.336 -1.4138  1.3928  0.9283
 5823TIP3   OH238883   5.279   0.554  11.305 -0.2018 -0.3381 -0.1354
 5823TIP3    H138884   5.302   0.523  11.217  0.1659  0.2790 -0.2590
 5823TIP3    H238885   5.213   0.621  11.291  1.4202  1.3228 -0.1040
 5824TIP3   OH238886   3.609   4.725  12.658 -0.3098 -0.5030  0.0136
 5824TIP3    H138887   3.588   4.738  12.566 -2.0743  3.3468  0.7906
 5824TIP3    H238888   3.689   4.775  12.672  1.3635 -3.0442  0.2063
 5825TIP3   OH238889   4.493   6.690  17.159  0.2358  0.5541 -0.3621
 5825TIP3    H138890   4.480   6.596  17.159 -0.6193  0.6658  0.4185
 5825TIP3    H238891   4.512   6.712  17.067  0.1535 -0.3250 -0.5924
 5826TIP3   OH238892   3.707   0.328  16.136 -0.3473 -0.2563 -0.3178
 5826TIP3    H138893   3.776   0.364  16.191  0.1999 -0.7331 -0.6834
 5826TIP3    H238894   3.665   0.405  16.097 -0.5179  0.0685  0.4810
 5827TIP3   OH238895   1.776   2.052   5.030  0.0469  0.5515  0.2958
 5827TIP3    H138896   1.818   1.977   4.988  1.3783  0.1800  2.1669
 5827TIP3    H238897   1.811   2.129   4.984 -0.9719  0.1041 -1.3183
 5828TIP3   OH238898   4.071   0.565  10.939  0.1009  0.7250  0.1959
 5828TIP3    H138899   4.013   0.624  10.891 -1.4421  0.2824  1.4265
 5828TIP3    H238900   4.023   0.482  10.944  1.5619 -0.1808 -0.1749
 5829TIP3   OH238901   5.332   5.864   4.540 -0.3062  0.1640 -0.2790
 5829TIP3    H138902   5.369   5.862   4.452 -0.6518 -0.3121 -0.4218
 5829TIP3    H238903   5.251   5.914   4.532  0.2125  1.0811  0.0039
 5830TIP3   OH238904   5.843   0.940  15.475 -0.0642  0.0782 -0.3637
 5830TIP3    H138905   5.782   1.013  15.465  1.0009  0.8664 -1.3825
 5830TIP3    H238906   5.925   0.980  15.505  0.1101 -0.9008  0.5505
 5831TIP3   OH238907   2.522   1.446  15.807 -0.4065  0.0496  0.1351
 5831TIP3    H138908   2.589   1.435  15.741 -1.0060  1.1997 -0.6932
 5831TIP3    H238909   2.513   1.359  15.847  1.4420 -0.1586  0.1847
 5832TIP3   OH238910   1.505   2.438   6.097 -0.8304  0.7407  0.0158
 5832TIP3    H138911   1.598   2.421   6.110 -1.0398 -1.2092 -0.7484
 5832TIP3    H238912   1.474   2.470   6.182  0.5909  1.8134  0.1632
 5833TIP3   OH238913   2.226   4.980   3.669 -0.1135 -0.2879 -0.6801
 5833TIP3    H138914   2.276   4.921   3.725 -0.9639 -1.7174 -1.3454
 5833TIP3    H238915   2.154   5.011   3.724  1.5041  1.9260  0.3386
 5834TIP3   OH238916   2.959   6.548   0.852 -0.2179  0.3094  0.6260
 5834TIP3    H138917   2.989   6.611   0.787 -1.3854 -0.4093 -0.6732
 5834TIP3    H238918   2.998   6.578   0.935  1.5421  1.0859 -0.4258
 5835TIP3   OH238919   4.469   2.440   0.234 -0.0209  0.0360 -0.6056
 5835TIP3    H138920   4.455   2.432   0.328  1.8339 -0.8122 -0.3704
 5835TIP3    H238921   4.399   2.499   0.205 -1.5234 -0.8324  1.0344
 5836TIP3   OH238922   3.357   6.751  12.149  0.3017 -0.1823  0.8385
 5836TIP3    H138923   3.428   6.795  12.195  0.5639  1.1120 -0.7510
 5836TIP3    H238924   3.379   6.758  12.056 -0.0545 -2.9979  0.4402
 5837TIP3   OH238925   3.413   0.884   2.471 -0.7834 -0.1051 -0.7471
 5837TIP3    H138926   3.449   0.817   2.530 -0.7480  0.0082 -0.6395
 5837TIP3    H238927   3.460   0.964   2.495 -0.9015 -0.0197 -0.8034
 5838TIP3   OH238928   5.357   6.716  12.111 -0.0080 -0.0293 -0.1268
 5838TIP3    H138929   5.370   6.690  12.019  0.4314  1.1048 -0.4017
 5838TIP3    H238930   5.335   6.809  12.107  0.5768  0.1747  0.9524
 5839TIP3   OH238931   3.364   0.361  11.175  0.1631 -0.2930  0.3120
 5839TIP3    H138932   3.347   0.403  11.091  0.7853  2.2132  1.3429
 5839TIP3    H238933   3.420   0.286  11.154  1.3137  0.9641 -1.4254
 5840TIP3   OH238934   1.143   0.298  16.620  0.0687  0.6722 -0.5819
 5840TIP3    H138935   1.147   0.371  16.681 -3.2275  0.3438  0.2159
 5840TIP3    H238936   1.138   0.340  16.534 -0.7668  1.3758 -0.2084
 5841TIP3   OH238937   0.362   1.290  12.722  0.2084 -0.1948 -0.3180
 5841TIP3    H138938   0.348   1.203  12.683  1.4038 -0.3725 -0.3892
 5841TIP3    H238939   0.278   1.312  12.761 -0.9273 -0.1811 -2.6304
 5842TIP3   OH238940   2.832   5.796  15.534  0.6331 -0.2133  0.0000
 5842TIP3    H138941   2.888   5.753  15.470  1.8263  0.6806  0.4074
 5842TIP3    H238942   2.859   5.888  15.532 -0.4982  0.1529  0.5574
 5843TIP3   OH238943   6.314   2.544   3.406 -0.6433 -0.5119  0.3743
 5843TIP3    H138944   6.302   2.521   3.498  0.9853  0.6981  0.9316
 5843TIP3    H238945   6.349   2.464   3.366  1.4477 -0.2112  1.4765
 5844TIP3   OH238946   3.056   4.307   0.504 -0.2305  0.3372  0.5663
 5844TIP3    H138947   3.039   4.374   0.570 -0.7657 -0.5097  1.3178
 5844TIP3    H238948   3.121   4.250   0.545  1.0041  0.9609 -0.4770
 5845TIP3   OH238949   2.146   5.159  13.082  0.7723 -0.2337  0.7465
 5845TIP3    H138950   2.215   5.218  13.049  1.3791 -1.5035 -0.3719
 5845TIP3    H238951   2.194   5.089  13.126  0.1363 -0.5455  0.9499
 5846TIP3   OH238952   4.201   5.122  12.951 -0.1529 -0.1081 -0.1823
 5846TIP3    H138953   4.246   5.057  12.899  0.5752  1.7668 -2.0134
 5846TIP3    H238954   4.204   5.087  13.041 -1.3519 -3.3775 -1.2592
 5847TIP3   OH238955   5.957   3.899   3.912 -0.0097 -0.1421 -0.5128
 5847TIP3    H138956   5.994   3.925   3.997  1.3503  3.0660 -1.9401
 5847TIP3    H238957   5.871   3.941   3.910  0.4208  0.7077 -1.1606
 5848TIP3   OH238958   2.343   1.773   5.750 -0.5551 -0.6489  0.2800
 5848TIP3    H138959   2.374   1.863   5.758  0.0185 -0.8406  0.2709
 5848TIP3    H238960   2.385   1.726   5.822  0.4411 -1.2486 -0.6574
 5849TIP3   OH238961   1.518   0.614  11.061 -0.1124  0.4162  0.5041
 5849TIP3    H138962   1.538   0.586  10.972 -0.6014  1.9412 -0.1224
 5849TIP3    H238963   1.433   0.576  11.080  0.3456 -0.5733  0.6475
 5850TIP3   OH238964   2.664   2.644   3.491 -0.2788  0.2586 -0.2526
 5850TIP3    H138965   2.642   2.552   3.478  1.1707 -0.2406  0.5735
 5850TIP3    H238966   2.582   2.691   3.478 -1.4460 -1.3147  1.0364
 5851TIP3   OH238967   5.895   5.936  16.396 -0.3449  0.2790  0.2670
 5851TIP3    H138968   5.834   5.947  16.469  1.3037  0.6736  1.6532
 5851TIP3    H238969   5.948   5.860  16.420  1.0947  1.2008  0.1628
 5852TIP3   OH238970   3.611   5.478   0.808  0.1477  0.0555  0.1539
 5852TIP3    H138971   3.556   5.461   0.732 -1.8538  2.4653  0.8962
 5852TIP3    H238972   3.640   5.392   0.837 -0.2311 -1.0383 -2.4348
 5853TIP3   OH238973   0.844   6.684  15.527  0.3720 -0.4289  0.1247
 5853TIP3    H138974   0.750   6.693  15.512  0.2216  0.8823  1.6701
 5853TIP3    H238975   0.854   6.595  15.563 -0.5406  0.0578  1.6615
 5854TIP3   OH238976   4.338   2.909   4.444 -0.0597 -0.4875 -0.7694
 5854TIP3    H138977   4.379   2.857   4.513  0.8121  1.9440  0.6603
 5854TIP3    H238978   4.380   2.880   4.363 -0.1517 -2.4703 -0.1484
 5855TIP3   OH238979   3.563   0.852   2.880 -0.0236 -0.0805 -0.4349
 5855TIP3    H138980   3.485   0.895   2.845 -0.7267 -0.1132  1.0261
 5855TIP3    H238981   3.636   0.892   2.832 -0.7639  1.6889 -0.1580
 5856TIP3   OH238982   2.175   5.283  16.179  0.2506  0.3138 -0.1154
 5856TIP3    H138983   2.162   5.349  16.247 -0.6893  0.1384 -0.1117
 5856TIP3    H238984   2.235   5.324  16.117  1.5852  0.2653  1.0946
 5857TIP3   OH238985   5.735   3.978   1.646 -0.3054  0.4895  0.1380
 5857TIP3    H138986   5.644   4.004   1.634 -0.1088  1.0724 -0.1016
 5857TIP3    H238987   5.761   4.020   1.729 -0.1739  0.5538  0.0650
 5858TIP3   OH238988   4.095   1.873   4.255 -0.8883 -0.3732  0.4438
 5858TIP3    H138989   4.133   1.913   4.334  2.7252  1.7289 -2.0274
 5858TIP3    H238990   4.042   1.943   4.216 -1.3237 -0.8366  0.1980
 5859TIP3   OH238991   3.099   3.674   0.377  0.1837  0.2136  0.0041
 5859TIP3    H138992   3.006   3.699   0.372  0.0691 -0.3520 -0.9549
 5859TIP3    H238993   3.108   3.634   0.464 -0.4485  0.3427  0.1374
 5860TIP3   OH238994   2.876   2.469  16.615  0.2404 -0.7258  0.2374
 5860TIP3    H138995   2.798   2.438  16.571 -1.3295 -0.8260  2.8882
 5860TIP3    H238996   2.941   2.400  16.602 -0.4641 -1.1808 -1.0072
 5861TIP3   OH238997   1.843   2.502   1.882 -0.0638  0.1001  0.0430
 5861TIP3    H138998   1.844   2.557   1.804 -1.7016  1.6194  1.0189
 5861TIP3    H238999   1.871   2.559   1.953  0.6750 -1.0518  0.7127
 5862TIP3   OH239000   4.519   4.269   5.809  0.4002  0.0234 -0.0423
 5862TIP3    H139001   4.608   4.269   5.841  0.4612 -2.2650 -0.0389
 5862TIP3    H239002   4.471   4.211   5.868 -0.9563  0.7072 -0.4068
 5863TIP3   OH239003   2.725   1.691  14.673  0.2131  0.0360 -0.0829
 5863TIP3    H139004   2.638   1.711  14.638 -0.3944 -0.8910  0.8536
 5863TIP3    H239005   2.714   1.610  14.723  1.2753  0.7218  1.3508
 5864TIP3   OH239006   3.282   5.438   4.151 -0.5481 -0.2975 -0.4150
 5864TIP3    H139007   3.356   5.388   4.186  0.5835  0.2560 -1.9168
 5864TIP3    H239008   3.277   5.516   4.206 -2.2124 -1.8585  1.8358
 5865TIP3   OH239009   3.420   3.591  13.803  0.0509  0.6647 -0.2807
 5865TIP3    H139010   3.453   3.679  13.823  0.0048  1.0268 -1.7177
 5865TIP3    H239011   3.477   3.533  13.853  0.6797  1.4602 -0.0408
 5866TIP3   OH239012   4.321   6.764   3.352 -0.7463  0.1174  0.0970
 5866TIP3    H139013   4.396   6.786   3.407 -0.4425 -0.2343 -0.1684
 5866TIP3    H239014   4.338   6.809   3.269  0.0839 -1.3791 -0.5916
 5867TIP3   OH239015   3.916   4.656  13.499 -0.2208  0.0773  0.7712
 5867TIP3    H139016   3.875   4.740  13.479  0.7938  0.6606  1.0402
 5867TIP3    H239017   3.905   4.647  13.594 -0.0220  0.0761  0.7937
 5868TIP3   OH239018   0.991   3.294  16.125  0.3494 -0.3204  0.3694
 5868TIP3    H139019   1.053   3.289  16.197 -0.8959 -0.1130  1.5038
 5868TIP3    H239020   0.914   3.338  16.162  0.7261  2.5034 -1.8424
 5869TIP3   OH239021   0.317   6.258   1.860 -0.1907 -0.1135 -0.0330
 5869TIP3    H139022   0.410   6.237   1.852 -0.2029 -0.3572  0.4689
 5869TIP3    H239023   0.278   6.222   1.780 -0.4104 -3.1261  1.2992
 5870TIP3   OH239024   0.621   1.982   3.222  0.5176  0.1499 -0.3044
 5870TIP3    H139025   0.539   1.934   3.229  0.4854 -0.0130 -1.5227
 5870TIP3    H239026   0.664   1.944   3.145  0.3515  2.2655 -1.5355
 5871TIP3   OH239027   6.344   5.283  13.902  0.2913 -0.0005 -0.3065
 5871TIP3    H139028   6.383   5.313  13.985  1.1169 -0.4238 -0.5221
 5871TIP3    H239029   6.333   5.362  13.851 -1.4694  0.4461  0.6902
 5872TIP3   OH239030   0.870   1.917   1.032  0.0491  0.5064  0.2212
 5872TIP3    H139031   0.963   1.922   1.054  0.6489 -0.5590 -1.8258
 5872TIP3    H239032   0.832   1.862   1.100  1.0696  0.3204  0.6600
 5873TIP3   OH239033   5.096   6.572  14.129  0.4086 -0.0542 -0.2563
 5873TIP3    H139034   5.050   6.650  14.098 -1.8825 -1.0545  0.3749
 5873TIP3    H239035   5.139   6.599  14.210 -1.3299  0.3424  0.5945
 5874TIP3   OH239036   3.548   1.843   2.198 -0.1069  0.3285  0.3320
 5874TIP3    H139037   3.569   1.805   2.112  1.1302 -0.3052  0.8865
 5874TIP3    H239038   3.508   1.928   2.177  0.1921  0.1984 -0.8718
 5875TIP3   OH239039   3.447   1.990   5.873  0.3610 -0.4422  0.3054
 5875TIP3    H139040   3.482   2.074   5.846 -0.5297 -0.9196 -2.6698
 5875TIP3    H239041   3.353   2.006   5.886  0.3806 -0.7471  0.8812
 5876TIP3   OH239042   5.055   6.614   5.035  1.1690 -0.0029  0.3411
 5876TIP3    H139043   5.109   6.661   5.099 -1.8151  1.5574  1.9565
 5876TIP3    H239044   5.071   6.659   4.952  1.0039  1.6436  1.1611
 5877TIP3   OH239045   5.894   4.027  15.038 -0.1480  0.6741  0.2415
 5877TIP3    H139046   5.941   3.980  15.107  0.3949 -3.0138 -2.4102
 5877TIP3    H239047   5.802   4.022  15.064  0.0179 -0.8656  0.5938
 5878TIP3   OH239048   6.013   4.988  13.368 -0.0106  0.7717 -0.5080
 5878TIP3    H139049   6.040   4.927  13.436  0.4657 -0.7268 -1.9686
 5878TIP3    H239050   5.930   4.953  13.335 -0.1699  1.4025 -0.8031
 5879TIP3   OH239051   5.813   2.037   4.596  0.1804  0.5052 -0.1999
 5879TIP3    H139052   5.891   2.025   4.543  0.4260 -1.9960  0.6183
 5879TIP3    H239053   5.750   2.079   4.538  1.5884  1.1194 -1.3373
 5880TIP3   OH239054   6.066   3.190   1.930 -0.0676  0.7339  0.3993
 5880TIP3    H139055   6.070   3.195   1.834 -0.6351 -3.4528 -0.0523
 5880TIP3    H239056   6.120   3.114   1.952  0.8522  2.1517  3.5753
 5881TIP3   OH239057   4.659   2.339  16.168 -0.6536 -0.2953 -0.1571
 5881TIP3    H139058   4.595   2.404  16.198 -3.0756 -2.7837  0.4564
 5881TIP3    H239059   4.638   2.326  16.075 -0.3233 -0.3708 -0.2238
 5882TIP3   OH239060   2.333   4.658   0.156 -0.0128 -0.3935 -0.2706
 5882TIP3    H139061   2.324   4.738   0.104 -1.0031  2.1453  3.3428
 5882TIP3    H239062   2.245   4.621   0.158  0.3558 -1.4043 -1.5873
 5883TIP3   OH239063   3.984   5.263   5.500 -0.4900 -0.0656 -0.2948
 5883TIP3    H139064   4.021   5.179   5.529  0.1399  0.0961 -0.6126
 5883TIP3    H239065   3.903   5.272   5.551 -0.9035 -1.1656 -0.7019
 5884TIP3   OH239066   1.673   1.202  11.596  0.2954 -0.7542  0.0586
 5884TIP3    H139067   1.653   1.289  11.631 -1.0872 -0.4598 -1.3595
 5884TIP3    H239068   1.598   1.148  11.621 -0.0694 -0.8745 -1.2275
 5885TIP3   OH239069   5.424   5.818  14.600 -0.0554  0.2078  0.0410
 5885TIP3    H139070   5.389   5.901  14.569 -0.8769  0.0494  0.5241
 5885TIP3    H239071   5.383   5.805  14.686 -0.0877 -0.7864 -0.1155
 5886TIP3   OH239072   6.280   4.161  13.687 -0.0543 -0.5210 -0.5734
 5886TIP3    H139073   6.326   4.137  13.767 -0.0817 -0.3005 -0.4918
 5886TIP3    H239074   6.233   4.081  13.662 -0.5954 -0.3902  0.0070
 5887TIP3   OH239075   2.804   3.303  12.726 -0.4190 -0.0586  0.0881
 5887TIP3    H139076   2.800   3.385  12.678  0.7628  0.1064  0.2464
 5887TIP3    H239077   2.715   3.267  12.719 -0.3423  0.0525 -2.0129
 5888TIP3   OH239078   4.074   4.222   2.364 -0.3096  0.2498 -0.4707
 5888TIP3    H139079   4.089   4.167   2.441  0.6228 -0.7633 -1.3490
 5888TIP3    H239080   4.158   4.263   2.346 -1.1773  2.7090  0.6649
 5889TIP3   OH239081   5.741   5.011  14.459  0.8230 -0.0001 -0.1617
 5889TIP3    H139082   5.766   5.032  14.369  0.5734  0.2920 -0.1650
 5889TIP3    H239083   5.646   5.019  14.460  0.8793  0.7241  0.3067
 5890TIP3   OH239084   3.937   1.449  14.950  0.0303 -0.2208 -0.1038
 5890TIP3    H139085   3.952   1.543  14.960 -1.1715  0.5924 -4.0756
 5890TIP3    H239086   4.017   1.417  14.909 -0.5311 -0.3537 -1.1228
 5891TIP3   OH239087   5.977   1.570  12.641  0.2833  0.0641 -0.0273
 5891TIP3    H139088   5.982   1.476  12.624 -2.2619  0.1176 -1.5245
 5891TIP3    H239089   5.981   1.611  12.554  1.6884  1.4097  0.6090
 5892TIP3   OH239090   6.253   1.322   0.653  0.3772 -0.5822 -0.2130
 5892TIP3    H139091   6.230   1.411   0.680  0.2878 -1.0725  1.4516
 5892TIP3    H239092   6.173   1.272   0.667  0.9541 -1.2854  0.7482
 5893TIP3   OH239093   4.155   5.138  15.391 -0.3412  0.0283 -0.2120
 5893TIP3    H139094   4.103   5.099  15.461  1.6355 -0.4896  1.0512
 5893TIP3    H239095   4.222   5.073  15.372  0.0726  0.8114 -1.5425
 5894TIP3   OH239096   1.261   2.235  13.227 -0.0460 -0.2851 -0.2884
 5894TIP3    H139097   1.317   2.292  13.280  1.4146  2.0470 -3.9236
 5894TIP3    H239098   1.191   2.292  13.196 -0.5039 -1.3800 -1.3434
 5895TIP3   OH239099   1.834   2.581   0.321  0.0937 -0.3940  0.1554
 5895TIP3    H139100   1.786   2.551   0.398  0.6513  0.1832  0.7465
 5895TIP3    H239101   1.926   2.581   0.348  0.2022  0.9051 -0.1203
 5896TIP3   OH239102   2.276   2.022   3.147 -0.0139 -0.1532 -0.4962
 5896TIP3    H139103   2.200   2.062   3.104  0.0837 -1.0251 -1.5120
 5896TIP3    H239104   2.267   1.928   3.130 -0.3674 -0.6538  2.0490
 5897TIP3   OH239105   5.524   1.205  12.689 -0.5063 -0.0808 -0.5948
 5897TIP3    H139106   5.558   1.138  12.748 -0.4472 -0.5965 -1.2083
 5897TIP3    H239107   5.474   1.157  12.624 -2.1654  0.6441  0.0906
 5898TIP3   OH239108   5.938   0.161  16.482  0.2926  0.1149  0.0800
 5898TIP3    H139109   5.876   0.109  16.533 -1.6261 -0.6660 -2.8204
 5898TIP3    H239110   6.015   0.105  16.473 -0.6472 -1.1049 -0.6178
 5899TIP3   OH239111   1.149   3.055  15.327 -0.0312  0.6271 -0.2968
 5899TIP3    H139112   1.204   3.017  15.395 -0.2785  1.0009  0.1175
 5899TIP3    H239113   1.110   2.980  15.283  0.4572  0.3724 -0.2994
 5900TIP3   OH239114   6.182   1.959  12.982 -0.3430  0.0023  0.2294
 5900TIP3    H139115   6.220   1.995  13.062  2.3670  1.9411 -1.7444
 5900TIP3    H239116   6.182   1.864  12.996  0.1302  0.2739  2.4584
 5901TIP3   OH239117   0.927   4.953   5.424 -0.4656  0.1164 -0.4287
 5901TIP3    H139118   0.973   5.026   5.464  0.5177  0.6742 -2.4423
 5901TIP3    H239119   0.834   4.975   5.433 -0.3313 -0.0582  1.9241
 5902TIP3   OH239120   2.232   4.889  12.942 -0.3710 -0.0393 -0.9559
 5902TIP3    H139121   2.310   4.941  12.961 -1.8918  2.3193 -0.7331
 5902TIP3    H239122   2.251   4.802  12.977  1.2466  1.1053  1.2416
 5903TIP3   OH239123   4.865   5.714  13.332 -0.1441  0.1799  0.2056
 5903TIP3    H139124   4.843   5.644  13.271  0.2139  0.5037 -0.3061
 5903TIP3    H239125   4.844   5.679  13.418  0.1204 -0.5892 -0.0385
 5904TIP3   OH239126   2.284   0.667   1.418 -0.2343  0.1583  0.1213
 5904TIP3    H139127   2.253   0.756   1.430 -1.3145 -0.2846  0.6847
 5904TIP3    H239128   2.231   0.632   1.346  1.2686  0.4568 -1.1991
 5905TIP3   OH239129   2.437   5.700  15.415 -0.0351 -0.1245  0.3978
 5905TIP3    H139130   2.376   5.630  15.392  0.8523 -1.0571  0.8187
 5905TIP3    H239131   2.522   5.670  15.383 -0.1054  2.2503 -2.4939
 5906TIP3   OH239132   6.693   1.136  11.455 -0.1048 -0.2977  0.5642
 5906TIP3    H139133   6.611   1.097  11.484 -0.2028  0.0463  0.7552
 5906TIP3    H239134   6.670   1.191  11.381  0.4287 -2.7205 -1.5364
 5907TIP3   OH239135   0.235   2.805  15.396  0.1856 -0.4383  0.1496
 5907TIP3    H139136   0.237   2.766  15.308 -0.9586 -0.1155 -0.0336
 5907TIP3    H239137   0.156   2.859  15.396 -0.5885 -1.4840  1.8075
 5908TIP3   OH239138   3.557   3.575  10.756  0.4034 -0.3820 -0.6050
 5908TIP3    H139139   3.494   3.513  10.792 -0.2678  0.7225  0.1890
 5908TIP3    H239140   3.617   3.592  10.829  1.5546 -1.2876 -1.2994
 5909TIP3   OH239141   4.378   1.977  16.399  0.2520  0.1466  0.0389
 5909TIP3    H139142   4.453   2.037  16.403 -0.3540  0.9087  0.1366
 5909TIP3    H239143   4.409   1.903  16.347  1.1088  0.4041  0.1689
 5910TIP3   OH239144   3.339   0.218   1.705  0.3483 -0.4604  0.4402
 5910TIP3    H139145   3.312   0.142   1.757 -0.1454  1.0179  2.4568
 5910TIP3    H239146   3.267   0.280   1.713  0.2677 -0.1290 -2.0503
 5911TIP3   OH239147   4.218   5.779   1.999 -0.3175 -0.0973  0.2601
 5911TIP3    H139148   4.178   5.729   2.070 -0.9309 -1.5886 -1.0749
 5911TIP3    H239149   4.281   5.837   2.043  0.2792 -1.8899  1.9173
 5912TIP3   OH239150   1.952   5.283  16.937  0.1270 -0.3372  0.0263
 5912TIP3    H139151   1.984   5.350  16.876  2.8855 -0.0702  1.6076
 5912TIP3    H239152   1.961   5.201  16.889  2.7966 -0.2012  0.1199
 5913TIP3   OH239153   6.154   1.135   2.529  0.3416  0.0290  0.2894
 5913TIP3    H139154   6.135   1.044   2.506  1.4244 -0.5334  1.4618
 5913TIP3    H239155   6.070   1.180   2.522  0.2295 -0.4691 -2.7424
 5914TIP3   OH239156   3.711   5.697  17.029 -0.2993  0.7110 -0.2504
 5914TIP3    H139157   3.734   5.646  16.951  0.2743  1.3926 -0.5393
 5914TIP3    H239158   3.767   5.663  17.098  0.5955  1.4051 -0.6131
 5915TIP3   OH239159   3.704   6.007   0.236 -0.0348  0.2518 -0.3000
 5915TIP3    H139160   3.623   6.049   0.266  0.1035  0.9816 -0.9155
 5915TIP3    H239161   3.736   5.960   0.313 -0.4628  0.8804  0.2772
 5916TIP3   OH239162   0.843   5.004  14.972  0.6408 -0.5690 -0.4696
 5916TIP3    H139163   0.762   4.988  14.923  0.7638 -0.3630 -0.7391
 5916TIP3    H239164   0.904   5.039  14.907 -0.6918  4.7471  0.6113
 5917TIP3   OH239165   1.444   1.651  16.398  0.1821  0.0436  0.3223
 5917TIP3    H139166   1.436   1.732  16.449  0.0542  0.6141 -0.5692
 5917TIP3    H239167   1.401   1.584  16.452 -0.9788  0.8652  0.4702
 5918TIP3   OH239168   3.669   2.186   0.605  0.0629 -0.1812  0.0001
 5918TIP3    H139169   3.765   2.185   0.610  0.0329 -2.3682  1.3758
 5918TIP3    H239170   3.641   2.128   0.675 -2.3612  1.5156  0.5364
 5919TIP3   OH239171   4.221   0.558   6.279 -0.3434 -0.8664  0.1820
 5919TIP3    H139172   4.249   0.480   6.328 -2.3391 -1.6820  0.1290
 5919TIP3    H239173   4.218   0.529   6.188  0.5696 -0.1969 -0.0729
 5920TIP3   OH239174   4.566   0.149  16.665  0.3011 -0.3836  0.2087
 5920TIP3    H139175   4.528   0.162  16.578  1.6692  0.4375 -0.3048
 5920TIP3    H239176   4.564   0.054  16.678  0.0367 -0.5120 -0.6925
 5921TIP3   OH239177   6.355   3.468  12.733 -0.3045  0.1466  0.6164
 5921TIP3    H139178   6.353   3.563  12.722 -0.4670 -0.0167 -0.8789
 5921TIP3    H239179   6.389   3.456  12.822  0.6071  1.5725  0.5057
 5922TIP3   OH239180   6.501   3.215  11.829  0.2235  0.2795 -0.5794
 5922TIP3    H139181   6.528   3.137  11.878 -0.2355  0.5082  0.0531
 5922TIP3    H239182   6.496   3.185  11.738  1.0941 -0.1510 -0.5006
 5923TIP3   OH239183   1.338   0.925   0.482  0.1963  0.0951 -0.1127
 5923TIP3    H139184   1.300   0.944   0.396 -1.3140 -0.9260  0.2875
 5923TIP3    H239185   1.279   0.967   0.545  0.0636 -0.9385  0.4947
 5924TIP3   OH239186   0.817   0.605  12.991  0.4015  0.1896  0.6258
 5924TIP3    H139187   0.881   0.627  12.923  0.3749 -0.5773  0.3409
 5924TIP3    H239188   0.742   0.569  12.943  0.0197  0.4762  1.0017
 5925TIP3   OH239189   0.974   2.878   0.876  0.3140  0.0271 -0.0828
 5925TIP3    H139190   1.060   2.842   0.858 -0.2694 -1.0110 -0.9336
 5925TIP3    H239191   0.966   2.876   0.972  1.2396  0.1819  0.0044
 5926TIP3   OH239192   2.499   2.248  14.369  0.1748 -0.1265  0.1261
 5926TIP3    H139193   2.479   2.196  14.447  0.2885  0.7544  0.7665
 5926TIP3    H239194   2.594   2.243  14.361  0.0510 -1.3567 -0.7905
 5927TIP3   OH239195   5.828   6.005   3.394  0.2484  0.4039 -0.2864
 5927TIP3    H139196   5.832   5.912   3.373 -0.4209  0.3891 -0.3709
 5927TIP3    H239197   5.742   6.033   3.364 -0.6034  0.4727  1.9986
 5928TIP3   OH239198   5.772   3.894   2.807 -0.5648  0.2129  0.0874
 5928TIP3    H139199   5.723   3.842   2.871  0.9028 -1.8720 -0.3926
 5928TIP3    H239200   5.849   3.925   2.855  0.1550 -0.7302 -0.4193
 5929TIP3   OH239201   3.973   6.437   3.670 -0.1757  0.3257 -0.1920
 5929TIP3    H139202   4.011   6.515   3.630 -0.4914  0.4378 -0.2810
 5929TIP3    H239203   3.883   6.463   3.693 -0.0937  0.1721  0.3219
 5930TIP3   OH239204   1.235   0.625   3.579 -0.0291  0.0449  0.4217
 5930TIP3    H139205   1.231   0.577   3.497  0.2256 -0.7588  0.8666
 5930TIP3    H239206   1.245   0.716   3.553 -0.0015 -0.1951 -0.4378
 5931TIP3   OH239207   5.780   0.790  12.490 -0.0948 -1.1542 -0.0202
 5931TIP3    H139208   5.827   0.869  12.518  0.5692 -1.7042  0.4430
 5931TIP3    H239209   5.849   0.732  12.457 -0.4944 -1.8132  0.2971
 5932TIP3   OH239210   3.903   5.727  13.585 -0.1342 -0.4441 -0.7257
 5932TIP3    H139211   3.848   5.750  13.510 -1.1277  1.8915  0.6106
 5932TIP3    H239212   3.841   5.700  13.653  0.7105 -1.9042 -0.4930
 5933TIP3   OH239213   1.625   0.173   4.888 -0.2273 -0.3189  0.0328
 5933TIP3    H139214   1.568   0.167   4.965 -0.9138  1.4949 -0.2751
 5933TIP3    H239215   1.691   0.237   4.912  0.7370 -1.2077 -0.2100
 5934TIP3   OH239216   2.834   3.438  11.162 -0.3359 -0.0091 -0.7482
 5934TIP3    H139217   2.770   3.401  11.223 -0.4125  2.3638  0.7442
 5934TIP3    H239218   2.782   3.487  11.099 -0.1128 -0.1329 -1.0277
 5935TIP3   OH239219   6.141   5.441  13.251 -0.0446 -0.3702  0.0063
 5935TIP3    H139220   6.143   5.534  13.275 -0.1004 -0.3626 -0.0196
 5935TIP3    H239221   6.111   5.397  13.330 -3.3984 -0.0613 -0.9495
 5936TIP3   OH239222   1.525   0.718   3.890  0.1443 -0.4355 -0.5465
 5936TIP3    H139223   1.509   0.676   3.805 -2.7942  1.1627 -0.8988
 5936TIP3    H239224   1.620   0.725   3.895  0.4486 -0.6420 -3.6968
 5937TIP3   OH239225   4.977   1.000   6.047  0.6073 -0.3386  0.0687
 5937TIP3    H139226   4.949   1.033   6.133 -0.5939 -1.1720  0.0274
 5937TIP3    H239227   5.051   1.055   6.023  0.4365  0.4532  1.2667
 5938TIP3   OH239228   1.975   1.606  13.815  0.4597  0.1175 -0.2693
 5938TIP3    H139229   1.939   1.602  13.726  0.3481  0.8361 -0.2630
 5938TIP3    H239230   2.026   1.526  13.824  0.0332 -0.2219 -0.7924
 5939TIP3   OH239231   6.757   3.261   1.731  0.0074 -0.3943  0.5233
 5939TIP3    H139232   6.737   3.243   1.639 -0.2012  1.2447  0.2155
 5939TIP3    H239233   6.847   3.230   1.742  0.2646 -0.0363 -0.4191
 5940TIP3   OH239234   5.914   1.459   5.240 -0.0959  0.4439  0.0546
 5940TIP3    H139235   5.865   1.541   5.240 -0.7792  0.1263  2.4090
 5940TIP3    H239236   6.005   1.485   5.255  0.0339  0.8660 -1.3779
 5941TIP3   OH239237   0.080   6.632  12.691  0.1340 -0.1837  0.4143
 5941TIP3    H139238   0.169   6.604  12.714 -0.2738 -2.8610 -0.8066
 5941TIP3    H239239   0.082   6.639  12.595 -0.3877  2.2276  0.5184
 5942TIP3   OH239240   3.625   6.648   0.092  0.3827 -0.4760 -0.2136
 5942TIP3    H139241   3.575   6.721   0.129 -0.3262 -0.8320 -0.4618
 5942TIP3    H239242   3.715   6.664   0.121  0.0233 -0.1846  0.7816
 5943TIP3   OH239243   4.808   3.207   4.293  0.2723  0.4923 -0.5936
 5943TIP3    H139244   4.833   3.114   4.287 -0.6873  0.1694  0.1385
 5943TIP3    H239245   4.716   3.205   4.317  0.3986  1.6435  0.0317
 5944TIP3   OH239246   6.099   6.646   3.741 -0.2576  1.1606 -0.5053
 5944TIP3    H139247   6.184   6.603   3.749 -0.6936  0.3213 -0.2824
 5944TIP3    H239248   6.044   6.581   3.697 -0.5659  2.0068 -1.4141
 5945TIP3   OH239249   2.488   2.454   1.822  0.3691  0.0473  0.7539
 5945TIP3    H139250   2.494   2.490   1.911 -0.5459  0.2364  0.7503
 5945TIP3    H239251   2.547   2.510   1.770 -1.1654  1.7182  0.7086
 5946TIP3   OH239252   6.620   3.225  15.209 -0.4107  0.0150 -0.6895
 5946TIP3    H139253   6.634   3.209  15.116 -0.6104 -0.4673 -0.6393
 5946TIP3    H239254   6.550   3.164  15.234 -1.2829  1.0536 -0.5133
 5947TIP3   OH239255   1.673   3.035   2.150  0.4763  0.3934  0.1045
 5947TIP3    H139256   1.578   3.025   2.144  0.4655 -0.9367  1.7134
 5947TIP3    H239257   1.697   3.083   2.071 -1.1004 -2.2813 -2.1895
 5948TIP3   OH239258   0.033   6.544  16.812  0.0510 -0.6129 -0.3033
 5948TIP3    H139259   0.051   6.472  16.752  3.5102  0.3692 -0.6776
 5948TIP3    H239260   0.090   6.526  16.888  0.4054  1.2531 -0.0676
 5949TIP3   OH239261   5.609   2.604  13.372 -0.5373 -0.7037  0.0353
 5949TIP3    H139262   5.588   2.691  13.337 -0.3582 -0.6230  0.1265
 5949TIP3    H239263   5.703   2.606  13.386 -0.4633 -1.0713 -0.3817
 5950TIP3   OH239264   0.154   5.089  11.685  0.1422  0.2467  0.2897
 5950TIP3    H139265   0.103   5.036  11.623  1.7456  0.2656 -1.0986
 5950TIP3    H239266   0.205   5.148  11.631  1.3223  0.5337  1.6481
 5951TIP3   OH239267   6.529   1.969   2.087  0.4963  0.1518 -0.4057
 5951TIP3    H139268   6.582   1.951   2.165 -1.3580  0.0804  0.8991
 5951TIP3    H239269   6.536   1.889   2.034  1.8787  0.2528 -0.4065
 5952TIP3   OH239270   6.054   4.059  17.045  0.1381 -0.0592  0.1068
 5952TIP3    H139271   6.091   3.972  17.031  1.3310  0.2796  1.0318
 5952TIP3    H239272   5.980   4.045  17.104 -1.0102 -0.6842 -1.4097
 5953TIP3   OH239273   4.649   3.643  15.832 -0.6777 -0.4908 -1.1406
 5953TIP3    H139274   4.586   3.667  15.763  0.8211  1.9126 -1.7793
 5953TIP3    H239275   4.722   3.603  15.785 -0.3978 -0.4474 -0.7487
 5954TIP3   OH239276   2.521   3.267  12.739  0.1697  0.1779 -0.0530
 5954TIP3    H139277   2.486   3.331  12.802 -0.8431 -0.5205  0.1084
 5954TIP3    H239278   2.450   3.205  12.726  0.8940 -0.5166 -0.7702
 5955TIP3   OH239279   4.223   5.586   0.312  0.2232  0.1755 -0.1758
 5955TIP3    H139280   4.142   5.550   0.276  0.5952 -0.9957  0.1192
 5955TIP3    H239281   4.283   5.591   0.237  0.9626 -2.1586  0.1850
 5956TIP3   OH239282   6.115   5.373  12.196  0.3094  0.5634 -0.4640
 5956TIP3    H139283   6.123   5.285  12.162  0.8119  0.5121 -0.2199
 5956TIP3    H239284   6.070   5.422  12.127 -0.2474  0.0477 -0.4713
 5957TIP3   OH239285   2.284   5.700  12.446 -0.3880 -0.1687  0.4245
 5957TIP3    H139286   2.360   5.744  12.410 -0.5466 -0.2812 -0.0497
 5957TIP3    H239287   2.295   5.707  12.541 -0.2044  0.5241  0.3528
 5958TIP3   OH239288   1.426   1.188  15.577 -0.8000  0.2403 -0.0339
 5958TIP3    H139289   1.499   1.195  15.516 -1.0503  1.8073 -0.2092
 5958TIP3    H239290   1.350   1.170  15.523 -1.2135  2.6903 -0.4081
 5959TIP3   OH239291   6.146   2.128   4.367 -0.1705  0.1511 -0.3377
 5959TIP3    H139292   6.141   2.090   4.455  0.8142  0.5074 -0.1195
 5959TIP3    H239293   6.204   2.203   4.376 -1.1863  1.0551 -1.0032
 5960TIP3   OH239294   5.052   0.333   5.735  0.3826 -0.9396  0.1358
 5960TIP3    H139295   5.020   0.364   5.819 -0.1499 -1.9010  0.3126
 5960TIP3    H239296   5.132   0.285   5.755  1.7190  1.0349 -0.2475
 5961TIP3   OH239297   6.314   5.397   5.133 -0.0416  0.0339  0.7811
 5961TIP3    H139298   6.232   5.350   5.149 -0.0953 -0.1793 -0.0429
 5961TIP3    H239299   6.361   5.342   5.070  0.0978  0.8602  0.1538
 5962TIP3   OH239300   6.239   3.322  15.210  0.5291 -0.6704  0.1659
 5962TIP3    H139301   6.173   3.323  15.141  2.8644  0.0036 -2.2380
 5962TIP3    H239302   6.273   3.233  15.209 -0.2919 -1.0231  1.4182
 5963TIP3   OH239303   6.275   4.070  15.950  0.0599  0.0096  0.0055
 5963TIP3    H139304   6.197   4.094  16.001 -0.0137 -1.7455  0.7727
 5963TIP3    H239305   6.269   4.124  15.871 -0.6845  1.6026  1.1022
 5964TIP3   OH239306   3.549   3.965  11.487  0.8930 -0.1196  0.0871
 5964TIP3    H139307   3.545   3.971  11.583 -1.2910 -0.0681  0.0435
 5964TIP3    H239308   3.624   3.907  11.470  1.0493 -0.4990  1.8426
 5965TIP3   OH239309   1.825   5.647  13.490 -0.8562 -0.2504 -0.1771
 5965TIP3    H139310   1.765   5.710  13.531 -0.5620 -0.5367  0.7091
 5965TIP3    H239311   1.883   5.701  13.437 -0.9585  0.1798  0.1395
 5966TIP3   OH239312   3.750   6.669  11.859  0.0183  0.1943  0.3161
 5966TIP3    H139313   3.665   6.629  11.877 -0.2472 -0.3111 -1.7771
 5966TIP3    H239314   3.739   6.761  11.885 -1.0825  0.0772  0.3227
 5967TIP3   OH239315   2.403   2.314   3.124 -0.0092  0.1389 -0.3154
 5967TIP3    H139316   2.312   2.342   3.118  0.6204  2.0574 -2.3922
 5967TIP3    H239317   2.416   2.258   3.047  0.5095 -0.2727  0.0680
 5968TIP3   OH239318   4.362   4.599  16.240 -0.4216  0.4618  0.1277
 5968TIP3    H139319   4.376   4.626  16.150  1.4651  0.4117  0.3527
 5968TIP3    H239320   4.430   4.645  16.290 -1.8502  1.0481  1.6553
 5969TIP3   OH239321   5.497   3.436   2.289  0.0637 -1.0219 -0.1456
 5969TIP3    H139322   5.515   3.363   2.349  0.2553  0.9160  2.3513
 5969TIP3    H239323   5.507   3.514   2.344 -2.4920  0.8160 -2.0656
 5970TIP3   OH239324   3.664   5.339   4.647  0.0038 -0.2301  0.1891
 5970TIP3    H139325   3.611   5.363   4.723 -1.3390 -1.6675 -0.2212
 5970TIP3    H239326   3.599   5.308   4.582  1.3407 -2.2426 -0.2736
 5971TIP3   OH239327   3.818   0.727  16.399  0.3028  0.3388 -0.8095
 5971TIP3    H139328   3.825   0.822  16.391  0.9996  0.2788 -0.9424
 5971TIP3    H239329   3.870   0.706  16.476 -0.9292  0.1992  0.0064
 5972TIP3   OH239330   1.862   1.101  15.487  0.0100  0.1782  0.1357
 5972TIP3    H139331   1.776   1.062  15.500  0.6552 -1.4986 -0.3022
 5972TIP3    H239332   1.884   1.140  15.572 -1.2695  0.8517  0.1685
 5973TIP3   OH239333   6.601   1.895  14.299  0.2390  0.3881 -0.3715
 5973TIP3    H139334   6.602   1.917  14.392  1.6652  0.7289 -0.4450
 5973TIP3    H239335   6.515   1.857  14.284 -0.5078  1.5422  0.8029
 5974TIP3   OH239336   3.128   2.395   6.514 -0.2090  1.0939  0.6420
 5974TIP3    H139337   3.126   2.356   6.602  2.5866  2.4704  1.4222
 5974TIP3    H239338   3.083   2.479   6.524  0.8798  1.6451  1.0074
 5975TIP3   OH239339   1.874   2.495   5.233 -0.0205  0.6818  0.1244
 5975TIP3    H139340   1.921   2.538   5.305 -0.6897 -0.1647  1.0984
 5975TIP3    H239341   1.785   2.531   5.238  0.3800  1.9738 -1.4520
 5976TIP3   OH239342   1.590   0.826   3.127  0.1802  0.3157  0.3490
 5976TIP3    H139343   1.629   0.900   3.080  0.6007 -0.0523  0.1176
 5976TIP3    H239344   1.554   0.770   3.058 -0.3309  0.4077  0.5359
 5977TIP3   OH239345   1.320   1.215   0.277  0.1120  0.4058  0.0167
 5977TIP3    H139346   1.306   1.255   0.363  2.4118 -0.6369  0.9744
 5977TIP3    H239347   1.367   1.282   0.227  1.4751 -0.0287  0.6626
 5978TIP3   OH239348   0.079   2.877   5.004  0.3345  0.6834 -0.2697
 5978TIP3    H139349   0.012   2.834   4.951  0.4469 -0.3892  0.4321
 5978TIP3    H239350   0.125   2.934   4.943 -1.3849  1.6631 -0.7105
 5979TIP3   OH239351   5.115   0.518  16.590 -0.5062  0.1384 -0.3476
 5979TIP3    H139352   5.159   0.566  16.520 -0.2724  0.5366  0.0662
 5979TIP3    H239353   5.181   0.456  16.622 -0.0904  1.0085  0.5408
 5980TIP3   OH239354   0.631   5.907   5.398 -0.4543 -0.1059 -0.6905
 5980TIP3    H139355   0.685   5.974   5.441 -1.3146  0.6611 -0.7839
 5980TIP3    H239356   0.601   5.851   5.469  2.2081 -1.8844 -0.8362
 5981TIP3   OH239357   1.972   3.016  15.543 -0.7155 -0.0489  0.3582
 5981TIP3    H139358   1.927   3.094  15.575 -0.2844 -0.3665  1.7944
 5981TIP3    H239359   1.909   2.975  15.483 -0.4300  2.1011 -1.5642
 5982TIP3   OH239360   0.474   5.769  11.263  0.4449  0.4453  0.0591
 5982TIP3    H139361   0.468   5.677  11.289 -1.5145  0.3440 -0.6016
 5982TIP3    H239362   0.533   5.769  11.188  1.1915 -0.1210  0.6283
 5983TIP3   OH239363   0.984   2.753   0.134  0.0247 -0.3342  0.0253
 5983TIP3    H139364   0.900   2.798   0.137 -0.1857 -0.2416 -3.3890
 5983TIP3    H239365   1.049   2.820   0.155 -0.5728  0.4975 -0.7252
 5984TIP3   OH239366   4.556   0.573  13.072  0.0120 -0.1534  0.0482
 5984TIP3    H139367   4.618   0.633  13.114 -0.7669  0.6401  0.0960
 5984TIP3    H239368   4.519   0.624  12.999 -0.4685 -0.6621 -0.0715
 5985TIP3   OH239369   1.118   3.291  15.885  0.1397  0.7710  0.2818
 5985TIP3    H139370   1.037   3.284  15.835  0.4735  1.4137 -0.3640
 5985TIP3    H239371   1.090   3.320  15.972 -0.5471 -1.3651  0.8409
 5986TIP3   OH239372   2.886   2.064  17.332 -0.3467  0.5882 -0.3328
 5986TIP3    H139373   2.977   2.044  17.350 -0.3086 -0.1212 -1.2333
 5986TIP3    H239374   2.838   2.031  17.409 -0.0572 -1.0648 -0.8267
 5987TIP3   OH239375   2.056   6.242  15.623  0.3622 -0.3185 -0.3309
 5987TIP3    H139376   2.049   6.337  15.612  1.4929 -0.2063 -0.2569
 5987TIP3    H239377   2.011   6.224  15.706  1.6367  0.4172  0.5606
 5988TIP3   OH239378   2.276   2.104   6.009  0.1049  0.3361 -0.6934
 5988TIP3    H139379   2.350   2.154   6.044  0.6858 -0.4987 -0.6856
 5988TIP3    H239380   2.198   2.152   6.038  0.6307  0.8877 -0.1714
 5989TIP3   OH239381   2.639   3.369   1.936  0.4459  0.1916 -0.3806
 5989TIP3    H139382   2.564   3.423   1.964  0.9097  0.1711  0.9827
 5989TIP3    H239383   2.628   3.287   1.984  0.2621 -0.5996 -1.7283
 5990TIP3   OH239384   5.572   4.317   2.141 -0.2101 -0.5770 -0.1635
 5990TIP3    H139385   5.661   4.340   2.117 -0.7246  1.7657 -0.1500
 5990TIP3    H239386   5.551   4.377   2.213 -1.3892 -1.9545  0.7087
 5991TIP3   OH239387   2.584   2.926   3.666  0.3464 -0.0292 -1.3058
 5991TIP3    H139388   2.510   2.872   3.638  0.3197 -0.6931 -0.0559
 5991TIP3    H239389   2.653   2.863   3.687  0.4201  0.4221 -0.1063
 5992TIP3   OH239390   1.211   0.777  14.029 -0.4085  0.0772  0.1374
 5992TIP3    H139391   1.121   0.751  14.049 -1.5571  1.8456 -2.2683
 5992TIP3    H239392   1.244   0.707  13.973 -0.8079  0.1336 -0.1731
 5993TIP3   OH239393   1.541   3.628   3.517  0.3366  0.4131 -0.4448
 5993TIP3    H139394   1.622   3.578   3.516  0.1848  0.0461  1.6507
 5993TIP3    H239395   1.552   3.692   3.587 -1.1939  0.3171 -0.0734
 5994TIP3   OH239396   0.338   3.918   3.356 -0.7547  0.3008 -0.0674
 5994TIP3    H139397   0.395   3.910   3.279 -0.4961 -0.5228  0.1949
 5994TIP3    H239398   0.326   4.012   3.367 -1.2153  0.4334 -1.4183
 5995TIP3   OH239399   1.269   3.091   0.041 -0.3495  0.1446 -0.2700
 5995TIP3    H139400   1.339   3.156   0.053  0.5815 -0.3709 -2.3084
 5995TIP3    H239401   1.315   3.007   0.040 -1.2000 -0.3322 -0.1455
 5996TIP3   OH239402   4.993   3.518  15.511 -0.0212  0.2786 -0.1417
 5996TIP3    H139403   5.058   3.584  15.533  1.2898 -0.1958 -2.3538
 5996TIP3    H239404   4.909   3.565  15.513  0.2798  0.8994  2.7181
 5997TIP3   OH239405   5.355   1.730   1.570 -0.2126 -0.2718 -0.1594
 5997TIP3    H139406   5.395   1.689   1.647 -0.2391 -0.1421 -0.0744
 5997TIP3    H239407   5.366   1.824   1.585  0.1947 -0.2611 -0.5449
 5998TIP3   OH239408   3.086   3.897   6.662 -0.3330 -0.2121  0.9098
 5998TIP3    H139409   3.029   3.834   6.618 -0.5937  1.5907 -1.5158
 5998TIP3    H239410   3.174   3.874   6.634 -0.4784  0.7884 -0.4568
 5999TIP3   OH239411   2.396   4.320   0.230 -1.0742 -0.0487  0.0394
 5999TIP3    H139412   2.308   4.348   0.206 -0.3052  1.5993 -1.0541
 5999TIP3    H239413   2.451   4.397   0.214  0.2198 -0.1650  3.1204
 6000TIP3   OH239414   0.074   2.920   2.311 -0.3062 -0.4724 -0.4392
 6000TIP3    H139415  -0.006   2.886   2.271 -0.1830 -0.4649 -0.6940
 6000TIP3    H239416   0.100   2.853   2.374 -1.3467  0.1924  0.7572
 6001TIP3   OH239417   0.647   3.132  15.140 -0.4831 -0.1639 -0.0803
 6001TIP3    H139418   0.558   3.123  15.107 -0.8931 -0.3213  1.0163
 6001TIP3    H239419   0.643   3.098  15.230  0.4270  0.8418  0.3682
 6002TIP3   OH239420   5.520   0.432  12.963 -0.2498  0.1314  0.6029
 6002TIP3    H139421   5.534   0.473  12.877  1.1924  2.6220  1.9162
 6002TIP3    H239422   5.474   0.499  13.014 -1.0208 -1.2748  1.8163
 6003TIP3   OH239423   1.376   1.663   1.428 -0.5831 -0.2830 -0.4875
 6003TIP3    H139424   1.372   1.688   1.335 -0.0944  1.0009 -0.1905
 6003TIP3    H239425   1.297   1.701   1.466  0.3278  1.1859  0.0362
 6004TIP3   OH239426   0.026   1.534   0.765  0.7059  0.1658 -0.1204
 6004TIP3    H139427  -0.067   1.533   0.784  0.4305  0.6481 -1.3704
 6004TIP3    H239428   0.036   1.478   0.687  1.3281  0.8221 -0.5249
 6005TIP3   OH239429   0.816   5.848  11.416  0.1670 -0.6993 -0.2485
 6005TIP3    H139430   0.841   5.917  11.477  0.4270 -0.2472 -0.8581
 6005TIP3    H239431   0.759   5.892  11.352 -0.5577 -1.2863 -0.0273
 6006TIP3   OH239432   2.394   1.234   2.762 -0.4750 -0.2149  0.4430
 6006TIP3    H139433   2.352   1.267   2.682  0.7836  0.6136  0.1000
 6006TIP3    H239434   2.469   1.184   2.731  0.7921  1.2035  1.1209
 6007TIP3   OH239435   4.655   5.386   5.120  0.1724  0.2682  0.1784
 6007TIP3    H139436   4.688   5.476   5.115 -0.0129  0.3474  0.3704
 6007TIP3    H239437   4.720   5.334   5.073  1.6094  0.1354  2.1708
 6008TIP3   OH239438   5.279   2.597   3.867  0.5871 -0.4614  0.6411
 6008TIP3    H139439   5.336   2.664   3.830 -0.6299 -0.3001 -1.0333
 6008TIP3    H239440   5.321   2.514   3.844  0.2588 -0.3411 -0.4181
 6009TIP3   OH239441   2.316   4.548   3.416  0.3141  0.1325  0.3048
 6009TIP3    H139442   2.240   4.514   3.370  0.5440  0.1689 -0.1030
 6009TIP3    H239443   2.281   4.583   3.498 -0.5098  2.5689 -0.9885
 6010TIP3   OH239444   2.232   4.261   4.097  0.4771  0.1599  0.0525
 6010TIP3    H139445   2.187   4.192   4.048 -0.6683 -0.2797  1.6436
 6010TIP3    H239446   2.278   4.214   4.167 -0.6137  1.0142  1.3796
 6011TIP3   OH239447   5.771   2.487   1.815  0.1458 -0.0588 -0.1826
 6011TIP3    H139448   5.701   2.551   1.808  0.9113  0.7487 -0.8152
 6011TIP3    H239449   5.770   2.442   1.730 -2.0626 -2.7555  1.1435
 6012TIP3   OH239450   3.670   5.636  12.793  0.2657  0.1209  0.0225
 6012TIP3    H139451   3.635   5.562  12.744  0.5830  0.3386 -0.5357
 6012TIP3    H239452   3.637   5.623  12.882  0.3317 -0.6935 -0.0663
 6013TIP3   OH239453   3.846   4.886   4.249 -0.2453 -0.5452 -0.4622
 6013TIP3    H139454   3.935   4.853   4.244  0.1219  0.2461  0.6925
 6013TIP3    H239455   3.791   4.808   4.238  0.5860 -1.2138  0.0610
 6014TIP3   OH239456   5.606   0.017  14.872  0.1732 -0.2599  0.0403
 6014TIP3    H139457   5.654   0.082  14.821 -0.4260 -0.8029 -1.2513
 6014TIP3    H239458   5.516   0.051  14.876 -0.0169 -0.7330 -0.1724
 6015TIP3   OH239459   6.166   4.887   0.450  0.0918 -0.1441 -0.0342
 6015TIP3    H139460   6.115   4.839   0.514 -0.7035 -0.8997 -1.2023
 6015TIP3    H239461   6.248   4.839   0.443  0.7278  0.6760  1.3288
 6016TIP3   OH239462   0.512   0.380  15.612 -0.1957  0.0073 -0.4418
 6016TIP3    H139463   0.492   0.463  15.568 -0.2942 -0.0093 -0.4281
 6016TIP3    H239464   0.462   0.383  15.694 -0.3197 -0.1319 -0.5117
 6017TIP3   OH239465   5.055   5.765  14.753 -0.4977 -0.3269 -0.9224
 6017TIP3    H139466   5.149   5.759  14.771 -0.3354  2.1816 -0.5446
 6017TIP3    H239467   5.049   5.776  14.658 -0.3715 -0.2116 -0.9187
 6018TIP3   OH239468   4.952   5.206   3.911 -0.4739  0.3605 -0.4748
 6018TIP3    H139469   4.868   5.162   3.923 -0.2059 -0.5038 -1.6311
 6018TIP3    H239470   4.932   5.281   3.856 -0.7951  1.2990  0.8593
 6019TIP3   OH239471   2.945   2.612   1.837 -0.3111  0.0330 -0.5897
 6019TIP3    H139472   2.913   2.548   1.900 -0.3323 -0.7378 -1.3648
 6019TIP3    H239473   2.936   2.569   1.752  1.5501  0.2933 -0.9640
 6020TIP3   OH239474   4.719   3.978  12.906 -0.3012  0.8698  0.0917
 6020TIP3    H139475   4.646   4.006  12.851 -1.0425 -0.3879  0.3880
 6020TIP3    H239476   4.797   4.010  12.861 -0.9830  1.3792 -0.7530
 6021TIP3   OH239477   4.448   1.630  11.885 -0.0653  0.4242  0.2152
 6021TIP3    H139478   4.437   1.535  11.898  0.9700  0.1386 -0.8652
 6021TIP3    H239479   4.385   1.653  11.818 -1.9915  0.9937  2.0955
 6022TIP3   OH239480   3.968   0.140  14.459 -0.1662  0.0219 -0.2122
 6022TIP3    H139481   4.024   0.200  14.509  0.4595  0.5447 -1.4712
 6022TIP3    H239482   4.028   0.094  14.401 -0.7897 -1.0371 -0.0382
 6023TIP3   OH239483   5.609   1.997   3.370  0.4082  0.0740  0.5147
 6023TIP3    H139484   5.572   1.939   3.437 -1.0227  0.2647 -0.0695
 6023TIP3    H239485   5.695   1.960   3.351  0.0390 -1.1200  1.0676
 6024TIP3   OH239486   5.566   1.312  13.170  0.4025 -0.1219 -0.0645
 6024TIP3    H139487   5.638   1.374  13.182 -0.8102  1.1650  0.8426
 6024TIP3    H239488   5.519   1.344  13.094 -2.2929  2.3074  2.3978
 6025TIP3   OH239489   2.499   6.734  16.122  0.3155 -0.0436  0.0873
 6025TIP3    H139490   2.585   6.705  16.154 -0.0419 -0.1716  0.9527
 6025TIP3    H239491   2.483   6.680  16.044  0.9512 -0.1294  0.0110
 6026TIP3   OH239492   0.101   6.464  13.744  0.6160  0.2094 -0.1651
 6026TIP3    H139493   0.039   6.402  13.783  1.3049 -0.5069 -0.1666
 6026TIP3    H239494   0.064   6.485  13.658 -1.5523  2.7401  1.2436
 6027TIP3   OH239495   4.629   6.379   0.945 -0.0503  0.3043  0.1640
 6027TIP3    H139496   4.549   6.359   0.896  0.2515  0.9854 -0.6434
 6027TIP3    H239497   4.681   6.299   0.939 -0.3230  0.1381 -0.0154
 6028TIP3   OH239498   3.863   2.534   4.720 -0.1062  0.1445 -0.7252
 6028TIP3    H139499   3.784   2.544   4.668 -1.5607 -2.7442  0.6964
 6028TIP3    H239500   3.913   2.467   4.675 -0.4276 -0.9267  0.4494
 6029TIP3   OH239501   5.923   1.338  14.111  0.0999 -0.3883 -0.0146
 6029TIP3    H139502   5.924   1.431  14.089  0.5179 -0.3894 -0.0129
 6029TIP3    H239503   6.008   1.323  14.152  0.0922 -0.8017 -0.1482
 6030TIP3   OH239504   0.976   1.672   0.142 -0.0562  0.0895 -0.0157
 6030TIP3    H139505   1.047   1.734   0.126 -0.5815  0.6109 -0.4018
 6030TIP3    H239506   0.915   1.687   0.070 -1.1752  0.5600  0.9978
 6031TIP3   OH239507   6.488   5.643   1.182  0.3135 -0.0552 -0.0751
 6031TIP3    H139508   6.413   5.587   1.162  1.1212 -1.2466  0.1614
 6031TIP3    H239509   6.564   5.586   1.173  1.0258  0.3844  2.3247
 6032TIP3   OH239510   2.744   1.952  11.451  0.1413 -0.6771 -0.2830
 6032TIP3    H139511   2.788   1.955  11.536 -1.8560  0.3156  0.7910
 6032TIP3    H239512   2.767   2.035  11.409 -1.9352  0.6485  1.0128
 6033TIP3   OH239513   2.062   1.253   4.448 -0.1672 -0.4835 -0.3064
 6033TIP3    H139514   2.140   1.205   4.423 -1.0616 -3.0654  1.3870
 6033TIP3    H239515   1.991   1.212   4.399 -0.7344  0.5158 -0.3591
 6034TIP3   OH239516   4.258   1.059  12.302  0.3275  0.3737 -0.1668
 6034TIP3    H139517   4.266   1.147  12.338  2.1732  0.1548  0.0714
 6034TIP3    H239518   4.341   1.044  12.256  0.4454 -1.5646  0.5577
 6035TIP3   OH239519   2.743   6.155   3.995 -0.3186 -0.4077 -0.2198
 6035TIP3    H139520   2.787   6.133   3.913  0.6141  3.0364 -0.7936
 6035TIP3    H239521   2.789   6.103   4.062  0.7266 -1.2108 -1.5220
 6036TIP3   OH239522   5.344   6.695  14.177  0.3859  0.6104 -0.8521
 6036TIP3    H139523   5.377   6.639  14.247 -1.7705 -1.4959 -1.4036
 6036TIP3    H239524   5.330   6.780  14.220 -1.5071 -0.7658  1.5250
 6037TIP3   OH239525   6.656   2.269  13.454 -0.1240  0.1285 -0.0059
 6037TIP3    H139526   6.601   2.320  13.513  0.0763  0.4077 -0.0577
 6037TIP3    H239527   6.665   2.184  13.497  2.5552  1.2701  1.9788
 6038TIP3   OH239528   0.666   2.694   0.323  0.2246 -0.1640  0.1691
 6038TIP3    H139529   0.616   2.614   0.308 -1.6324  0.8666  0.6236
 6038TIP3    H239530   0.637   2.754   0.254  0.9378  0.4213  0.3595
 6039TIP3   OH239531   0.137   1.691  15.851 -0.0058 -0.2949  0.2453
 6039TIP3    H139532   0.064   1.746  15.823 -0.6723 -0.8945  0.7720
 6039TIP3    H239533   0.101   1.603  15.853  0.2741 -0.4038  2.0539
 6040TIP3   OH239534   4.810   2.475   1.377 -0.3055  0.9093  0.2493
 6040TIP3    H139535   4.799   2.568   1.358  1.5643  1.1273  0.0203
 6040TIP3    H239536   4.905   2.461   1.374 -0.5763 -1.1406 -0.3851
 6041TIP3   OH239537   4.578   0.563   2.570 -0.4639 -0.2030  0.1267
 6041TIP3    H139538   4.556   0.520   2.652 -0.6943 -0.6760 -0.1736
 6041TIP3    H239539   4.539   0.650   2.576 -2.0364 -0.8577 -0.2070
 6042TIP3   OH239540   2.624   3.586  16.988  0.6552 -0.2363 -0.0564
 6042TIP3    H139541   2.622   3.555  17.079  3.7580  1.1121  0.6378
 6042TIP3    H239542   2.716   3.577  16.963 -0.3726 -2.1160 -3.7303
 6043TIP3   OH239543   6.086   5.657  14.834  0.1341  0.2950  0.0226
 6043TIP3    H139544   6.042   5.576  14.806  0.3855  0.6848 -1.6114
 6043TIP3    H239545   6.155   5.627  14.892  0.2684 -0.6970 -0.6156
 6044TIP3   OH239546   5.129   3.343   4.913  0.3768  0.1413  0.3213
 6044TIP3    H139547   5.174   3.288   4.977  0.7727 -0.5457 -0.5228
 6044TIP3    H239548   5.180   3.423   4.909  1.0189 -0.2772  0.0319
 6045TIP3   OH239549   4.462   2.197   3.364  0.1549 -0.2671 -0.0416
 6045TIP3    H139550   4.540   2.158   3.323 -0.5306 -1.1455 -0.5569
 6045TIP3    H239551   4.398   2.203   3.293 -0.2098  0.5824  0.3428
 6046TIP3   OH239552   6.113   2.763   2.570  0.3139 -0.6381  0.1186
 6046TIP3    H139553   6.024   2.748   2.604  0.0701 -0.1136 -0.2682
 6046TIP3    H239554   6.127   2.691   2.509  0.5436 -1.2781  0.9064
 6047TIP3   OH239555   0.335   5.064   2.785 -0.1610  0.3446  0.0812
 6047TIP3    H139556   0.343   4.969   2.783  1.8773  0.2609  3.5871
 6047TIP3    H239557   0.414   5.094   2.830 -0.7510  3.7481 -0.8275
 6048TIP3   OH239558   5.962   3.367  16.748 -0.5153  0.5809  0.0111
 6048TIP3    H139559   5.908   3.290  16.766  1.4521 -0.9523 -0.3087
 6048TIP3    H239560   6.008   3.384  16.830  1.8144 -0.9561 -0.8635
 6049TIP3   OH239561   5.555   1.019   1.620 -0.3771 -0.4160  0.4382
 6049TIP3    H139562   5.460   1.020   1.633 -0.2372 -1.1649  1.6041
 6049TIP3    H239563   5.583   1.107   1.644 -0.8301  0.0175 -0.5372
 6050TIP3   OH239564   2.772   1.926   0.188  0.0293 -0.2165  0.7721
 6050TIP3    H139565   2.752   1.833   0.199 -0.2726 -0.1005  1.2348
 6050TIP3    H239566   2.687   1.970   0.193  0.0179 -0.0176 -0.6991
 6051TIP3   OH239567   4.569   5.111  17.084 -0.2973 -0.2612 -1.0658
 6051TIP3    H139568   4.660   5.129  17.061  0.5944  0.8885  2.6161
 6051TIP3    H239569   4.569   5.018  17.109 -0.5000 -0.6203 -2.3349
 6052TIP3   OH239570   5.718   5.185  16.756  0.1689 -0.1782  0.1205
 6052TIP3    H139571   5.752   5.102  16.723  0.3142 -0.3000  0.5586
 6052TIP3    H239572   5.698   5.236  16.678  2.4415  0.3571 -0.2010
 6053TIP3   OH239573   2.380   1.135   0.703 -0.0543 -0.3818  0.3222
 6053TIP3    H139574   2.389   1.221   0.745 -0.7520  0.4246 -1.1303
 6053TIP3    H239575   2.443   1.080   0.750  1.0215  1.1220  0.7303
 6054TIP3   OH239576   6.510   2.540   2.311 -0.2080 -0.3769  0.2189
 6054TIP3    H139577   6.526   2.523   2.218 -2.7921  0.3845 -0.4499
 6054TIP3    H239578   6.508   2.635   2.318 -1.6227 -0.4175  0.7008
 6055TIP3   OH239579   1.447   4.252   5.141  0.1650  0.2668  0.3905
 6055TIP3    H139580   1.517   4.256   5.206  0.7667  0.7136 -0.2675
 6055TIP3    H239581   1.395   4.331   5.157  1.1113  1.1145 -0.5214
 6056TIP3   OH239582   1.016   3.457  11.713 -0.8262 -0.4380 -0.2363
 6056TIP3    H139583   0.941   3.508  11.743 -1.3822 -0.9932 -0.6512
 6056TIP3    H239584   1.073   3.521  11.671 -0.6521  0.1327  0.8413
 6057TIP3   OH239585   4.279   1.858  15.595  0.0961 -0.7679 -0.1082
 6057TIP3    H139586   4.214   1.824  15.534  1.0038 -0.6402 -1.1692
 6057TIP3    H239587   4.235   1.856  15.680 -0.8041 -2.0020 -0.5753
 6058TIP3   OH239588   3.100   2.588  16.510 -0.7630  0.4510  0.0069
 6058TIP3    H139589   3.136   2.628  16.589 -1.5049 -1.2610  1.2724
 6058TIP3    H239590   3.014   2.554  16.537 -1.0929 -0.0773 -1.5668
 6059TIP3   OH239591   6.354   1.500  13.121 -0.1987 -0.0232 -0.2753
 6059TIP3    H139592   6.299   1.565  13.077 -0.2479 -0.3533 -0.7042
 6059TIP3    H239593   6.329   1.507  13.214 -1.2483 -0.4300 -0.5121
 6060TIP3   OH239594   0.719   2.349  15.303  0.0853  0.5471 -0.6654
 6060TIP3    H139595   0.684   2.421  15.355  0.5072  0.5134 -0.3282
 6060TIP3    H239596   0.793   2.387  15.256 -0.1246  0.5077 -1.0338
 6061TIP3   OH239597   1.026   3.629  14.877  0.5016 -0.2607  0.0952
 6061TIP3    H139598   1.034   3.656  14.786  1.5184  1.6697  0.6981
 6061TIP3    H239599   1.041   3.709  14.927  0.9575 -1.4687  1.9909
 6062TIP3   OH239600   3.261   5.631   1.253  0.2456 -0.4548  0.1428
 6062TIP3    H139601   3.327   5.699   1.241 -0.9305  0.6855 -0.1032
 6062TIP3    H239602   3.203   5.640   1.177  0.5984 -2.3773 -0.4052
 6063TIP3   OH239603   1.912   0.649  17.055 -0.0118 -0.6666 -0.8632
 6063TIP3    H139604   1.972   0.701  17.003 -0.9896 -0.9779 -2.3761
 6063TIP3    H239605   1.968   0.592  17.108  1.0310  0.6620 -0.5026
 6064TIP3   OH239606   5.478   3.896  15.798  0.3049  0.2342  0.2163
 6064TIP3    H139607   5.555   3.902  15.741 -0.2010  1.1583 -0.3863
 6064TIP3    H239608   5.413   3.951  15.756 -0.6859 -0.5130  0.7416
 6065TIP3   OH239609   4.349   5.647  17.224 -0.2469  0.1410 -0.3595
 6065TIP3    H139610   4.270   5.593  17.214 -0.3990  0.3714 -0.4208
 6065TIP3    H239611   4.415   5.603  17.172 -0.7224  0.7158 -1.4803
 6066TIP3   OH239612   6.213   5.255  14.824  0.4086  0.7155 -0.1092
 6066TIP3    H139613   6.145   5.199  14.785 -0.5046  1.7323 -0.0114
 6066TIP3    H239614   6.257   5.198  14.887  0.9838 -0.5490 -1.5662
 6067TIP3   OH239615   1.549   5.888  12.963 -0.3358 -0.4831 -0.0324
 6067TIP3    H139616   1.489   5.828  13.007  0.0377 -0.4721  0.5035
 6067TIP3    H239617   1.609   5.831  12.914 -0.4230 -0.5179 -0.0987
 6068TIP3   OH239618   6.204   3.353   2.208  0.4260  0.1189  0.1072
 6068TIP3    H139619   6.210   3.391   2.296 -0.1190  0.5708 -0.0480
 6068TIP3    H239620   6.112   3.330   2.197  0.7063 -1.0861  0.1207
 6069TIP3   OH239621   2.342   3.682   2.488 -0.7865  0.5367 -0.8158
 6069TIP3    H139622   2.437   3.686   2.475 -0.6096  0.8219  0.5090
 6069TIP3    H239623   2.320   3.589   2.474 -0.4900  0.6353 -2.1230
 6070TIP3   OH239624   2.275   1.107   0.440 -0.1564 -0.0034 -0.0045
 6070TIP3    H139625   2.318   1.128   0.523  0.8631 -2.3483  0.1438
 6070TIP3    H239626   2.253   1.014   0.447 -1.9663  0.2448 -1.5619
 6071TIP3   OH239627   0.097   0.983  13.861  0.1618  0.2830 -0.4033
 6071TIP3    H139628   0.054   1.034  13.792 -0.9927  0.9618  0.7757
 6071TIP3    H239629   0.133   0.906  13.816  1.7155  1.9628 -2.1851
 6072TIP3   OH239630   5.681   5.043   1.734  0.0433  0.2244 -0.3182
 6072TIP3    H139631   5.750   5.056   1.668  0.3013  2.4435  0.3001
 6072TIP3    H239632   5.602   5.024   1.682  0.4145  1.1092 -1.2531
 6073TIP3   OH239633   6.332   5.466   5.739 -0.8165  0.5469 -0.2528
 6073TIP3    H139634   6.329   5.421   5.654 -2.9705  0.5855 -0.2674
 6073TIP3    H239635   6.416   5.511   5.739 -0.5521  0.1658 -2.1722
 6074TIP3   OH239636   4.549   4.622  14.680 -0.9321 -0.1385 -0.0982
 6074TIP3    H139637   4.585   4.544  14.639  1.3377  1.1841 -0.7728
 6074TIP3    H239638   4.624   4.666  14.719 -2.4733  0.6019  2.2555
 6075TIP3   OH239639   0.049   3.878  15.891  0.2026  0.4454  0.3882
 6075TIP3    H139640   0.023   3.904  15.802 -1.4383 -0.6239  0.5123
 6075TIP3    H239641   0.144   3.866  15.885  0.2887  1.5052 -0.9182
 6076TIP3   OH239642   1.168   5.989   1.349 -0.0246 -0.6059 -0.1217
 6076TIP3    H139643   1.098   6.037   1.393  1.6231 -1.1095  3.3904
 6076TIP3    H239644   1.225   6.056   1.313 -0.6111 -0.1212 -0.1682
 6077TIP3   OH239645   5.624   0.941  15.043  0.2564  0.1345  0.5970
 6077TIP3    H139646   5.718   0.957  15.033  0.1319  1.3758  1.1299
 6077TIP3    H239647   5.588   0.956  14.956  0.7149 -1.7901  0.0530
 6078TIP3   OH239648   0.816   1.113   5.466  0.1674 -0.6281  0.0128
 6078TIP3    H139649   0.872   1.191   5.460  0.1385 -0.5420  0.7514
 6078TIP3    H239650   0.847   1.068   5.545 -1.2286 -0.2474  0.8030
 6079TIP3   OH239651   3.488   2.917   2.969  0.1558 -0.1657 -0.1358
 6079TIP3    H139652   3.457   2.878   2.888 -0.8550  3.0749 -1.4622
 6079TIP3    H239653   3.410   2.926   3.024  0.9423 -3.0547  1.6905
 6080TIP3   OH239654   5.854   6.237  13.669  0.2055 -0.2655  0.6077
 6080TIP3    H139655   5.852   6.330  13.647  1.8636  0.3470  2.6894
 6080TIP3    H239656   5.795   6.196  13.606 -0.4654  2.1601 -0.4612
 6081TIP3   OH239657   0.829   4.592   2.640  0.0672  0.4449  0.0909
 6081TIP3    H139658   0.818   4.580   2.545  0.9441  1.6356 -0.1858
 6081TIP3    H239659   0.923   4.599   2.653  0.0560 -1.0668  1.2695
 6082TIP3   OH239660   6.137   5.219   5.793 -0.0787  0.2553 -0.5210
 6082TIP3    H139661   6.205   5.156   5.817  1.4588  1.5759 -1.1964
 6082TIP3    H239662   6.066   5.166   5.759  0.2302 -1.2369  1.0398
 6083TIP3   OH239663   2.560   5.199   0.114 -0.1699  0.4523  0.5686
 6083TIP3    H139664   2.557   5.135   0.043  1.7437  0.3520  0.5264
 6083TIP3    H239665   2.470   5.232   0.120 -0.6401 -0.3859 -1.0970
 6084TIP3   OH239666   2.666   1.795   4.892 -0.0151 -0.0765 -0.0830
 6084TIP3    H139667   2.619   1.767   4.813 -0.3510  0.5666 -0.1181
 6084TIP3    H239668   2.600   1.796   4.961  0.4976 -1.6677  0.4665
 6085TIP3   OH239669   2.418   0.632  17.009 -0.4568 -0.1707  0.3532
 6085TIP3    H139670   2.505   0.650  16.972 -0.2807  1.2330  1.3731
 6085TIP3    H239671   2.424   0.542  17.040  0.8028  0.0534  0.8254
 6086TIP3   OH239672   5.460   4.786  15.817  0.3936 -0.4427  0.9554
 6086TIP3    H139673   5.523   4.801  15.747 -1.8686  0.7940 -0.9803
 6086TIP3    H239674   5.426   4.698  15.800 -0.3759 -0.0295  0.2089
 6087TIP3   OH239675   5.834   1.866  13.296  0.0501  0.1915  0.2788
 6087TIP3    H139676   5.818   1.951  13.256  0.9815 -0.4408 -1.5553
 6087TIP3    H239677   5.750   1.841  13.333 -0.8349  0.9265 -1.1258
 6088TIP3   OH239678   5.130   0.582   1.884 -0.7914 -0.0410  0.0100
 6088TIP3    H139679   5.082   0.571   1.966 -0.1175  0.5382  0.5011
 6088TIP3    H239680   5.063   0.597   1.818 -1.3161  0.0577  0.5612
 6089TIP3   OH239681   1.962   4.246  16.146 -0.2064 -0.1611  0.1933
 6089TIP3    H139682   1.930   4.334  16.163  1.2330  0.1548  1.4152
 6089TIP3    H239683   1.885   4.190  16.159 -1.6164  0.9973 -2.4362
 6090TIP3   OH239684   4.599   0.064   3.792  0.2950 -0.5908 -0.7593
 6090TIP3    H139685   4.642   0.146   3.817  1.7747 -1.4390 -0.4041
 6090TIP3    H239686   4.642  -0.003   3.845 -0.6567 -1.6519 -1.2854
 6091TIP3   OH239687   4.411   3.548  13.800 -0.6368  0.0595 -0.3203
 6091TIP3    H139688   4.439   3.469  13.845 -1.1670  0.0028 -0.0840
 6091TIP3    H239689   4.423   3.618  13.864 -0.5524  0.1089 -0.3903
 6092TIP3   OH239690   0.396   2.126  17.202  0.5900 -0.3446  0.2861
 6092TIP3    H139691   0.369   2.090  17.287  0.5167 -0.3423  0.2639
 6092TIP3    H239692   0.490   2.109  17.198  0.4344 -1.1621 -0.0314
 6093TIP3   OH239693   1.673   1.734   0.471  0.0314 -0.8134  0.2374
 6093TIP3    H139694   1.632   1.650   0.495  1.6605 -1.6787  0.1454
 6093TIP3    H239695   1.739   1.710   0.406  1.4246  0.3453  1.1721
 6094TIP3   OH239696   4.780   6.355  14.755  0.0553  0.2990 -0.1117
 6094TIP3    H139697   4.869   6.373  14.786  0.0467 -2.5112  1.8821
 6094TIP3    H239698   4.789   6.280  14.697 -1.0954 -0.5731  0.8137
 6095TIP3   OH239699   3.639   0.916  12.417  0.0865  0.3092  0.3027
 6095TIP3    H139700   3.695   0.940  12.491 -1.6457 -0.1925  1.8542
 6095TIP3    H239701   3.660   0.825  12.399  1.3182  0.7419 -0.6368
 6096TIP3   OH239702   6.271   3.258   1.011  0.3185 -0.6608  0.6900
 6096TIP3    H139703   6.183   3.225   0.995 -0.2197  0.9087  0.2244
 6096TIP3    H239704   6.325   3.179   1.023 -1.3845 -1.6433  2.4185
 6097TIP3   OH239705   5.908   3.178   1.429  0.8363 -0.4724 -0.2310
 6097TIP3    H139706   5.913   3.266   1.392  1.9116 -0.9102 -1.1834
 6097TIP3    H239707   5.961   3.183   1.509 -2.5185  0.8131  2.1291
 6098TIP3   OH239708   5.511   4.112   1.670 -0.3098  0.0074 -0.1589
 6098TIP3    H139709   5.526   4.144   1.759  1.3436 -1.2607  0.0623
 6098TIP3    H239710   5.419   4.133   1.653 -1.0032 -0.6836  2.2624
 6099TIP3   OH239711   3.712   1.199  17.056 -0.0334  0.1553 -0.0899
 6099TIP3    H139712   3.627   1.157  17.067 -0.8669  1.9658  0.7965
 6099TIP3    H239713   3.766   1.133  17.013 -1.7521 -1.1882 -0.2922
 6100TIP3   OH239714   5.242   0.794   2.184  0.5221 -0.1076  0.0633
 6100TIP3    H139715   5.181   0.857   2.222  0.2954 -0.6794  0.6443
 6100TIP3    H239716   5.195   0.711   2.184  0.7763 -0.2694 -0.8122
 6101TIP3   OH239717   6.731   1.632  11.772  0.1815 -0.5281 -0.7149
 6101TIP3    H139718   6.744   1.545  11.734 -2.6986 -1.8067  0.8766
 6101TIP3    H239719   6.645   1.659  11.740  0.7207  1.4649 -0.6050
 6102TIP3   OH239720   4.686   4.378   0.289 -0.7492 -0.5690  0.0659
 6102TIP3    H139721   4.777   4.351   0.291 -0.0763  1.4111  2.8991
 6102TIP3    H239722   4.651   4.350   0.374 -2.1950  0.4865 -0.1322
 6103TIP3   OH239723   2.411   5.555   3.144 -0.2931 -0.3954 -0.5259
 6103TIP3    H139724   2.393   5.645   3.173  0.0421 -0.3812 -0.3583
 6103TIP3    H239725   2.464   5.565   3.065 -2.2115 -0.4114 -1.8979
 6104TIP3   OH239726   1.798   3.394  16.613 -0.3679  0.2476 -0.3644
 6104TIP3    H139727   1.715   3.387  16.661 -0.0511 -0.5260  0.0803
 6104TIP3    H239728   1.865   3.396  16.681  0.0894 -0.7902 -0.7704
 6105TIP3   OH239729   2.071   3.795   2.513 -0.2650  0.2163  0.0476
 6105TIP3    H139730   2.050   3.714   2.466  2.0013  0.7331 -2.0812
 6105TIP3    H239731   2.166   3.796   2.517 -0.2809  1.1502  3.1943
 6106TIP3   OH239732   3.315   2.345  14.255  0.2488  0.2579  0.0891
 6106TIP3    H139733   3.331   2.435  14.283  0.4700 -0.1144  1.2188
 6106TIP3    H239734   3.364   2.291  14.317  0.1259 -0.6473 -0.5745
 6107TIP3   OH239735   1.425   6.613   2.013 -0.3263  0.2349  0.5663
 6107TIP3    H139736   1.393   6.523   2.021 -3.0957  1.1830  1.3260
 6107TIP3    H239737   1.465   6.617   1.926 -1.7567 -1.2919 -0.2130
 6108TIP3   OH239738   1.278   5.950   4.778  0.2398  0.7774  0.2517
 6108TIP3    H139739   1.233   5.940   4.862 -0.8812  0.6022 -0.3637
 6108TIP3    H239740   1.361   5.992   4.801  1.2553 -1.8591  1.8271
 6109TIP3   OH239741   2.457   0.006   1.595 -0.4440  0.2576  0.2638
 6109TIP3    H139742   2.422   0.093   1.616  2.4590  1.4351  0.7688
 6109TIP3    H239743   2.516  -0.014   1.668  0.0846 -1.4538 -0.5856
 6110TIP3   OH239744   0.223   0.663   3.312 -0.0049  0.6163 -0.0319
 6110TIP3    H139745   0.248   0.685   3.402  0.8120  0.9073 -0.3174
 6110TIP3    H239746   0.170   0.738   3.283  0.1912  0.7793  0.0283
 6111TIP3   OH239747   3.957   2.131  12.678 -0.2153  0.4262 -0.2920
 6111TIP3    H139748   3.895   2.115  12.607 -0.6259 -0.0263  0.1596
 6111TIP3    H239749   3.903   2.127  12.757  0.2509  0.8426  0.0537
 6112TIP3   OH239750   3.766   2.100   0.021  0.2165 -0.0707 -0.2474
 6112TIP3    H139751   3.813   2.053   0.089  0.2952 -1.4288 -1.2090
 6112TIP3    H239752   3.688   2.135   0.066 -1.3302 -3.4589  0.0114
 6113TIP3   OH239753   1.327   0.206  15.445 -0.4757 -0.2626  0.1204
 6113TIP3    H139754   1.241   0.163  15.445 -0.2995 -0.6909 -1.5114
 6113TIP3    H239755   1.345   0.223  15.537 -0.9045 -3.0451  0.8294
 6114TIP3   OH239756   4.696   5.719  12.350  0.2625 -0.2869  0.0297
 6114TIP3    H139757   4.675   5.753  12.263 -0.9049  2.4230  1.2707
 6114TIP3    H239758   4.786   5.688  12.343 -0.2765 -1.5228 -2.4844
 6115TIP3   OH239759   5.563   6.308  11.407 -0.5387 -0.5300  0.1874
 6115TIP3    H139760   5.605   6.372  11.349 -0.1219 -0.5102  0.5115
 6115TIP3    H239761   5.611   6.314  11.489 -1.4073 -0.2535  0.6852
 6116TIP3   OH239762   0.038   1.750   5.533 -0.2787 -0.3037  0.1389
 6116TIP3    H139763  -0.048   1.731   5.569  0.3605 -2.4059  0.7345
 6116TIP3    H239764   0.062   1.671   5.486  0.0411  1.3959 -2.7559
 6117TIP3   OH239765   0.165   5.922  14.041  0.1089  0.6280  0.2142
 6117TIP3    H139766   0.216   5.987  13.993 -0.4323 -0.3059 -1.7375
 6117TIP3    H239767   0.229   5.859  14.072  0.3864  0.6859 -0.2314
 6118TIP3   OH239768   3.296   6.297   0.050  0.2100 -0.3452 -0.2024
 6118TIP3    H139769   3.348   6.223   0.019  0.9522  0.9446 -2.1730
 6118TIP3    H239770   3.262   6.338  -0.029 -1.3660  0.6238  0.9128
 6119TIP3   OH239771   2.693   4.737  12.589 -0.3412 -0.4082 -0.5701
 6119TIP3    H139772   2.686   4.826  12.555 -2.5105  0.2031  1.2321
 6119TIP3    H239773   2.772   4.738  12.644 -1.0875  0.8686  0.5515
 6120TIP3   OH239774   1.554   5.037   1.363  0.0688  0.3126  0.0208
 6120TIP3    H139775   1.561   5.130   1.385  1.2941  0.4706 -0.8941
 6120TIP3    H239776   1.550   4.992   1.447 -2.3891  1.2809  0.4872
 6121TIP3   OH239777   1.404   5.046  13.525 -0.1314  0.1067 -0.2648
 6121TIP3    H139778   1.377   4.957  13.501  0.2711  0.4292 -2.0854
 6121TIP3    H239779   1.355   5.066  13.604 -0.1536 -1.7742  0.2527
 6122TIP3   OH239780   1.967   6.269  16.086 -0.5518  0.1662  0.0489
 6122TIP3    H139781   1.953   6.255  16.179 -2.6408  0.9323 -0.1153
 6122TIP3    H239782   1.930   6.191  16.045 -0.7036  0.3749 -0.2094
 6123TIP3   OH239783   4.550   6.744  13.851  0.1657  0.1577  0.0454
 6123TIP3    H139784   4.529   6.651  13.846  1.7136 -0.1575 -0.8086
 6123TIP3    H239785   4.477   6.787  13.807  0.9917 -0.8920 -2.5078
 6124TIP3   OH239786   2.237   5.598   2.895 -0.1646 -0.6402  0.2255
 6124TIP3    H139787   2.320   5.643   2.909 -0.3307 -0.1422 -0.3622
 6124TIP3    H239788   2.247   5.514   2.941  0.8791 -0.8447 -0.3357
 6125TIP3   OH239789   6.218   3.103  11.944  0.2408 -0.1284 -0.4594
 6125TIP3    H139790   6.182   3.019  11.914  0.3695  0.4627 -2.4114
 6125TIP3    H239791   6.234   3.152  11.864  0.5138  1.6414  0.6260
 6126TIP3   OH239792   0.800   3.230   2.992  0.0456 -0.4796 -0.3765
 6126TIP3    H139793   0.752   3.158   3.033  1.8676 -1.5561 -0.0393
 6126TIP3    H239794   0.739   3.304   2.995 -1.0227 -1.3570  1.4748
 6127TIP3   OH239795   0.077   3.516  14.139  0.4220  0.3439 -0.0305
 6127TIP3    H139796   0.126   3.434  14.129  1.2978  0.7451  0.7973
 6127TIP3    H239797   0.144   3.583  14.150 -0.2975  1.1127 -0.2245
 6128TIP3   OH239798   1.354   2.574  14.885 -0.2548  0.1672  0.2583
 6128TIP3    H139799   1.328   2.639  14.819  1.0164 -0.2530 -0.6877
 6128TIP3    H239800   1.365   2.493  14.836  1.3379 -0.0125  0.8666
 6129TIP3   OH239801   1.032   5.273  13.728  0.7148 -0.2035 -0.3356
 6129TIP3    H139802   1.036   5.369  13.728  0.5839 -0.1975 -0.5922
 6129TIP3    H239803   1.120   5.245  13.753  0.6418 -0.0114  0.1406
 6130TIP3   OH239804   3.717   4.516  13.256  0.6346 -0.4978 -0.0402
 6130TIP3    H139805   3.678   4.599  13.282 -0.0677 -0.8295 -0.0031
 6130TIP3    H239806   3.789   4.540  13.199  0.0223  0.1205 -0.5751
 6131TIP3   OH239807   2.381   4.217  12.425 -0.0746 -0.1432  0.3981
 6131TIP3    H139808   2.448   4.206  12.492 -0.3604  1.4752  0.9982
 6131TIP3    H239809   2.428   4.252  12.349  0.2261 -1.8521 -0.2598
 6132TIP3   OH239810   5.838   5.083  14.196 -0.6415  0.0617  0.1353
 6132TIP3    H139811   5.911   5.111  14.141 -0.5398 -0.9328 -0.2664
 6132TIP3    H239812   5.784   5.161  14.207 -0.4517  0.3760 -1.0377
 6133TIP3   OH239813   6.661   5.077  11.871 -0.4286 -0.1002  0.1997
 6133TIP3    H139814   6.668   5.021  11.947 -0.5036  0.1568  0.3988
 6133TIP3    H239815   6.648   5.165  11.907 -1.8414 -0.1580 -0.1138
 6134TIP3   OH239816   4.288   1.189  13.519  0.5395  0.0893  0.2222
 6134TIP3    H139817   4.251   1.227  13.599  0.8435  1.3599 -0.2077
 6134TIP3    H239818   4.383   1.195  13.531  0.5885  0.6383 -0.3730
 6135TIP3   OH239819   4.838   0.828  16.296  0.5430 -0.1515  0.1861
 6135TIP3    H139820   4.849   0.756  16.358  1.5417  0.2052  0.4384
 6135TIP3    H239821   4.925   0.868  16.289  0.0621  0.8791 -0.1342
 6136TIP3   OH239822   0.601   3.606   2.738  0.2716  0.0137 -0.0120
 6136TIP3    H139823   0.588   3.699   2.720  0.9927  0.4173  1.3684
 6136TIP3    H239824   0.521   3.563   2.708 -0.5318  1.2295  0.3470
 6137TIP3   OH239825   1.251   5.731  12.321 -0.3846  0.2184  0.0436
 6137TIP3    H139826   1.266   5.713  12.414 -1.0857  1.0146  0.3207
 6137TIP3    H239827   1.295   5.659  12.275  1.5806  0.7971  0.9229
 6138TIP3   OH239828   2.712   5.586  13.799  0.7791 -0.3083 -0.0209
 6138TIP3    H139829   2.766   5.508  13.786  0.2247 -0.5265 -1.1116
 6138TIP3    H239830   2.766   5.658  13.765  1.1408 -0.2538  0.6465
 6139TIP3   OH239831   5.081   2.241  16.264  0.1144 -0.0591  0.0409
 6139TIP3    H139832   5.027   2.170  16.231  0.1453  0.3168 -0.8496
 6139TIP3    H239833   5.151   2.251  16.199  0.8113 -0.0287  0.7851
 6140TIP3   OH239834   2.180   5.164   1.165  0.2584  0.0836 -0.1013
 6140TIP3    H139835   2.263   5.155   1.213 -0.1273  2.6202  1.2034
 6140TIP3    H239836   2.112   5.150   1.230 -0.3513 -0.5415 -0.8501
 6141TIP3   OH239837   2.456   1.016   1.513 -0.3544  0.1128 -0.4258
 6141TIP3    H139838   2.515   0.962   1.566 -1.8595  0.2729  1.5509
 6141TIP3    H239839   2.514   1.079   1.469  1.3273 -2.3089 -1.9245
 6142TIP3   OH239840   4.226   1.191   0.781 -0.3621 -0.3507  0.2387
 6142TIP3    H139841   4.276   1.163   0.858  0.6702 -0.9430 -0.6187
 6142TIP3    H239842   4.162   1.253   0.815 -0.6843 -1.4676  1.7373
 6143TIP3   OH239843   0.036   6.508   4.839 -0.1452 -0.5991  0.2588
 6143TIP3    H139844   0.099   6.568   4.799 -2.0004  1.7800  0.7028
 6143TIP3    H239845   0.091   6.446   4.887  1.9166  1.4975  0.8533
 6144TIP3   OH239846   0.697   3.302   0.833  0.2006 -0.1318 -0.5466
 6144TIP3    H139847   0.775   3.310   0.888 -1.1832  0.2434  1.4953
 6144TIP3    H239848   0.693   3.384   0.784 -0.1567  0.9376  1.1648
 6145TIP3   OH239849   3.502   5.896  14.342  0.0512  0.1631 -0.1894
 6145TIP3    H139850   3.538   5.821  14.388 -0.2072 -0.8998 -1.6509
 6145TIP3    H239851   3.571   5.962  14.344  0.8166 -0.6293 -0.0993
 6146TIP3   OH239852   6.531   0.843  15.929  0.3908  0.2495 -0.4761
 6146TIP3    H139853   6.509   0.818  16.019 -0.5169 -1.8355 -1.2197
 6146TIP3    H239854   6.451   0.879  15.893  0.2689 -0.4382 -0.9199
 6147TIP3   OH239855   5.596   1.539  14.508  0.1269 -0.1432 -0.2608
 6147TIP3    H139856   5.511   1.561  14.469 -0.1299 -3.5756 -2.0441
 6147TIP3    H239857   5.573   1.494  14.589  0.3369  0.5889  0.2045
 6148TIP3   OH239858   5.031   4.379   0.749 -0.1178 -0.1870 -0.1768
 6148TIP3    H139859   5.060   4.371   0.840 -1.7330  0.6921  0.4377
 6148TIP3    H239860   5.074   4.459   0.718 -0.7529  0.3528  0.3014
 6149TIP3   OH239861   3.119   1.348   6.679 -0.3320 -0.5406  0.2972
 6149TIP3    H139862   3.052   1.341   6.612 -0.3560  1.1415  0.1005
 6149TIP3    H239863   3.077   1.315   6.759 -1.2137 -0.0309  0.0588
 6150TIP3   OH239864   3.179   2.144   0.375 -0.5444  0.5500  0.2975
 6150TIP3    H139865   3.124   2.100   0.310 -0.0736  1.1971 -0.5603
 6150TIP3    H239866   3.128   2.220   0.402 -0.8227  0.1748  0.8372
 6151TIP3   OH239867   2.762   5.631   6.464  0.0277 -0.0914 -0.0966
 6151TIP3    H139868   2.738   5.627   6.557  0.0017  1.7828  0.0246
 6151TIP3    H239869   2.805   5.716   6.455  1.2247 -0.8077 -1.5499
 6152TIP3   OH239870   1.964   6.529   4.549 -0.1479  0.5731 -0.2560
 6152TIP3    H139871   1.956   6.573   4.464  0.5154  3.2028  0.9302
 6152TIP3    H239872   2.017   6.588   4.602 -0.5531 -0.9579  2.0259
 6153TIP3   OH239873   1.193   4.798   1.736 -0.1987  0.3495  0.6045
 6153TIP3    H139874   1.245   4.852   1.795  0.6805  0.6036 -0.3716
 6153TIP3    H239875   1.186   4.850   1.655 -0.4696 -0.4319  0.1151
 6154TIP3   OH239876   1.807   3.956  13.986  0.0806 -0.3799  0.1455
 6154TIP3    H139877   1.759   4.031  14.020  1.9024  0.4217  1.0874
 6154TIP3    H239878   1.828   3.981  13.896 -0.7160 -0.4821 -0.0775
 6155TIP3   OH239879   3.256   6.412  17.165  0.0998  0.1957  0.3961
 6155TIP3    H139880   3.350   6.421  17.151  0.1885  0.9967  1.3844
 6155TIP3    H239881   3.228   6.348  17.099  1.2247  0.3919 -0.3030
 6156TIP3   OH239882   4.021   4.066  12.176  0.3904 -0.2893 -0.0546
 6156TIP3    H139883   3.983   4.131  12.117 -1.0361 -0.7117  0.3417
 6156TIP3    H239884   3.987   4.091  12.263  0.2071 -1.2659  0.1676
 6157TIP3   OH239885   5.564   6.397  13.756  0.1796 -0.1413  0.1504
 6157TIP3    H139886   5.582   6.490  13.745  1.5714 -0.4524 -0.4362
 6157TIP3    H239887   5.479   6.394  13.799 -1.0622  1.3516 -2.0006
 6158TIP3   OH239888   1.768   6.377  13.575  0.3046  0.3311 -0.1934
 6158TIP3    H139889   1.775   6.344  13.486  0.8824  1.0660 -0.4317
 6158TIP3    H239890   1.822   6.457  13.576  1.1225 -0.1993  1.0750
 6159TIP3   OH239891   5.316   0.046   6.330 -0.4188  0.5504  0.3840
 6159TIP3    H139892   5.271  -0.013   6.390 -1.2148  0.9884  0.2333
 6159TIP3    H239893   5.257   0.121   6.322 -0.2640  0.5588 -0.8396
 6160TIP3   OH239894   3.606   5.434   3.576  0.5938  0.0817 -0.1772
 6160TIP3    H139895   3.684   5.481   3.603  0.5896 -0.3040  0.5407
 6160TIP3    H239896   3.537   5.465   3.636 -0.0332  1.0832 -1.3677
 6161TIP3   OH239897   2.645   3.363  14.827  0.4687  0.5803 -0.1011
 6161TIP3    H139898   2.679   3.382  14.740  1.5129 -0.4594  0.0479
 6161TIP3    H239899   2.674   3.437  14.881  1.5989  0.2360 -0.2142
 6162TIP3   OH239900   1.592   0.666   0.807 -0.3186 -0.0265 -0.3402
 6162TIP3    H139901   1.554   0.582   0.783  1.6442 -0.8459 -0.7817
 6162TIP3    H239902   1.518   0.719   0.834 -1.5313 -2.2274  0.9580
 6163TIP3   OH239903   1.133   0.718  16.360  0.0172 -0.1176 -0.0346
 6163TIP3    H139904   1.105   0.806  16.333 -0.8541 -0.4645 -0.3135
 6163TIP3    H239905   1.059   0.686  16.412  0.7715 -0.2884  0.9605
 6164TIP3   OH239906   2.442   5.460   0.378  0.3693 -0.1293  0.0732
 6164TIP3    H139907   2.388   5.539   0.386 -0.2870 -0.6968  1.6920
 6164TIP3    H239908   2.388   5.399   0.328 -0.1102 -0.3520  0.8455
 6165TIP3   OH239909   2.118   3.426   1.460 -0.5418 -0.1346  0.1213
 6165TIP3    H139910   2.184   3.492   1.441 -0.2903 -0.5041 -0.3260
 6165TIP3    H239911   2.042   3.452   1.408 -1.0750  0.7875  1.3201
 6166TIP3   OH239912   5.417   4.124  16.288  0.1185  0.3026 -0.2867
 6166TIP3    H139913   5.471   4.059  16.333 -1.1928 -0.9126 -0.3949
 6166TIP3    H239914   5.370   4.074  16.221 -0.1651  1.5564 -1.0510
 6167TIP3   OH239915   1.894   5.137  12.588  0.1505 -0.3614 -0.3697
 6167TIP3    H139916   1.962   5.071  12.574 -0.5998 -1.7758  2.0520
 6167TIP3    H239917   1.943   5.217  12.607  1.1503 -1.0590  0.0757
 6168TIP3   OH239918   4.645   2.012  14.748 -0.0750  0.2331 -0.2166
 6168TIP3    H139919   4.740   2.016  14.735 -0.0957  0.7371 -0.2495
 6168TIP3    H239920   4.633   2.026  14.842 -0.1898  1.7146 -0.4314
 6169TIP3   OH239921   2.488   1.191  15.903 -0.1658  1.2563 -0.1008
 6169TIP3    H139922   2.565   1.135  15.892 -0.1249  1.2322  0.2828
 6169TIP3    H239923   2.414   1.131  15.904 -0.3446  1.3833 -1.9133
 6170TIP3   OH239924   2.359   5.522   2.573  0.3104  0.0238 -0.2477
 6170TIP3    H139925   2.384   5.430   2.574 -0.3595 -0.1814 -1.1377
 6170TIP3    H239926   2.309   5.534   2.654  0.0410 -0.5108 -0.3273
 6171TIP3   OH239927   1.747   4.439   2.383 -0.2384 -0.2523  0.2056
 6171TIP3    H139928   1.652   4.438   2.395 -0.2288  0.1358  0.3430
 6171TIP3    H239929   1.763   4.376   2.313 -0.7058  0.4446 -0.5513
 6172TIP3   OH239930   4.448   0.698  15.156  0.3173  0.0467  0.0515
 6172TIP3    H139931   4.415   0.758  15.089  0.4347 -1.0005 -0.9834
 6172TIP3    H239932   4.539   0.723  15.168  0.0961  0.7201  0.3818
 6173TIP3   OH239933   2.884   2.056   0.524  0.3791  0.9271 -0.1600
 6173TIP3    H139934   2.931   2.123   0.574 -0.7544  1.6821 -0.0613
 6173TIP3    H239935   2.836   2.006   0.590 -0.7756  1.6488 -0.4162
 6174TIP3   OH239936   3.256   4.191   1.948  0.0573  0.6473  0.0661
 6174TIP3    H139937   3.295   4.104   1.936  1.0969  1.2830 -1.5598
 6174TIP3    H239938   3.271   4.212   2.040 -0.7008 -1.0997  0.6340
 6175TIP3   OH239939   5.700   6.617   5.486 -0.3810 -0.4905 -0.2631
 6175TIP3    H139940   5.795   6.621   5.478 -0.2668 -0.2402  0.9662
 6175TIP3    H239941   5.674   6.547   5.426  0.4514  0.1586 -1.4181
 6176TIP3   OH239942   5.990   3.952  13.141 -0.1683  0.3874  0.1324
 6176TIP3    H139943   6.049   4.027  13.133  1.7863 -1.0734  0.3737
 6176TIP3    H239944   6.008   3.916  13.228 -0.7128 -0.6714 -0.1760
 6177TIP3   OH239945   0.904   2.063   1.364  0.0736 -0.3741 -0.4159
 6177TIP3    H139946   0.984   2.045   1.314  0.2821  0.6527 -0.4560
 6177TIP3    H239947   0.840   2.001   1.328  1.2368 -2.3466  0.7065
 6178TIP3   OH239948   1.947   1.683  14.878 -0.8904  0.4457 -0.2461
 6178TIP3    H139949   1.937   1.590  14.896 -2.6548  0.0552 -2.7746
 6178TIP3    H239950   1.878   1.726  14.929 -1.2334  0.1767 -0.4891
 6179TIP3   OH239951   4.502   2.204   4.677 -0.5307 -0.0476  0.0296
 6179TIP3    H139952   4.536   2.133   4.731 -0.9524 -0.6505 -0.4800
 6179TIP3    H239953   4.417   2.226   4.716 -1.1371 -0.9252 -0.7364
 6180TIP3   OH239954   3.921   2.422  13.877 -0.3081  0.6064 -0.7059
 6180TIP3    H139955   3.899   2.333  13.905 -0.6861  0.5681 -1.1110
 6180TIP3    H239956   3.846   2.475  13.904  0.2797  0.9623  0.2858
 6181TIP3   OH239957   0.992   1.909  16.388  0.4129  0.0380  0.4048
 6181TIP3    H139958   0.968   1.998  16.414 -0.5685  0.6476 -2.2763
 6181TIP3    H239959   1.069   1.920  16.332  0.2209 -0.7754 -0.0380
 6182TIP3   OH239960   5.433   5.450   1.247 -0.1892 -0.2685 -0.4786
 6182TIP3    H139961   5.505   5.403   1.205 -0.9858 -1.1785 -0.8552
 6182TIP3    H239962   5.397   5.506   1.178  0.4848  0.6225 -0.1427
 6183TIP3   OH239963   4.899   4.647  12.868  0.2179 -0.1633  0.1980
 6183TIP3    H139964   4.977   4.657  12.921  0.5404 -0.7332 -0.1553
 6183TIP3    H239965   4.887   4.552  12.860 -0.1378 -0.0841 -0.2779
 6184TIP3   OH239966   4.774   1.895  12.903 -0.0870  0.0217  0.6372
 6184TIP3    H139967   4.683   1.893  12.934 -0.0664  1.4286  0.8577
 6184TIP3    H239968   4.810   1.975  12.942  0.9086  0.0865 -0.3925
 6185TIP3   OH239969   6.052   2.988   4.437 -0.0961 -0.1326 -0.2609
 6185TIP3    H139970   6.035   3.080   4.415  0.6515 -0.4633 -2.5342
 6185TIP3    H239971   6.122   2.992   4.502 -0.0992  0.9153 -0.3021
 6186TIP3   OH239972   2.670   0.814   1.281 -0.1520  0.0985  0.2264
 6186TIP3    H139973   2.616   0.780   1.211 -0.7214  4.2230 -1.6618
 6186TIP3    H239974   2.625   0.787   1.361 -3.6512  1.0626 -1.1961
 6187TIP3   OH239975   2.165   5.772   2.265 -0.5159 -0.1731 -0.0884
 6187TIP3    H139976   2.089   5.815   2.226  0.4122  1.0114 -0.6403
 6187TIP3    H239977   2.237   5.834   2.254  1.0876 -2.1484 -1.6440
 6188TIP3   OH239978   4.451   6.415  13.297 -0.2806 -0.1342 -0.4247
 6188TIP3    H139979   4.411   6.492  13.257 -1.0090  1.3550  2.8202
 6188TIP3    H239980   4.381   6.349  13.299 -1.7087  1.3304  2.2727
 6189TIP3   OH239981   2.266   4.911  14.905  0.0535  0.6729 -0.0100
 6189TIP3    H139982   2.238   4.982  14.962 -1.4853 -0.9711  1.4146
 6189TIP3    H239983   2.185   4.865  14.883  0.8266  0.2142 -2.1304
 6190TIP3   OH239984   3.996   0.586   4.191 -0.4674  0.5140  0.5583
 6190TIP3    H139985   4.014   0.643   4.266 -0.4639  2.2816 -0.7287
 6190TIP3    H239986   3.920   0.626   4.149 -0.4155 -0.3968 -0.4457
 6191TIP3   OH239987   1.922   2.857  13.523  0.5362  1.0023  0.1399
 6191TIP3    H139988   1.976   2.888  13.450 -2.1602  3.1567 -1.1350
 6191TIP3    H239989   1.930   2.925  13.589 -0.4245  1.2778 -0.0088
 6192TIP3   OH239990   3.850   5.747  12.247  0.2250 -0.0476 -0.0302
 6192TIP3    H139991   3.907   5.717  12.318  0.2754 -1.0548 -0.4716
 6192TIP3    H239992   3.903   5.734  12.168 -0.6777 -1.2279 -0.4696
 6193TIP3   OH239993   0.569   0.097   4.140 -0.3152 -0.1616  0.6363
 6193TIP3    H139994   0.645   0.076   4.194  0.8025  3.1692  0.5868
 6193TIP3    H239995   0.599   0.084   4.050 -0.9180 -1.9641  0.6656
 6194TIP3   OH239996   6.083   2.145  17.266 -0.3237 -0.5286  0.0233
 6194TIP3    H139997   6.019   2.107  17.206 -0.7818  0.9700 -0.4889
 6194TIP3    H239998   6.030   2.194  17.329  0.2879  0.2907 -0.0896
 6195TIP3   OH239999   0.621   0.133  15.870 -0.1187 -0.4608 -0.0040
 6195TIP3    H140000   0.675   0.190  15.815 -1.6960  0.2862 -0.8817
 6195TIP3    H240001   0.607   0.054  15.817  1.4127 -1.3629  0.8881
 6196TIP3   OH240002   0.857   0.405  13.937  0.1917 -0.2354  0.5659
 6196TIP3    H140003   0.918   0.444  13.875  2.3501  0.6215  3.0564
 6196TIP3    H240004   0.896   0.321  13.960 -0.8693 -0.7950  0.3732
 6197TIP3   OH240005   3.979   3.145   5.519 -0.0972 -0.5131 -0.1327
 6197TIP3    H140006   4.038   3.135   5.443 -1.7628 -0.3704 -1.4982
 6197TIP3    H240007   3.982   3.239   5.538 -1.1387 -0.2226 -1.2866
 6198TIP3   OH240008   0.903   6.330  12.269  0.7579 -0.2156  0.5049
 6198TIP3    H140009   0.912   6.420  12.238  2.2143 -0.2097  0.8923
 6198TIP3    H240010   0.894   6.338  12.364 -0.5263 -0.4228  0.4253
 6199TIP3   OH240011   5.281   0.003   0.786 -0.7574 -0.3255  0.0063
 6199TIP3    H140012   5.195   0.044   0.779 -0.0699  0.8049 -3.2130
 6199TIP3    H240013   5.274  -0.053   0.863 -3.3500  2.0370  1.6736
 6200TIP3   OH240014   0.441   4.391   4.115 -0.6161  0.5242 -0.3949
 6200TIP3    H140015   0.352   4.392   4.079 -0.8649  1.0543  0.2059
 6200TIP3    H240016   0.431   4.424   4.205  0.2127  0.7523 -0.3752
 6201TIP3   OH240017   4.379   6.178  14.732  0.1751  0.2781  0.1089
 6201TIP3    H140018   4.285   6.157  14.736  0.4554 -1.2082 -0.5046
 6201TIP3    H240019   4.390   6.248  14.796 -1.0494 -0.7001  1.4680
 6202TIP3   OH240020   2.055   1.966  16.829  0.3349 -0.2980  0.2134
 6202TIP3    H140021   2.138   1.931  16.796 -0.1847  0.8975 -2.7145
 6202TIP3    H240022   2.012   2.002  16.751 -2.7146 -0.3777  1.7189
 6203TIP3   OH240023   5.928   1.426   2.745  0.0006 -0.0377 -0.2124
 6203TIP3    H140024   5.928   1.518   2.721  0.9253 -0.0336 -0.2148
 6203TIP3    H240025   5.980   1.422   2.825  1.6255 -0.8017 -1.2512
 6204TIP3   OH240026   4.078   1.763  16.327 -0.2568  0.3271 -0.1573
 6204TIP3    H140027   4.080   1.826  16.255  0.9108 -0.6033 -0.9810
 6204TIP3    H240028   4.021   1.692  16.296  0.9753 -0.5120 -0.5932
 6205TIP3   OH240029   5.984   2.183   1.615  0.0660 -0.1121  0.4785
 6205TIP3    H140030   5.905   2.237   1.608  0.3601  0.1717 -0.9463
 6205TIP3    H240031   5.960   2.115   1.678 -1.3354 -0.0620  0.0370
 6206TIP3   OH240032   4.301   2.343  15.136  0.0920  0.5852  0.4777
 6206TIP3    H140033   4.372   2.322  15.197 -0.8609 -1.6889  0.8748
 6206TIP3    H240034   4.222   2.338  15.189 -0.6452 -0.1764 -0.6702
 6207TIP3   OH240035   1.194   4.616   0.964 -0.3825  0.8601 -0.0863
 6207TIP3    H140036   1.126   4.550   0.950  0.7385 -0.5859  0.8754
 6207TIP3    H240037   1.192   4.632   1.058 -0.4977  2.0803 -0.2830
 6208TIP3   OH240038   4.683   6.020   1.671  0.0202 -0.0038  0.1835
 6208TIP3    H140039   4.756   5.976   1.714 -0.2658  0.3674  1.0787
 6208TIP3    H240040   4.723   6.095   1.627  0.2818 -0.2298  0.0355
 6209TIP3   OH240041   3.903   5.597  11.052 -0.3400  0.5048  0.8982
 6209TIP3    H140042   3.966   5.652  11.099 -1.7029  0.9562  2.2867
 6209TIP3    H240043   3.818   5.639  11.067 -1.1113 -0.6422 -0.0620
 6210TIP3   OH240044   3.681   2.379  15.691 -0.2266  0.6598 -0.1039
 6210TIP3    H140045   3.768   2.369  15.652  1.3484  0.5758  3.1118
 6210TIP3    H240046   3.660   2.292  15.726  0.1912  1.4742  2.3858
 6211TIP3   OH240047   2.739   5.980   4.961  0.0175 -0.4119  0.6011
 6211TIP3    H140048   2.739   6.044   4.890 -0.9802 -1.8183 -0.7515
 6211TIP3    H240049   2.802   6.014   5.025  1.0478  0.8442 -1.0047
 6212TIP3   OH240050   5.843   1.627  16.167  0.0213 -0.0743  0.1584
 6212TIP3    H140051   5.876   1.666  16.248 -2.0735  1.0282  0.5529
 6212TIP3    H240052   5.789   1.695  16.128 -0.7423 -1.3238 -1.0729
 6213TIP3   OH240053   5.053   4.832   1.872 -0.0378  0.0829  0.0177
 6213TIP3    H140054   5.027   4.768   1.806  1.3861 -0.6981  0.1845
 6213TIP3    H240055   4.983   4.830   1.937 -0.1228 -1.1475 -0.0974
 6214TIP3   OH240056   5.403   6.536   4.771 -0.2876  0.3863  0.0577
 6214TIP3    H140057   5.481   6.546   4.824 -0.8829 -0.1875  1.0607
 6214TIP3    H240058   5.333   6.520   4.833 -1.2292  0.9518 -0.8169
 6215TIP3   OH240059   5.404   0.216   5.173 -0.5439 -0.3511  0.0339
 6215TIP3    H140060   5.353   0.153   5.123 -1.1474  1.4212 -1.7159
 6215TIP3    H240061   5.356   0.298   5.163  2.3738  1.3377 -1.3649
 6216TIP3   OH240062   2.447   1.989   2.001  0.2959  0.3433  0.1371
 6216TIP3    H140063   2.485   2.019   2.083  0.6553  0.8838 -0.2204
 6216TIP3    H240064   2.385   2.058   1.977 -1.6296 -0.9558  1.1846
 6217TIP3   OH240065   5.619   5.971   2.498  0.6751  0.8436 -0.4669
 6217TIP3    H140066   5.567   5.983   2.578  0.8957 -2.5146  0.3464
 6217TIP3    H240067   5.569   5.909   2.446  2.2504  0.1880 -1.2575
 6218TIP3   OH240068   4.704   1.777   6.258  0.2543  0.3047  0.9107
 6218TIP3    H140069   4.767   1.848   6.271  0.6869 -0.5547  4.5837
 6218TIP3    H240070   4.679   1.751   6.347 -1.8486 -2.4293 -0.3508
 6219TIP3   OH240071   5.982   6.323  12.572  0.4053 -0.2903 -0.2877
 6219TIP3    H140072   6.039   6.387  12.613  0.6648 -0.2802 -0.6639
 6219TIP3    H240073   6.035   6.284  12.502 -0.7457  1.2958 -2.1367
 6220TIP3   OH240074   5.507   6.318  14.094 -0.5402  0.5216 -0.6100
 6220TIP3    H140075   5.529   6.225  14.080  0.2711  0.5146  0.6215
 6220TIP3    H240076   5.413   6.317  14.110 -0.2538 -0.3681  1.3532
 6221TIP3   OH240077   0.126   6.717   3.207  0.5411 -0.2866  1.2741
 6221TIP3    H140078   0.034   6.737   3.226  0.3637  0.0658  0.1406
 6221TIP3    H240079   0.122   6.642   3.147  0.8990  0.7783 -0.1298
 6222TIP3   OH240080   5.662   5.056  16.226  0.4353  0.3555 -0.8349
 6222TIP3    H140081   5.741   5.106  16.208 -0.4011  1.6869 -0.9301
 6222TIP3    H240082   5.604   5.074  16.153 -0.4568  0.4545 -0.1196
 6223TIP3   OH240083   5.284   6.447  17.108 -0.2392  0.0974  0.0143
 6223TIP3    H140084   5.208   6.432  17.052  0.1420 -0.6065 -0.3187
 6223TIP3    H240085   5.266   6.395  17.187  0.1825 -0.5648 -0.3256
 6224TIP3   OH240086   6.019   3.619   2.991  0.7673  0.4965 -0.2101
 6224TIP3    H140087   6.112   3.604   2.972  0.8579 -0.5570  0.9119
 6224TIP3    H240088   5.974   3.588   2.913  1.2661 -1.0068  0.0579
 6225TIP3   OH240089   4.487   2.864   2.535  0.0843 -0.7001 -0.2581
 6225TIP3    H140090   4.464   2.952   2.565 -1.7097 -1.4798  0.8159
 6225TIP3    H240091   4.468   2.865   2.441  1.0507  0.3318 -0.4573
 6226TIP3   OH240092   0.530   6.135   3.523  0.2296  0.2298  0.1028
 6226TIP3    H140093   0.538   6.209   3.462  0.9299  1.3709  1.5100
 6226TIP3    H240094   0.611   6.136   3.573 -1.0395  0.5195  2.2935
 6227TIP3   OH240095   1.012   3.716   4.440 -0.0658 -0.1468  0.8168
 6227TIP3    H140096   0.928   3.755   4.417  0.6971  1.3518  0.4752
 6227TIP3    H240097   1.019   3.640   4.382 -0.9130  0.0588  0.4239
 6228TIP3   OH240098   3.575   3.458  15.570 -0.1594 -0.9464  0.3400
 6228TIP3    H140099   3.545   3.450  15.661 -0.3946 -3.0813  0.1345
 6228TIP3    H240100   3.659   3.412  15.568 -0.1925 -0.9836 -0.5220
 6229TIP3   OH240101   1.673   3.096   5.536 -0.1887 -0.3965  0.2827
 6229TIP3    H140102   1.659   3.186   5.565 -0.6737 -0.7177  1.0781
 6229TIP3    H240103   1.752   3.068   5.584 -0.2470 -0.5074  0.3149
 6230TIP3   OH240104   1.309   0.744   2.082 -0.3014 -0.6400  0.6405
 6230TIP3    H140105   1.401   0.761   2.101 -0.4040 -0.1292  0.7007
 6230TIP3    H240106   1.261   0.811   2.132 -0.5822  0.7152 -1.3362
 6231TIP3   OH240107   5.887   1.323  11.296  0.7383 -0.0946 -0.5875
 6231TIP3    H140108   5.853   1.318  11.207  0.5499 -0.3137 -0.5048
 6231TIP3    H240109   5.834   1.392  11.337  0.0748 -0.7483 -0.3246
 6232TIP3   OH240110   1.164   1.288   2.326  0.7412 -0.5431 -0.1947
 6232TIP3    H140111   1.255   1.283   2.295  0.7605 -0.4702 -0.1497
 6232TIP3    H240112   1.168   1.345   2.403  0.5506  0.0486 -0.6093
 6233TIP3   OH240113   4.053   4.929   6.093  0.1204 -0.1269  0.1414
 6233TIP3    H140114   3.961   4.936   6.119  0.4372 -0.6601  1.5392
 6233TIP3    H240115   4.098   4.993   6.149  0.8249 -1.2219  0.8721
 6234TIP3   OH240116   4.445   0.129  14.349  0.7770  0.0932 -0.1881
 6234TIP3    H140117   4.504   0.187  14.301  0.3514 -0.5366 -1.5320
 6234TIP3    H240118   4.485   0.042  14.342  0.4536 -0.0905  0.1750
 6235TIP3   OH240119   5.925   3.226   2.431  0.5562  0.7696  0.2272
 6235TIP3    H140120   5.934   3.227   2.335  2.3603 -0.0146  0.3599
 6235TIP3    H240121   5.890   3.313   2.452  1.6624  1.5690 -1.0406
 6236TIP3   OH240122   6.644   0.920   6.185  0.2162  0.2513  0.4301
 6236TIP3    H140123   6.612   0.831   6.173 -1.7613  0.6541  2.0892
 6236TIP3    H240124   6.714   0.930   6.121 -1.5697 -1.4711 -1.9629
 6237TIP3   OH240125   3.782   4.850  17.286 -0.1957 -0.3756 -0.3648
 6237TIP3    H140126   3.688   4.841  17.300 -0.1820  1.9268  2.0484
 6237TIP3    H240127   3.815   4.761  17.284 -2.2634 -1.1974  0.1745
 6238TIP3   OH240128   0.936   2.329   4.972  0.2250 -0.3744 -0.0039
 6238TIP3    H140129   0.934   2.380   4.891 -0.7093  0.2860  0.4153
 6238TIP3    H240130   0.962   2.392   5.039  0.5312 -0.8076  0.2877
 6239TIP3   OH240131   3.753   2.001  11.345  0.3362  0.4765  0.0627
 6239TIP3    H140132   3.740   2.007  11.439 -0.6280 -2.0372  0.1474
 6239TIP3    H240133   3.783   1.912  11.329 -2.2743 -0.1428 -2.2405
 6240TIP3   OH240134   5.037   1.784   2.112  0.7970 -0.0063 -0.7780
 6240TIP3    H140135   5.098   1.793   2.185  0.2600  0.3815 -0.3592
 6240TIP3    H240136   4.993   1.700   2.127 -0.5747  0.8671  0.3634
 6241TIP3   OH240137   6.348   5.676  15.082  0.1530  0.8427 -0.1369
 6241TIP3    H140138   6.318   5.737  15.014 -0.1538 -1.5916 -2.3181
 6241TIP3    H240139   6.274   5.670  15.143  0.1753  2.5499  0.1026
 6242TIP3   OH240140   6.262   5.408   2.786  0.1637  0.0216 -0.3509
 6242TIP3    H140141   6.262   5.334   2.846 -1.6337  0.1325 -0.1564
 6242TIP3    H240142   6.180   5.400   2.737 -0.1121  1.8961 -0.2841
 6243TIP3   OH240143   4.074   2.083  11.368  0.2659  0.0021  0.6585
 6243TIP3    H140144   4.069   1.990  11.346  0.5282 -0.1191  1.0980
 6243TIP3    H240145   4.041   2.128  11.290 -0.3668 -0.4770  0.6432
 6244TIP3   OH240146   4.636   5.917  15.404  0.1614  0.5809  0.1927
 6244TIP3    H140147   4.704   5.928  15.338  0.6610  2.5906  0.9529
 6244TIP3    H240148   4.592   6.002  15.407  0.2538  0.6070  2.5168
 6245TIP3   OH240149   3.510   6.155  16.791 -0.3172  0.5308  0.0577
 6245TIP3    H140150   3.595   6.117  16.810  0.1311  0.7775 -1.3523
 6245TIP3    H240151   3.447   6.094  16.830  0.3523 -1.8287 -2.2455
 6246TIP3   OH240152   4.319   0.648   2.295 -0.0480 -0.2717  0.9268
 6246TIP3    H140153   4.298   0.659   2.388  0.8188  3.9857  0.7865
 6246TIP3    H240154   4.414   0.660   2.290  0.2974 -2.8309 -0.3418
 6247TIP3   OH240155   4.782   2.576  11.845 -0.4280  0.2482  0.2287
 6247TIP3    H140156   4.847   2.645  11.833 -0.2016 -0.2968 -2.3310
 6247TIP3    H240157   4.705   2.621  11.879 -0.2707  1.8095 -1.3390
 6248TIP3   OH240158   5.590   5.114  15.961 -0.9929 -0.0255 -0.3121
 6248TIP3    H140159   5.613   5.064  15.883 -1.5538 -0.8754  0.0491
 6248TIP3    H240160   5.572   5.203  15.929  1.8985  0.5108 -0.7279
 6249TIP3   OH240161   0.733   2.067   5.545  0.2966 -0.0033 -0.4219
 6249TIP3    H140162   0.711   2.150   5.503 -0.4314 -0.5018 -1.0532
 6249TIP3    H240163   0.780   2.018   5.478  0.4356 -0.2299 -0.1598
 6250TIP3   OH240164   4.025   5.445   0.139 -0.0216  0.3301 -0.3272
 6250TIP3    H140165   4.036   5.488   0.054  0.4469 -1.1057 -1.0227
 6250TIP3    H240166   3.940   5.400   0.132 -0.7686  1.5350  0.5959
 6251TIP3   OH240167   1.278   3.329   2.197  0.2206 -0.2168 -0.4012
 6251TIP3    H140168   1.333   3.406   2.192 -0.8739  0.9486  2.7491
 6251TIP3    H240169   1.331   3.264   2.243  1.1058 -1.4334 -2.9602
 6252TIP3   OH240170   4.224   1.196  16.601 -0.1887 -0.9332  0.2207
 6252TIP3    H140171   4.218   1.116  16.549 -0.9653 -1.1400  0.6254
 6252TIP3    H240172   4.211   1.267  16.538  0.2740 -1.1233 -0.0988
 6253TIP3   OH240173   5.410   4.748   3.675  0.2334 -0.2289 -0.4977
 6253TIP3    H140174   5.379   4.745   3.584  0.3145  0.7238 -0.5692
 6253TIP3    H240175   5.504   4.759   3.667  0.2612 -0.3422 -0.3000
 6254TIP3   OH240176   4.486   4.416   2.047  0.4919  0.2719 -0.6072
 6254TIP3    H140177   4.456   4.478   1.980 -0.4622 -0.4683 -0.8915
 6254TIP3    H240178   4.423   4.425   2.118  0.7757  0.1527 -0.3391
 6255TIP3   OH240179   6.024   1.998   6.005  0.8422  0.1143 -0.7210
 6255TIP3    H140180   5.958   1.994   6.074  0.3341  1.9460 -1.0449
 6255TIP3    H240181   6.066   1.912   6.007 -0.6455 -0.6338  0.3817
 6256TIP3   OH240182   1.068   6.324  10.413 -0.1397 -0.2438 -0.3527
 6256TIP3    H140183   1.000   6.363  10.468  0.5570  1.1114 -0.4201
 6256TIP3    H240184   1.023   6.299  10.333  0.0535  4.6413 -2.3045
 6257TIP3   OH240185   5.958   0.657   2.670  0.4766  0.4376  0.3504
 6257TIP3    H140186   5.982   0.607   2.593  0.8385 -0.8112  1.2476
 6257TIP3    H240187   5.907   0.596   2.724 -0.3813  1.4989  0.7822
 6258TIP3   OH240188   1.063   3.585  12.540  0.0964  0.2329  0.1281
 6258TIP3    H140189   1.094   3.574  12.450 -0.5102  1.1020 -0.1976
 6258TIP3    H240190   1.001   3.512  12.552  0.9179 -0.4726  0.1966
 6259TIP3   OH240191   3.601   0.384   5.125  0.7340 -0.1810 -0.5905
 6259TIP3    H140192   3.630   0.386   5.034 -0.0982  0.5464 -0.8540
 6259TIP3    H240193   3.653   0.451   5.169  2.7347 -2.0250  0.0040
 6260TIP3   OH240194   6.599   1.347   2.582  0.1473  0.2810 -0.1129
 6260TIP3    H140195   6.570   1.313   2.498 -0.6569  0.5523  0.0530
 6260TIP3    H240196   6.533   1.318   2.644 -0.2680  1.6532  0.1233
 6261TIP3   OH240197   6.593   4.261  16.116 -0.5114 -0.0767 -0.1678
 6261TIP3    H140198   6.587   4.176  16.072 -0.5978  0.0822 -0.4650
 6261TIP3    H240199   6.666   4.306  16.073  0.8495 -0.7724  1.3257
 6262TIP3   OH240200   5.358   4.770  16.587  0.6702 -0.3955 -0.5440
 6262TIP3    H140201   5.442   4.815  16.573  0.1879  0.7304  0.0284
 6262TIP3    H240202   5.303   4.836  16.630 -0.6935 -0.9395 -1.4014
 6263TIP3   OH240203   4.736   2.999  16.641  0.4679  0.2200  0.0362
 6263TIP3    H140204   4.709   2.909  16.622 -2.4240  1.1007 -0.4703
 6263TIP3    H240205   4.679   3.053  16.587  0.9691  2.4340  1.6000
 6264TIP3   OH240206   6.095   6.166   3.797 -0.3234  0.0713  0.6481
 6264TIP3    H140207   6.182   6.127   3.791  0.7142  2.4538 -1.6419
 6264TIP3    H240208   6.042   6.114   3.736  1.1373  2.1344 -2.6749
 6265TIP3   OH240209   1.654   1.815  14.041  0.3589 -0.3298  0.1700
 6265TIP3    H140210   1.610   1.849  14.118 -1.4465  0.1755 -1.0225
 6265TIP3    H240211   1.591   1.756  14.000  1.4037 -0.8756 -0.7390
 6266TIP3   OH240212   1.308   6.015  16.783 -0.2119 -0.6045 -0.4546
 6266TIP3    H140213   1.267   6.099  16.761  0.4299 -0.1416  0.0705
 6266TIP3    H240214   1.317   6.017  16.878  0.9513 -0.7106 -0.5409
 6267TIP3   OH240215   5.658   3.316   0.272  0.9240 -0.8718 -0.3354
 6267TIP3    H140216   5.614   3.365   0.342  1.0290  0.0778 -0.9122
 6267TIP3    H240217   5.670   3.228   0.308  0.7156 -0.4792  0.7296
 6268TIP3   OH240218   6.565   5.399  14.106 -0.0410 -0.3383  0.1276
 6268TIP3    H140219   6.576   5.483  14.152 -1.9791 -0.3076  0.6666
 6268TIP3    H240220   6.637   5.345  14.137  0.5070  0.7275  0.7794
 6269TIP3   OH240221   1.171   6.035  10.916  0.3580  0.3478  0.3960
 6269TIP3    H140222   1.208   5.947  10.906 -0.0342  0.0205  1.6127
 6269TIP3    H240223   1.106   6.041  10.846  0.8650 -0.0657 -0.1215
 6270TIP3   OH240224   4.926   1.764   5.304  0.1458  0.0388  0.1251
 6270TIP3    H140225   4.946   1.681   5.261 -1.7942 -1.0997  1.2773
 6270TIP3    H240226   4.999   1.778   5.365 -0.2515 -1.6383  1.0244
 6271TIP3   OH240227   5.739   6.451  15.901 -0.0019 -0.1899  0.3436
 6271TIP3    H140228   5.801   6.499  15.957  0.5280 -0.4557 -0.0094
 6271TIP3    H240229   5.715   6.374  15.953 -1.8387  1.0612  1.4465
 6272TIP3   OH240230   4.442   5.946   1.578 -0.0836 -0.0214  0.7042
 6272TIP3    H140231   4.475   5.880   1.517  0.5544 -1.0784  2.1264
 6272TIP3    H240232   4.520   5.996   1.603 -0.3715  0.5226  0.5154
 6273TIP3   OH240233   5.103   2.391   5.670 -0.5266  0.2977  0.2499
 6273TIP3    H140234   5.035   2.346   5.620 -3.0464  2.8800  1.1357
 6273TIP3    H240235   5.088   2.366   5.761 -0.2889  0.8810  0.4564
 6274TIP3   OH240236   1.925   5.312   1.843  0.4283  0.3019  0.0960
 6274TIP3    H140237   2.018   5.290   1.834  0.4110 -1.3972  2.7541
 6274TIP3    H240238   1.922   5.380   1.910 -0.3001 -0.9834  1.4215
 6275TIP3   OH240239   6.393   0.475  11.197 -0.3292  0.2883  0.1318
 6275TIP3    H140240   6.464   0.462  11.134 -1.1718 -1.1739 -0.5708
 6275TIP3    H240241   6.319   0.504  11.144 -0.9503 -0.6324  0.4642
 6276TIP3   OH240242   4.292   0.110  13.431  0.0791 -0.1106 -0.3890
 6276TIP3    H140243   4.237   0.084  13.506 -0.0146  1.4850  0.1365
 6276TIP3    H240244   4.326   0.196  13.456  0.5964  0.1424 -1.9094
 6277TIP3   OH240245   4.252   1.167  16.167 -0.7613  0.0059  0.4718
 6277TIP3    H140246   4.286   1.223  16.236  1.5023 -2.3040  1.4058
 6277TIP3    H240247   4.299   1.195  16.088 -0.3984  0.0879  0.7146
 6278TIP3   OH240248   5.971   3.191   3.582  0.0919  0.4560 -0.4897
 6278TIP3    H140249   5.901   3.247   3.614 -0.1957 -0.9733  1.5183
 6278TIP3    H240250   5.940   3.160   3.496 -2.0582 -0.6010  0.5871
 6279TIP3   OH240251   0.733   2.569  12.847 -0.2321  0.6093  0.1369
 6279TIP3    H140252   0.707   2.661  12.844 -1.1840  0.3504 -0.0031
 6279TIP3    H240253   0.694   2.531  12.768  2.7849  0.7234 -1.5543
 6280TIP3   OH240254   2.578   4.201  12.137  0.5216  0.6711  0.3278
 6280TIP3    H140255   2.648   4.144  12.105  1.2491  0.4128  2.2290
 6280TIP3    H240256   2.504   4.184  12.079  0.9509 -1.6469  0.3630
 6281TIP3   OH240257   4.349   1.628   2.228 -0.5368 -0.6248 -0.3157
 6281TIP3    H140258   4.383   1.717   2.233  0.3273 -0.8808 -1.2296
 6281TIP3    H240259   4.261   1.638   2.191 -0.6097 -0.1271 -0.0130
 6282TIP3   OH240260   2.102   5.922  14.823  0.2236  0.7131 -0.0429
 6282TIP3    H140261   2.066   5.931  14.911  0.3284 -0.1005  0.0925
 6282TIP3    H240262   2.160   5.997  14.813 -0.7478  1.4958  0.1028
 6283TIP3   OH240263   1.797   3.194   5.998  0.1320 -0.4495  0.0159
 6283TIP3    H140264   1.878   3.148   5.977 -0.0778 -0.3158 -1.1703
 6283TIP3    H240265   1.775   3.165   6.086  1.9620  0.2317  0.7419
 6284TIP3   OH240266   1.187   3.958  14.564 -0.2451  0.8005 -0.4536
 6284TIP3    H140267   1.142   4.042  14.566 -0.8614  0.5029 -1.3725
 6284TIP3    H240268   1.262   3.970  14.623 -0.7764  1.7216  0.0644
 6285TIP3   OH240269   0.606   2.343  14.220  0.4415  0.2300  0.3179
 6285TIP3    H140270   0.523   2.296  14.216  2.2249 -3.1878 -0.5745
 6285TIP3    H240271   0.597   2.414  14.156 -1.2466 -1.0865 -0.9986
 6286TIP3   OH240272   5.791   1.690   5.315 -0.6141  0.2882  0.6456
 6286TIP3    H140273   5.723   1.677   5.381 -0.8982  2.6353  0.8989
 6286TIP3    H240274   5.867   1.721   5.365 -0.5485  1.2205 -0.0011
 6287TIP3   OH240275   5.761   0.149   1.719  0.0681  0.2203  0.1932
 6287TIP3    H140276   5.676   0.107   1.707 -0.8436  1.8516  0.6227
 6287TIP3    H240277   5.810   0.090   1.776 -0.0888 -1.5982 -1.4531
 6288TIP3   OH240278   3.382   3.060   1.301  0.5134 -0.2800  0.6273
 6288TIP3    H140279   3.307   3.001   1.292 -0.9281  1.7251 -1.7519
 6288TIP3    H240280   3.436   3.042   1.224  1.4597 -0.3315  1.2953
 6289TIP3   OH240281   4.286   6.383  11.266  0.5509  0.5021  0.2461
 6289TIP3    H140282   4.342   6.368  11.190  0.8043 -0.3467  0.5897
 6289TIP3    H240283   4.323   6.461  11.308  0.7290  0.6630 -0.1957
 6290TIP3   OH240284   5.125   4.375   4.076  0.0757 -0.0109  0.0625
 6290TIP3    H140285   5.132   4.427   4.157  3.2008  0.5198 -0.4076
 6290TIP3    H240286   5.108   4.440   4.008  0.4267 -0.0540 -0.0679
 6291TIP3   OH240287   3.077   1.469   0.777  0.3122  0.7033  0.1447
 6291TIP3    H140288   3.028   1.550   0.789  0.1276  0.5549  0.4161
 6291TIP3    H240289   3.129   1.483   0.698 -1.3366  0.3124 -1.0728
 6292TIP3   OH240290   6.765   0.927  14.994 -0.3843 -0.1934  0.5840
 6292TIP3    H140291   6.763   1.006  14.940  0.1842  0.1659  1.0706
 6292TIP3    H240292   6.674   0.901  15.002 -0.5629  0.3273  0.2840
 6293TIP3   OH240293   1.962   6.682  12.828 -0.1456  0.0513 -0.2570
 6293TIP3    H140294   2.031   6.665  12.892 -0.5138 -0.4779  0.0067
 6293TIP3    H240295   1.993   6.758  12.779 -0.0033  0.6680  0.7600
 6294TIP3   OH240296   0.166   2.045  16.432  0.8543 -0.0008 -0.1980
 6294TIP3    H140297   0.138   2.137  16.437  0.9897  0.0467 -0.3066
 6294TIP3    H240298   0.234   2.037  16.499  0.6863 -0.0790 -0.0353
 6295TIP3   OH240299   4.600   4.405  14.982  0.2240 -0.6146 -0.3778
 6295TIP3    H140300   4.650   4.379  14.905  0.3381 -3.2113  0.4621
 6295TIP3    H240301   4.588   4.499  14.973  0.1156 -0.8311 -3.6091
 6296TIP3   OH240302   2.801   3.223  14.141  0.3237 -0.2096 -0.2423
 6296TIP3    H140303   2.767   3.136  14.121  0.8032 -0.1437 -1.4143
 6296TIP3    H240304   2.726   3.269  14.181 -1.1328 -0.0116 -2.9112
 6297TIP3   OH240305   1.082   5.900   0.826  0.2958 -0.2376  0.0330
 6297TIP3    H140306   1.000   5.935   0.792 -0.3434 -2.0246 -0.3947
 6297TIP3    H240307   1.063   5.881   0.918  1.3873  2.6455  0.9770
 6298TIP3   OH240308   6.541   5.408  13.516 -0.1467 -0.1837 -0.1783
 6298TIP3    H140309   6.556   5.444  13.428  1.4581  2.7258  1.1309
 6298TIP3    H240310   6.624   5.366  13.539  0.7770  2.2344  1.2119
 6299TIP3   OH240311   2.845   3.497   3.821 -0.3944 -0.4943  0.3192
 6299TIP3    H140312   2.902   3.446   3.878  0.7198 -2.1465 -2.1307
 6299TIP3    H240313   2.802   3.432   3.765  0.9126  1.1211 -2.7828
 6300TIP3   OH240314   3.988   4.135   2.126 -0.6404 -0.5857 -0.0588
 6300TIP3    H140315   4.019   4.156   2.214  0.6713 -0.2564 -0.5770
 6300TIP3    H240316   3.903   4.178   2.120  0.2899  1.4394  0.2425
 6301TIP3   OH240317   1.953   4.540   4.755 -0.0633 -0.1921  0.1883
 6301TIP3    H140318   1.905   4.476   4.702  1.0050 -0.5281 -0.4015
 6301TIP3    H240319   1.999   4.595   4.692 -0.4041  0.7111  0.7148
 6302TIP3   OH240320   5.312   0.394  16.275 -0.1145 -0.4259 -0.2987
 6302TIP3    H140321   5.402   0.428  16.273 -0.3946  0.2899 -1.5312
 6302TIP3    H240322   5.272   0.427  16.195 -0.8190 -2.5609 -0.9026
 6303TIP3   OH240323   2.837   1.277   4.327  0.3748  0.2965 -0.1242
 6303TIP3    H140324   2.892   1.344   4.369 -1.1225  0.3399  1.9295
 6303TIP3    H240325   2.836   1.302   4.235  0.4557  2.7209  0.4533
 6304TIP3   OH240326   6.460   6.112   5.191  0.2479 -0.5325  0.0509
 6304TIP3    H140327   6.432   6.203   5.202  0.0477 -0.3882 -1.5409
 6304TIP3    H240328   6.543   6.117   5.145  0.2953 -1.1598  0.0559
 6305TIP3   OH240329   4.242   5.207  14.878  0.2819  0.1700 -0.5094
 6305TIP3    H140330   4.269   5.282  14.930  0.0161  0.1082 -0.2831
 6305TIP3    H240331   4.226   5.242  14.791  0.4554  0.3219 -0.4798
 6306TIP3   OH240332   0.138   5.949  15.118  0.4659 -0.6459  0.8161
 6306TIP3    H140333   0.201   5.962  15.047  0.9516 -1.4009  1.1064
 6306TIP3    H240334   0.182   5.891  15.179 -0.9105 -2.0798  0.5039
 6307TIP3   OH240335   1.833   3.994  14.855  0.5787 -0.3024  0.0554
 6307TIP3    H140336   1.815   4.007  14.762  0.8082  0.7299  0.1498
 6307TIP3    H240337   1.852   3.900  14.863 -1.3803 -0.8132 -0.6095
 6308TIP3   OH240338   4.119   0.686  11.673 -0.1363  0.0351  0.2623
 6308TIP3    H140339   4.069   0.633  11.735  0.6585  2.0119  2.7924
 6308TIP3    H240340   4.055   0.714  11.608 -1.1785 -1.5398  0.5535
 6309TIP3   OH240341   5.961   6.696  15.838  0.2185  0.4072 -0.1536
 6309TIP3    H140342   5.987   6.666  15.925  0.2002 -0.1143 -0.3220
 6309TIP3    H240343   6.039   6.683  15.784  0.8655  2.5324  0.1846
 6310TIP3   OH240344   3.042   3.708   4.107 -0.0595  0.5409  0.3216
 6310TIP3    H140345   3.109   3.713   4.039 -0.0291 -1.5370  0.1444
 6310TIP3    H240346   2.960   3.694   4.060 -0.3973  1.4082  0.6228
 6311TIP3   OH240347   2.384   0.601  14.060  0.2477 -0.0943 -0.0568
 6311TIP3    H140348   2.305   0.652  14.079  0.7526  0.1091  1.7752
 6311TIP3    H240349   2.418   0.638  13.979 -2.0306 -0.8463 -1.4432
 6312TIP3   OH240350   2.377   6.494   1.426  0.2522  0.4581  0.2743
 6312TIP3    H140351   2.363   6.468   1.335 -0.5141 -1.1512  0.8118
 6312TIP3    H240352   2.365   6.589   1.425 -1.6336  0.2823 -1.0085
 6313TIP3   OH240353   5.628   2.191   3.161 -0.0704  0.3669 -0.1924
 6313TIP3    H140354   5.615   2.129   3.232 -0.3825 -0.9869 -1.3701
 6313TIP3    H240355   5.553   2.251   3.167  1.0471  1.6447  1.8911
 6314TIP3   OH240356   3.516   2.320   5.230 -0.5253  0.4536 -0.3143
 6314TIP3    H140357   3.529   2.385   5.299  0.1169 -1.0837  1.0698
 6314TIP3    H240358   3.569   2.351   5.157 -0.4325  1.6046  0.2240
 6315TIP3   OH240359   3.484   2.035  11.242  0.0347  0.7713 -0.8361
 6315TIP3    H140360   3.572   2.010  11.272 -0.2110 -0.1365 -0.8357
 6315TIP3    H240361   3.499   2.105  11.178  0.7548  0.6273 -0.8341
 6316TIP3   OH240362   0.300   1.926  10.784 -0.5577  0.5082 -0.1407
 6316TIP3    H140363   0.290   1.869  10.708  1.8231  0.1803 -0.2724
 6316TIP3    H240364   0.210   1.942  10.814 -1.4946 -0.1818 -2.3772
 6317TIP3   OH240365   1.610   5.288  11.792 -0.3308  0.1562  0.8388
 6317TIP3    H140366   1.674   5.313  11.858  1.2013  0.9960 -0.8806
 6317TIP3    H240367   1.661   5.244  11.724 -1.6836  0.2367 -0.2746
 6318TIP3   OH240368   6.097   2.799   1.238 -0.3405  0.2343 -0.1947
 6318TIP3    H140369   6.186   2.781   1.209 -0.7910  0.5424 -1.9527
 6318TIP3    H240370   6.083   2.892   1.216 -1.1853  0.1064 -0.2441
 6319TIP3   OH240371   2.866   1.996   1.881  0.3671 -0.0931  0.0326
 6319TIP3    H140372   2.789   2.048   1.858  0.3913 -0.5699 -1.1822
 6319TIP3    H240373   2.845   1.960   1.967 -0.3153  0.6464  0.1875
 6320TIP3   OH240374   4.284   1.492   4.044  0.1654 -0.0663 -0.5593
 6320TIP3    H140375   4.234   1.418   4.079 -0.2008  0.2744 -0.3441
 6320TIP3    H240376   4.367   1.454   4.016  0.1518 -0.4825 -0.0562
 6321TIP3   OH240377   4.853   6.119   6.238 -0.1180  0.0302  0.8325
 6321TIP3    H140378   4.948   6.111   6.249  0.0113 -0.3225 -0.3746
 6321TIP3    H240379   4.841   6.128   6.143 -1.2795  0.2232  0.9889
 6322TIP3   OH240380   6.285   6.722   5.872 -0.1509 -0.1138  0.2793
 6322TIP3    H140381   6.304   6.647   5.928 -2.4583 -0.0362  1.2383
 6322TIP3    H240382   6.339   6.708   5.794  1.7495 -1.1676  1.6956
 6323TIP3   OH240383   0.399   3.649  16.401  0.1602  0.2110  0.1875
 6323TIP3    H140384   0.351   3.686  16.327  1.0636  0.5880 -0.2174
 6323TIP3    H240385   0.485   3.691  16.398  0.5685 -0.5545  0.8259
 6324TIP3   OH240386   2.480   6.735   2.689 -0.2065 -0.7105 -0.0376
 6324TIP3    H140387   2.491   6.811   2.747 -1.8354 -0.4586 -0.0209
 6324TIP3    H240388   2.568   6.721   2.652  0.1907  1.0358  0.1312
 6325TIP3   OH240389   5.053   3.495  16.759 -0.2775 -0.4476  0.5982
 6325TIP3    H140390   5.140   3.535  16.756 -0.0357 -0.9862  0.2457
 6325TIP3    H240391   5.008   3.532  16.683 -0.0304 -0.8807  0.2313
 6326TIP3   OH240392   0.864   4.722   0.935  0.0987  0.1012 -0.3689
 6326TIP3    H140393   0.912   4.658   0.881  0.8311  0.9307 -0.7235
 6326TIP3    H240394   0.791   4.749   0.880  1.6202  1.9913 -1.5733
 6327TIP3   OH240395   5.329   2.296  15.435  0.1085 -0.4123  0.2459
 6327TIP3    H140396   5.353   2.331  15.349  1.6264  1.3105  1.2927
 6327TIP3    H240397   5.398   2.327  15.494 -1.4168 -0.6670  2.2978
 6328TIP3   OH240398   1.954   0.096   5.459  0.9259 -0.4123 -0.2239
 6328TIP3    H140399   1.870   0.139   5.441  1.4022 -0.4445 -2.9931
 6328TIP3    H240400   1.989   0.142   5.535 -0.1775  1.7474 -0.9465
 6329TIP3   OH240401   0.619   0.143   2.304 -0.1531  0.3864 -0.1284
 6329TIP3    H140402   0.657   0.192   2.231  1.4852  0.7484  0.9073
 6329TIP3    H240403   0.592   0.211   2.366 -0.5284  0.0594  0.0626
 6330TIP3   OH240404   2.098   4.526  13.294 -0.1856  0.4187 -0.0403
 6330TIP3    H140405   2.051   4.606  13.318  0.0979  0.7954 -0.7096
 6330TIP3    H240406   2.137   4.496  13.376 -1.4431  0.1874  0.4938
 6331TIP3   OH240407   6.301   4.192  15.709  0.1095 -0.4318 -0.5511
 6331TIP3    H140408   6.228   4.253  15.701  0.4760  0.2144  0.7724
 6331TIP3    H240409   6.378   4.242  15.680  0.3084 -0.4906 -0.1297
 6332TIP3   OH240410   5.568   0.490  16.160 -0.1480  0.3382  0.4232
 6332TIP3    H140411   5.660   0.506  16.138  0.1060 -1.4469  0.0326
 6332TIP3    H240412   5.521   0.505  16.078 -0.0976  0.5381  0.4303
 6333TIP3   OH240413   4.676   3.656  16.967 -0.9080 -0.0877 -0.1455
 6333TIP3    H140414   4.720   3.574  16.945  0.8134  0.6268  0.4772
 6333TIP3    H240415   4.692   3.668  17.061 -1.2483  0.8894 -0.1987
 6334TIP3   OH240416   5.449   5.214   0.196 -0.2100  0.2149 -0.1275
 6334TIP3    H140417   5.455   5.232   0.102  1.8666  1.5537  0.1944
 6334TIP3    H240418   5.486   5.126   0.205  0.5157  0.4774 -0.4672
 6335TIP3   OH240419   2.788   0.805   5.397  0.4547 -0.1667  0.2804
 6335TIP3    H140420   2.704   0.760   5.405 -0.8016  1.8019 -0.9867
 6335TIP3    H240421   2.800   0.848   5.482 -0.9960  1.3762 -0.2443
 6336TIP3   OH240422   0.198   5.485  12.385  0.1846 -0.0882 -0.2055
 6336TIP3    H140423   0.280   5.528  12.411  0.4596 -0.8996  0.3105
 6336TIP3    H240424   0.218   5.447  12.299 -0.8111  2.8338 -1.8668
 6337TIP3   OH240425   6.590   2.801   3.074  0.3287  0.4173  0.3760
 6337TIP3    H140426   6.523   2.808   3.142 -0.0546 -1.2778  0.2323
 6337TIP3    H240427   6.561   2.727   3.020  1.0858  1.1736 -1.1121
 6338TIP3   OH240428   0.101   3.742   2.963  0.2766  0.0432 -0.4418
 6338TIP3    H140429   0.125   3.656   2.928 -2.8032 -0.2411 -2.1930
 6338TIP3    H240430   0.046   3.723   3.039  0.4753  0.5008 -0.1793
 6339TIP3   OH240431   1.510   1.102   5.831  0.1657 -0.1013 -0.2812
 6339TIP3    H140432   1.474   1.175   5.881 -0.4750  0.0722 -0.9826
 6339TIP3    H240433   1.554   1.048   5.896  0.5636  0.8594  0.2586
 6340TIP3   OH240434   1.379   0.729  11.994  0.1808  0.0631  0.5263
 6340TIP3    H140435   1.303   0.731  11.936 -0.8425  1.3169  1.8390
 6340TIP3    H240436   1.452   0.708  11.936 -1.3111 -2.6772 -0.5449
 6341TIP3   OH240437   2.218   3.920   0.436 -0.0783  0.3285  0.2348
 6341TIP3    H140438   2.167   3.931   0.516 -0.2770 -1.2943  0.3533
 6341TIP3    H240439   2.305   3.895   0.466 -0.3770 -1.1133 -0.0574
 6342TIP3   OH240440   0.358   4.092   1.551 -0.1258 -0.3961  0.3203
 6342TIP3    H140441   0.355   4.094   1.647 -0.6984 -1.6718  0.3568
 6342TIP3    H240442   0.337   4.181   1.524 -1.9646 -0.4676  1.3521
 6343TIP3   OH240443   4.070   1.235  16.983 -0.0318  0.6527  0.1209
 6343TIP3    H140444   4.082   1.157  17.038 -0.2333  1.4783  1.3569
 6343TIP3    H240445   4.148   1.287  16.998  0.3914  0.4445 -1.1776
 6344TIP3   OH240446   6.588   1.542  13.355  0.1930 -0.0562 -0.1064
 6344TIP3    H140447   6.563   1.507  13.270  0.9334 -1.0522  0.0637
 6344TIP3    H240448   6.674   1.503  13.373 -1.3302 -2.5714  2.5702
 6345TIP3   OH240449   2.597   4.020   0.553  0.0956 -0.2740  0.6929
 6345TIP3    H140450   2.543   4.072   0.612 -0.9868  0.3918 -0.8219
 6345TIP3    H240451   2.659   4.082   0.516 -0.6432 -0.1945 -0.4748
 6346TIP3   OH240452   5.752   4.616   5.458  0.0128  0.2241 -0.2600
 6346TIP3    H140453   5.674   4.609   5.403 -0.9334  0.2641  1.0335
 6346TIP3    H240454   5.799   4.534   5.443 -2.2951 -1.6824  1.8634
 6347TIP3   OH240455   6.081   5.286   5.204  0.0116 -0.1310 -0.3468
 6347TIP3    H140456   6.006   5.234   5.175  0.3426 -0.7388 -0.1537
 6347TIP3    H240457   6.044   5.368   5.234 -0.7368 -0.9140  0.9764
 6348TIP3   OH240458   0.927   1.596   2.204 -0.3289  0.3787 -0.0107
 6348TIP3    H140459   0.908   1.538   2.130 -1.0335  0.3554  0.1816
 6348TIP3    H240460   0.990   1.660   2.169 -0.4965  0.2395 -0.5726
 6349TIP3   OH240461   2.602   2.961  16.394  0.0202  0.2925  0.0960
 6349TIP3    H140462   2.560   2.984  16.476 -1.2527 -0.6567 -0.2688
 6349TIP3    H240463   2.686   3.007  16.397  0.4904 -0.5702  2.3937
 6350TIP3   OH240464   5.581   5.163   5.137 -0.1566 -0.2172  0.2987
 6350TIP3    H140465   5.514   5.231   5.131  1.1780  1.1991  0.5643
 6350TIP3    H240466   5.589   5.146   5.231  0.1827 -0.0237  0.3065
 6351TIP3   OH240467   0.910   3.838   3.573  0.5722 -0.0004  0.6408
 6351TIP3    H140468   0.852   3.774   3.613  0.1505  0.2752  0.4792
 6351TIP3    H240469   0.860   3.920   3.573  0.4355 -0.0529 -0.6970
 6352TIP3   OH240470   0.571   0.040   5.151  0.0461  0.3243  0.0518
 6352TIP3    H140471   0.500  -0.013   5.116  1.6310 -1.7405 -0.2108
 6352TIP3    H240472   0.541   0.067   5.238 -1.0888 -0.4367 -0.0894
 6353TIP3   OH240473   0.652   3.074  12.299 -0.1255 -0.3360  0.1116
 6353TIP3    H140474   0.680   3.143  12.360 -0.3066 -0.4718  0.3523
 6353TIP3    H240475   0.713   3.081  12.226 -1.4662  1.5296 -0.9134
 6354TIP3   OH240476   5.987   3.650  16.081  0.5168  0.6151  0.8943
 6354TIP3    H140477   5.958   3.700  16.157  2.7647  2.8042  0.4398
 6354TIP3    H240478   5.934   3.683  16.009 -0.8900 -0.7258  1.2544
 6355TIP3   OH240479   4.137   4.326  16.913  0.1398  0.3474 -0.2130
 6355TIP3    H140480   4.115   4.299  16.824 -2.1882 -0.2712  0.4984
 6355TIP3    H240481   4.086   4.405  16.928  0.2048  0.2191  0.7217
 6356TIP3   OH240482   4.959   4.726   3.598  0.6014  0.5243  0.1816
 6356TIP3    H140483   5.005   4.673   3.532  0.8776 -0.8154  1.3945
 6356TIP3    H240484   4.883   4.673   3.622  0.7020  0.8256  1.1845
 6357TIP3   OH240485   1.290   0.542   1.640 -0.1307  0.1720  0.6018
 6357TIP3    H140486   1.337   0.471   1.685  0.4447  0.1024 -0.0931
 6357TIP3    H240487   1.250   0.499   1.564  0.1917  0.5844  0.1957
 6358TIP3   OH240488   5.645   0.770   5.698  0.4026 -0.1698  0.4910
 6358TIP3    H140489   5.584   0.699   5.713  1.4355 -1.4307 -0.9079
 6358TIP3    H240490   5.704   0.769   5.774 -0.1245 -0.2218  0.8992
 6359TIP3   OH240491   2.355   0.557  16.139 -0.0569  0.2428 -0.2913
 6359TIP3    H140492   2.261   0.547  16.154  0.2181 -0.7950  0.9430
 6359TIP3    H240493   2.396   0.527  16.220  1.3853 -0.5682 -1.2529
 6360TIP3   OH240494   4.257   2.835  12.409 -0.3397  0.0785 -0.3875
 6360TIP3    H140495   4.199   2.831  12.333 -1.2940  0.8411  0.2812
 6360TIP3    H240496   4.319   2.905  12.389 -1.7345  1.5668  0.2803
 6361TIP3   OH240497   1.897   4.222  12.373 -0.2185  0.0952  0.0447
 6361TIP3    H140498   1.954   4.284  12.418 -0.8805  0.8035 -0.0727
 6361TIP3    H240499   1.873   4.266  12.292 -0.0781 -0.6419 -0.4058
 6362TIP3   OH240500   1.941   2.123  11.446  0.9139 -0.4751  0.4277
 6362TIP3    H140501   1.939   2.065  11.369 -1.3178  0.2718 -0.1501
 6362TIP3    H240502   1.864   2.178  11.436  0.5380 -0.3732  3.2558
 6363TIP3   OH240503   2.703   4.717  11.315  0.8383 -0.0580  0.6298
 6363TIP3    H140504   2.721   4.809  11.298 -0.2910  0.3157  1.3283
 6363TIP3    H240505   2.661   4.686  11.235  1.5682 -0.0828  0.2448
 6364TIP3   OH240506   3.522   0.642   5.698 -0.1123  0.6342 -0.3786
 6364TIP3    H140507   3.442   0.682   5.731  1.3710  1.3552  2.6684
 6364TIP3    H240508   3.515   0.549   5.722  0.1196  0.7711  0.2223
 6365TIP3   OH240509   6.136   4.401  12.162  0.8780  0.0702  0.3965
 6365TIP3    H140510   6.115   4.308  12.175 -0.9764  0.4571  0.4268
 6365TIP3    H240511   6.222   4.400  12.121  1.0230 -1.6531  0.6507
 6366TIP3   OH240512   4.826   1.687   4.125  0.4876 -0.2297  0.2456
 6366TIP3    H140513   4.867   1.766   4.088 -0.0973  0.0049  0.0814
 6366TIP3    H240514   4.732   1.707   4.125  0.5259  0.4829  3.4772
 6367TIP3   OH240515   0.576   2.863   0.101  0.4130  0.3077  0.2022
 6367TIP3    H140516   0.501   2.920   0.114  1.1892  2.0555 -2.2171
 6367TIP3    H240517   0.652   2.921   0.105  1.7179 -1.3888  2.5312
 6368TIP3   OH240518   6.501   2.746   1.495 -0.9388  0.6371 -0.3061
 6368TIP3    H140519   6.498   2.751   1.591 -3.2324  0.0597 -0.2849
 6368TIP3    H240520   6.413   2.772   1.468 -0.8607 -0.8995 -2.1724
 6369TIP3   OH240521   4.570   6.705   2.398  0.8606 -0.5049  0.1315
 6369TIP3    H140522   4.666   6.710   2.399  0.8632 -0.5490  0.8407
 6369TIP3    H240523   4.542   6.792   2.369  1.1280 -0.7979 -1.0193
 6370TIP3   OH240524   2.299   0.009   5.497  0.8528 -0.0528  0.3705
 6370TIP3    H140525   2.309  -0.050   5.572 -0.8145 -0.6263  0.1875
 6370TIP3    H240526   2.351  -0.032   5.428  1.8621  0.1242  1.0028
 6371TIP3   OH240527   0.462   2.331   3.703 -0.3138 -0.3250 -0.2501
 6371TIP3    H140528   0.367   2.335   3.716 -0.2733  0.8056 -0.2002
 6371TIP3    H240529   0.474   2.347   3.610 -0.1327  0.5882 -0.0840
 6372TIP3   OH240530   1.520   3.329   4.739 -0.6043  0.2953  0.5588
 6372TIP3    H140531   1.435   3.285   4.742 -0.5707  0.1748 -0.1102
 6372TIP3    H240532   1.551   3.315   4.650  0.8270 -1.0110  1.2254
 6373TIP3   OH240533   1.992   4.951   1.292 -0.4137 -0.1989 -0.1048
 6373TIP3    H140534   1.940   4.903   1.356  0.1569 -1.0988 -0.2877
 6373TIP3    H240535   1.929   5.002   1.242 -0.7526  1.6906  2.0865
 6374TIP3   OH240536   3.961   5.813   3.461 -0.6307 -0.1124 -0.4357
 6374TIP3    H140537   3.929   5.880   3.401 -1.8998 -0.9073 -0.6883
 6374TIP3    H240538   4.039   5.852   3.501 -1.7832  1.8443  0.0603
 6375TIP3   OH240539   2.874   5.998   4.202 -0.2674  0.1186 -0.0734
 6375TIP3    H140540   2.808   5.994   4.272 -0.4068 -0.7532 -0.2443
 6375TIP3    H240541   2.940   5.933   4.228  1.2652  1.9392  0.8126
 6376TIP3   OH240542   5.378   1.977  15.812 -0.2930 -0.1012 -0.5594
 6376TIP3    H140543   5.297   2.018  15.781  0.0333  1.1603  0.1596
 6376TIP3    H240544   5.373   1.986  15.908  0.7853  0.1974 -0.5225
 6377TIP3   OH240545   0.961   4.513   3.892 -0.4077  0.6337 -0.0148
 6377TIP3    H140546   0.967   4.425   3.931 -1.1366  0.3453 -0.5354
 6377TIP3    H240547   0.875   4.545   3.919  1.3589  2.9907  3.8317
 6378TIP3   OH240548   6.356   4.320  11.495  0.2655  0.5244  0.4919
 6378TIP3    H140549   6.292   4.253  11.473 -0.0242  0.8368  0.3598
 6378TIP3    H240550   6.439   4.274  11.503  0.4390  0.4157 -1.4640
 6379TIP3   OH240551   3.829   6.609   4.946  0.1280 -0.0979 -0.2306
 6379TIP3    H140552   3.833   6.705   4.942 -0.6008 -0.0486  0.0266
 6379TIP3    H240553   3.764   6.586   4.880 -0.1294 -0.3738  0.1196
 6380TIP3   OH240554   4.586   5.908  14.158  0.2486 -0.0905  0.2291
 6380TIP3    H140555   4.621   5.854  14.086 -1.5852  0.5548 -1.2056
 6380TIP3    H240556   4.603   5.855  14.236  3.0084 -0.4787 -0.4998
 6381TIP3   OH240557   2.470   4.595   6.361 -0.0595  0.1625  0.0878
 6381TIP3    H140558   2.438   4.642   6.438 -1.3997 -1.5877  0.6655
 6381TIP3    H240559   2.563   4.583   6.376 -0.4370 -0.8198  1.8308
 6382TIP3   OH240560   4.527   5.163  12.855  1.2809 -0.1631 -0.2292
 6382TIP3    H140561   4.559   5.244  12.815 -3.3933  1.2610 -1.7582
 6382TIP3    H240562   4.515   5.104  12.781 -0.4638 -0.1950  0.0370
 6383TIP3   OH240563   3.384   2.764  14.023 -0.1519  0.4585  0.3473
 6383TIP3    H140564   3.358   2.767  13.931 -0.2585 -0.0220  0.3599
 6383TIP3    H240565   3.408   2.854  14.044  0.9542  0.3613 -0.4571
 6384TIP3   OH240566   2.463   3.452   2.675 -0.0379 -0.1483  1.1427
 6384TIP3    H140567   2.506   3.463   2.760  2.3943 -2.5438  0.3514
 6384TIP3    H240568   2.493   3.367   2.644 -1.0391  0.5445 -2.0404
 6385TIP3   OH240569   5.602   1.172  11.483 -0.4718 -0.0555  0.3320
 6385TIP3    H140570   5.636   1.084  11.497 -1.3321 -0.5052 -0.4060
 6385TIP3    H240571   5.679   1.229  11.493  0.1221 -0.8949  0.6046
 6386TIP3   OH240572   4.336   0.555   1.139  0.3510  0.6555 -0.2216
 6386TIP3    H140573   4.326   0.650   1.145  1.0941  0.7490 -0.3769
 6386TIP3    H240574   4.314   0.534   1.048 -1.1813  0.4890  0.1572
 6387TIP3   OH240575   3.550   0.922  12.883 -0.0031  0.2790  0.0003
 6387TIP3    H140576   3.498   0.900  12.960 -0.2170 -0.5375 -0.3690
 6387TIP3    H240577   3.552   0.842  12.831  1.0729  0.4943 -0.3161
 6388TIP3   OH240578   1.425   3.698   2.450  0.1805 -0.1569  0.0301
 6388TIP3    H140579   1.344   3.731   2.489 -0.4077 -1.5234  0.0238
 6388TIP3    H240580   1.493   3.719   2.514 -0.3105  0.2409  0.4284
 6389TIP3   OH240581   5.365   2.034   0.897 -0.2758 -0.3981 -0.3705
 6389TIP3    H140582   5.441   2.002   0.946 -0.6634 -1.4180 -0.3971
 6389TIP3    H240583   5.332   1.956   0.853 -0.5126  0.3101 -1.4827
 6390TIP3   OH240584   3.311   0.472   5.168 -0.0267 -0.4523  0.5848
 6390TIP3    H140585   3.397   0.434   5.150  0.4684  1.3041 -1.0165
 6390TIP3    H240586   3.328   0.566   5.179 -1.2977 -0.4561  3.6547
 6391TIP3   OH240587   4.571   5.179  15.289  0.2453  0.2731 -0.3264
 6391TIP3    H140588   4.662   5.175  15.318  0.1632  0.9127  0.0265
 6391TIP3    H240589   4.576   5.194  15.195  0.5062 -0.2996 -0.4070
 6392TIP3   OH240590   2.503   4.880   1.732  0.2514  0.2667  0.5321
 6392TIP3    H140591   2.497   4.958   1.786  0.4983  0.2190  0.6301
 6392TIP3    H240592   2.435   4.821   1.767  0.3138  0.2918  0.6962
 6393TIP3   OH240593   4.119   6.553   4.858 -0.1523 -0.4479 -0.0721
 6393TIP3    H140594   4.157   6.641   4.852  2.3617 -1.1528  2.7357
 6393TIP3    H240595   4.025   6.567   4.862 -0.0913  1.7844 -2.9949
 6394TIP3   OH240596   4.869   3.702  14.071  0.0965 -0.5496  0.4859
 6394TIP3    H140597   4.889   3.665  13.985 -1.2071 -1.1191  0.3982
 6394TIP3    H240598   4.932   3.661  14.130  0.3242 -0.9641 -0.0355
 6395TIP3   OH240599   0.932   6.434  13.933  0.4600  0.0010 -0.4326
 6395TIP3    H140600   1.028   6.435  13.940  0.4003 -0.0033  0.4633
 6395TIP3    H240601   0.904   6.511  13.983 -0.0967 -1.0468  0.9088
 6396TIP3   OH240602   0.658   5.793   4.933  0.2765 -0.9032  0.1651
 6396TIP3    H140603   0.587   5.813   4.994  0.0137 -1.8640  0.1825
 6396TIP3    H240604   0.615   5.747   4.861  0.4570  0.8622 -1.1219
 6397TIP3   OH240605   1.891   0.853  11.026 -0.3177 -0.3925 -0.0422
 6397TIP3    H140606   1.951   0.860  10.951 -0.6195 -0.6409 -0.3099
 6397TIP3    H240607   1.811   0.897  10.997 -0.1248  0.2984  0.4639
 6398TIP3   OH240608   5.159   0.665   3.304 -0.6196  0.2326  0.1016
 6398TIP3    H140609   5.174   0.643   3.396  0.3076  0.3010 -0.0238
 6398TIP3    H240610   5.236   0.631   3.258 -0.0460  2.0313 -0.3583
 6399TIP3   OH240611   3.702   0.405  17.242  0.1110 -0.7727 -0.1725
 6399TIP3    H140612   3.709   0.384  17.335  0.9205 -0.4621 -0.1490
 6399TIP3    H240613   3.618   0.369  17.215 -0.4985 -0.1894  0.8628
 6400TIP3   OH240614   5.315   0.353  15.391 -0.5874  0.1337  0.3128
 6400TIP3    H140615   5.299   0.441  15.424  3.4687  0.8701  0.8592
 6400TIP3    H240616   5.290   0.357  15.299 -2.0248  1.3158  0.7157
 6401TIP3   OH240617   4.712   0.118   0.097 -0.9667  0.0646 -0.5293
 6401TIP3    H140618   4.692   0.126   0.004  0.8191 -1.6059 -1.1117
 6401TIP3    H240619   4.803   0.147   0.105 -1.4189  1.2027  0.9071
 6402TIP3   OH240620   1.008   2.830  12.861 -0.4693  0.2735  0.6687
 6402TIP3    H140621   0.948   2.882  12.807 -0.3742  0.5050  0.7835
 6402TIP3    H240622   1.095   2.856  12.831 -0.4299 -0.2799  0.2989
 6403TIP3   OH240623   2.955   6.255   0.712  0.2362  0.7710 -0.3366
 6403TIP3    H140624   3.001   6.278   0.631  0.0403 -0.5929 -0.8567
 6403TIP3    H240625   2.937   6.339   0.753 -0.4107  1.5649 -2.1276
 6404TIP3   OH240626   3.339   6.518  16.813 -0.0568  0.0244  0.3915
 6404TIP3    H140627   3.362   6.529  16.720  1.8960 -1.3270  0.6478
 6404TIP3    H240628   3.423   6.504  16.857 -1.0155 -0.3029  2.2317
 6405TIP3   OH240629   4.492   0.057   6.211  0.5724  0.1542 -0.0561
 6405TIP3    H140630   4.471   0.116   6.138 -0.3647 -0.9520 -0.7169
 6405TIP3    H240631   4.413   0.057   6.265  0.8434  0.0926  0.3414
 6406TIP3   OH240632   1.468   5.072   2.551 -0.3851 -1.1033 -0.1711
 6406TIP3    H140633   1.547   5.113   2.516 -0.0977 -1.3017  0.2412
 6406TIP3    H240634   1.398   5.133   2.529  0.1384 -0.0436  1.0530
 6407TIP3   OH240635   4.727   1.181   1.437  0.4127  0.1588 -0.2865
 6407TIP3    H140636   4.752   1.100   1.482 -0.2379  0.5808  0.8796
 6407TIP3    H240637   4.807   1.209   1.391  0.2501 -1.9444 -2.0337
 6408TIP3   OH240638   4.356   2.744   3.355  0.5996  0.1569 -0.0474
 6408TIP3    H140639   4.296   2.744   3.280  1.2513 -1.3906 -0.6111
 6408TIP3    H240640   4.389   2.654   3.359  1.4109  0.4927  1.4418
 6409TIP3   OH240641   4.676   1.723  13.759 -0.5572  0.4009  0.4349
 6409TIP3    H140642   4.612   1.782  13.719  0.0119 -0.2133 -1.4972
 6409TIP3    H240643   4.698   1.660  13.690  1.3373 -0.0527  1.3646
 6410TIP3   OH240644   4.168   3.357  16.289  0.1331 -0.0968  0.2068
 6410TIP3    H140645   4.143   3.350  16.381  1.2718 -0.3023  0.5198
 6410TIP3    H240646   4.102   3.307  16.242 -1.0729  0.8904  0.7866
 6411TIP3   OH240647   2.777   1.781  16.456 -0.1152 -0.4146  0.5796
 6411TIP3    H140648   2.857   1.728  16.448  0.5380  0.7083 -0.7893
 6411TIP3    H240649   2.793   1.837  16.532  0.8721  0.5092 -0.2734
 6412TIP3   OH240650   1.477   0.564  11.461  0.3058 -0.0063  0.3663
 6412TIP3    H140651   1.482   0.478  11.505  0.0065 -0.2897 -0.1465
 6412TIP3    H240652   1.557   0.567  11.409 -0.2356 -0.4862 -0.5223
 6413TIP3   OH240653   1.083   3.472  12.290 -0.9878  0.3845  0.0935
 6413TIP3    H140654   1.132   3.396  12.259 -3.2381 -0.8309 -0.7114
 6413TIP3    H240655   1.041   3.508  12.212 -2.8787  0.2048  0.9673
 6414TIP3   OH240656   5.756   4.582  15.553  0.3702  0.2309 -0.0271
 6414TIP3    H140657   5.851   4.594  15.555  0.5028 -0.7397  1.1203
 6414TIP3    H240658   5.739   4.514  15.619 -0.7413 -2.2301 -2.6157
 6415TIP3   OH240659   2.523   5.248  10.384  0.1837  0.5246 -0.1500
 6415TIP3    H140660   2.446   5.196  10.362  1.0305 -0.4813 -0.8492
 6415TIP3    H240661   2.494   5.307  10.452 -1.3950  0.6718 -0.9200
 6416TIP3   OH240662   3.134   0.415  16.408 -0.4499  0.6171  0.2393
 6416TIP3    H140663   3.197   0.486  16.422 -0.0249  0.0472  1.3584
 6416TIP3    H240664   3.165   0.344  16.464 -0.3737 -0.7861 -1.4781
 6417TIP3   OH240665   1.595   2.720  16.074 -0.0626  0.4368  0.0532
 6417TIP3    H140666   1.684   2.701  16.103  1.6922  1.2302 -4.0217
 6417TIP3    H240667   1.554   2.634  16.064  1.6384 -0.2526 -1.5526
 6418TIP3   OH240668   4.261   6.251  11.607 -0.5204 -0.1396 -0.3549
 6418TIP3    H140669   4.352   6.237  11.578 -0.2060 -1.2825  1.0682
 6418TIP3    H240670   4.248   6.346  11.599  1.4647  0.3369  1.1918
 6419TIP3   OH240671   5.910   0.700  14.455  0.0032 -0.2647  0.2370
 6419TIP3    H140672   5.860   0.764  14.506  1.1572 -0.1358  1.2549
 6419TIP3    H240673   5.945   0.751  14.382  1.2568  0.4066  1.2651
 6420TIP3   OH240674   0.032   2.761  16.999 -0.1145 -0.7386  0.4188
 6420TIP3    H140675   0.125   2.783  17.002  0.2062 -0.8855 -3.4023
 6420TIP3    H240676   0.030   2.668  16.978 -1.0557 -0.5121 -0.6043
 6421TIP3   OH240677   1.967   0.689   4.857 -0.3895 -0.5444 -0.3514
 6421TIP3    H140678   1.925   0.732   4.782 -0.0433 -0.4289 -0.4858
 6421TIP3    H240679   1.999   0.606   4.822  2.2045  0.6561 -1.1002
 6422TIP3   OH240680   0.142   4.316  15.389  0.2308  0.0740  0.3638
 6422TIP3    H140681   0.136   4.244  15.452  1.0375  1.2228  1.8186
 6422TIP3    H240682   0.205   4.285  15.324  3.2184  0.6168  2.7563
 6423TIP3   OH240683   4.643   3.859   5.290  0.3908 -0.5614 -0.9829
 6423TIP3    H140684   4.565   3.903   5.322 -0.6182 -0.1621 -3.7139
 6423TIP3    H240685   4.660   3.790   5.353 -0.9180  0.6332  0.7627
 6424TIP3   OH240686   1.197   5.655   4.275 -0.8553 -0.6105 -0.5781
 6424TIP3    H140687   1.188   5.748   4.254  0.5029  0.2465  2.1689
 6424TIP3    H240688   1.123   5.636   4.332 -0.5516 -0.9192 -0.2795
 6425TIP3   OH240689   0.531   6.103  14.658 -0.1338  0.5684  0.2924
 6425TIP3    H140690   0.458   6.041  14.657 -0.3467  0.8216 -0.7680
 6425TIP3    H240691   0.491   6.188  14.677 -0.0680  0.6574  0.0323
 6426TIP3   OH240692   5.125   2.992  14.998  0.0179  0.1508 -0.2934
 6426TIP3    H140693   5.140   3.053  14.926 -2.0085  1.0887 -0.0131
 6426TIP3    H240694   5.122   3.048  15.076 -1.7771 -0.2723 -0.0179
 6427TIP3   OH240695   0.802   4.272  13.260 -0.5559  0.2943 -0.4676
 6427TIP3    H140696   0.797   4.176  13.261 -1.5523  0.3368 -0.5281
 6427TIP3    H240697   0.836   4.292  13.172  0.5234 -0.0201 -0.1429
 6428TIP3   OH240698   3.885   6.464   3.329  0.0821  1.2937  0.2324
 6428TIP3    H140699   3.887   6.405   3.405  1.6079 -0.0104 -0.7630
 6428TIP3    H240700   3.850   6.410   3.258 -0.1077  2.1122 -0.3123
 6429TIP3   OH240701   2.863   6.072  11.155 -0.6305  0.2545  0.3997
 6429TIP3    H140702   2.955   6.085  11.180 -0.3753 -0.3214 -0.2076
 6429TIP3    H240703   2.826   6.021  11.226 -0.4212  0.2882  0.5337
 6430TIP3   OH240704   4.550   5.458   4.389  0.0984  0.1440  0.2227
 6430TIP3    H140705   4.501   5.505   4.457 -0.6427 -0.1294 -0.1163
 6430TIP3    H240706   4.642   5.471   4.413 -0.1578 -0.2553  1.4954
 6431TIP3   OH240707   2.191   5.408   1.410 -0.2109 -0.1450 -0.5771
 6431TIP3    H140708   2.219   5.464   1.337 -1.3849 -1.3250 -2.0255
 6431TIP3    H240709   2.245   5.329   1.400 -0.0554 -0.1293  0.1339
 6432TIP3   OH240710   0.375   2.623  16.024 -0.1123  0.6026  0.2238
 6432TIP3    H140711   0.468   2.599  16.021 -0.0735  0.8723 -0.8528
 6432TIP3    H240712   0.368   2.678  16.102  0.4197 -0.2655  0.9103
 6433TIP3   OH240713   5.563   0.468   2.069 -0.1394 -0.2574  0.0517
 6433TIP3    H140714   5.644   0.423   2.042  0.1420 -0.0616  0.5716
 6433TIP3    H240715   5.561   0.546   2.014  0.2925 -0.0005  0.3950
 6434TIP3   OH240716   3.386   0.133   0.737  0.5809 -0.1770 -0.1072
 6434TIP3    H140717   3.339   0.182   0.669  0.1270  0.4136  0.6246
 6434TIP3    H240718   3.445   0.198   0.776  0.8930 -0.5329  0.0124
 6435TIP3   OH240719   3.261   2.895   2.490  0.0918 -0.0507 -0.1222
 6435TIP3    H140720   3.262   2.988   2.510  2.1269 -0.0193 -0.2007
 6435TIP3    H240721   3.209   2.888   2.410 -1.1629  0.8307  0.5842
 6436TIP3   OH240722   5.807   0.687  16.722 -0.2142 -0.6843  0.7550
 6436TIP3    H140723   5.879   0.746  16.699 -0.9354  0.4012  1.2410
 6436TIP3    H240724   5.770   0.661  16.638  1.0056 -1.6256  0.4687
 6437TIP3   OH240725   1.635   4.550   5.954  0.4111  0.0054 -0.5269
 6437TIP3    H140726   1.551   4.513   5.928  1.1033 -1.4685 -0.7771
 6437TIP3    H240727   1.682   4.561   5.871  0.2595  1.4290 -0.4549
 6438TIP3   OH240728   1.621   4.394  14.454 -0.2919  0.1211  0.5287
 6438TIP3    H140729   1.633   4.488  14.436 -1.1788  0.4034  1.3307
 6438TIP3    H240730   1.585   4.391  14.543  0.3821 -1.0269  0.7888
 6439TIP3   OH240731   4.274   5.655  14.327 -0.0187  0.5049  0.1959
 6439TIP3    H140732   4.353   5.605  14.344 -0.3746  0.1177  0.7636
 6439TIP3    H240733   4.300   5.722  14.264  0.7320  0.3201  0.3076
 6440TIP3   OH240734   5.906   3.875   3.549 -0.0369  0.4405  0.8595
 6440TIP3    H140735   5.861   3.836   3.623  0.0834 -1.9388 -0.2403
 6440TIP3    H240736   5.838   3.925   3.503 -0.2048  1.5737  2.2536
 6441TIP3   OH240737   6.648   4.312  10.702 -0.4736 -0.2057  0.3460
 6441TIP3    H140738   6.650   4.352  10.614 -3.6069  1.3329  0.8437
 6441TIP3    H240739   6.672   4.384  10.761  0.0394 -0.8072  0.8859
 6442TIP3   OH240740   6.077   3.090   1.223 -0.0858 -0.2973 -0.3674
 6442TIP3    H140741   5.997   3.114   1.269 -0.7258  1.1193 -2.1286
 6442TIP3    H240742   6.147   3.132   1.274 -0.4779 -1.0430  0.8378
 6443TIP3   OH240743   2.495   2.894   1.649  0.4311 -0.3171 -0.3497
 6443TIP3    H140744   2.580   2.932   1.625  0.0419 -0.0715 -1.4507
 6443TIP3    H240745   2.495   2.892   1.744  1.8854 -0.8228 -0.3412
 6444TIP3   OH240746   4.971   0.580  14.788  0.6563 -0.4440 -0.2949
 6444TIP3    H140747   4.990   0.551  14.699  2.1140  0.3375 -0.2685
 6444TIP3    H240748   4.930   0.666  14.778  0.9319 -0.3014 -0.2134
 6445TIP3   OH240749   3.766   1.957  14.964  0.2855 -0.4265 -0.5530
 6445TIP3    H140750   3.735   1.934  15.052 -1.5434  0.9144 -0.7879
 6445TIP3    H240751   3.804   2.044  14.974 -1.5611  0.5367 -1.3469
 6446TIP3   OH240752   2.206   0.074   5.221  0.3200 -0.3513  0.1749
 6446TIP3    H140753   2.174   0.161   5.199  2.1154  0.4544  0.5151
 6446TIP3    H240754   2.190   0.064   5.314  1.4664  0.2780  0.4617
 6447TIP3   OH240755   3.121   2.044  12.726 -0.5718 -0.4845  0.1707
 6447TIP3    H140756   3.144   2.015  12.637  0.1120  0.3497  0.0633
 6447TIP3    H240757   3.187   2.003  12.782 -2.1588 -2.6618  0.5929
 6448TIP3   OH240758   0.947   3.258  15.348  0.1259 -1.0035 -0.1732
 6448TIP3    H140759   1.007   3.314  15.396  0.3571 -0.3950 -1.1460
 6448TIP3    H240760   0.983   3.170  15.358  0.2237 -0.8741  0.6647
 6449TIP3   OH240761   3.503   6.377  11.367 -0.1808  0.0336 -0.5227
 6449TIP3    H140762   3.464   6.400  11.451 -1.6078  2.0109 -1.6406
 6449TIP3    H240763   3.429   6.348  11.313 -0.0697  2.8768 -2.3738
 6450TIP3   OH240764   1.685   2.103   0.050 -0.1449  0.3003 -0.3748
 6450TIP3    H140765   1.652   2.075  -0.035 -0.4601  1.2601 -0.5887
 6450TIP3    H240766   1.669   2.029   0.108  2.0499 -1.2242 -1.5758
 6451TIP3   OH240767   5.262   3.087   6.300 -0.1244  0.4289  0.2926
 6451TIP3    H140768   5.341   3.091   6.354  0.5226 -1.0698 -0.4696
 6451TIP3    H240769   5.210   3.015   6.337 -0.3850  0.3862 -0.1418
 6452TIP3   OH240770   3.136   5.258   0.626 -0.5343 -0.5339 -0.1589
 6452TIP3    H140771   3.065   5.276   0.687 -0.8366 -2.0814 -0.0133
 6452TIP3    H240772   3.092   5.231   0.546 -0.1351  1.2742 -1.0396
 6453TIP3   OH240773   3.060   2.264  16.581 -0.0706 -0.4981  0.6702
 6453TIP3    H140774   3.018   2.197  16.635  1.6138 -1.4264  0.8831
 6453TIP3    H240775   3.069   2.224  16.495 -0.4242  0.0265  0.3853
 6454TIP3   OH240776   6.136   3.200  11.452 -0.3175 -0.5764  0.0757
 6454TIP3    H140777   6.054   3.213  11.405 -0.2264 -0.1652  0.0281
 6454TIP3    H240778   6.203   3.229  11.390 -0.1235 -1.0113  0.0734
 6455TIP3   OH240779   1.160   6.313   0.283 -0.1271 -0.2228  0.0071
 6455TIP3    H140780   1.097   6.258   0.237  0.7524 -1.6759  0.4566
 6455TIP3    H240781   1.239   6.259   0.289  0.2003  0.3904  2.0885
 6456TIP3   OH240782   6.487   2.581  12.577 -0.0094 -0.1649 -0.3977
 6456TIP3    H140783   6.518   2.496  12.608 -0.9899 -0.1002  0.8510
 6456TIP3    H240784   6.510   2.642  12.648  0.3402  0.5437 -1.1045
 6457TIP3   OH240785   3.481   5.368  15.660  0.6671  0.2199  0.3520
 6457TIP3    H140786   3.559   5.362  15.714  0.4685  3.2775  1.1328
 6457TIP3    H240787   3.492   5.449  15.610 -0.9004 -0.5519 -1.3542
 6458TIP3   OH240788   1.396   1.277  13.948  0.3993 -0.0240 -0.1244
 6458TIP3    H140789   1.346   1.298  13.868 -0.8397 -1.0961  0.3233
 6458TIP3    H240790   1.364   1.190  13.973  1.6879 -0.2369  0.8475
 6459TIP3   OH240791   5.332   4.568  17.346 -0.5908 -0.1991 -0.1393
 6459TIP3    H140792   5.277   4.530  17.278 -0.1847 -0.5503 -0.2725
 6459TIP3    H240793   5.392   4.498  17.371  1.9909  1.0666 -2.2857
 6460TIP3   OH240794   6.345   1.681   0.155 -0.3916 -0.0462  0.4734
 6460TIP3    H140795   6.417   1.681   0.218 -0.4013  0.5121  0.4887
 6460TIP3    H240796   6.387   1.692   0.070 -0.2416 -2.2935  0.1937
 6461TIP3   OH240797   5.130   1.548  15.708 -0.2124  0.1198  0.2736
 6461TIP3    H140798   5.114   1.589  15.793 -1.9085 -0.4801  0.2807
 6461TIP3    H240799   5.216   1.508  15.717  0.7179  2.1067  0.8701
 6462TIP3   OH240800   5.748   5.514   3.557 -0.3962 -0.4016  0.5292
 6462TIP3    H140801   5.836   5.478   3.548 -0.0926  0.1734  1.1017
 6462TIP3    H240802   5.707   5.500   3.472 -0.1417 -1.6847  0.6010
 6463TIP3   OH240803   6.144   6.019   1.700 -0.1783 -0.0454  0.5444
 6463TIP3    H140804   6.159   5.934   1.659 -1.1086  0.8845 -1.9053
 6463TIP3    H240805   6.186   6.082   1.642 -0.4570  1.2778  1.7244
 6464TIP3   OH240806   3.109   0.106   1.926 -0.2362 -0.4541 -0.3878
 6464TIP3    H140807   3.100   0.061   2.010  1.1439 -1.0243 -0.5183
 6464TIP3    H240808   3.203   0.100   1.906  0.0405  2.5277 -0.3978
 6465TIP3   OH240809   3.175   6.041  15.232 -0.2361 -0.0103  0.3331
 6465TIP3    H140810   3.196   6.096  15.157  1.5453 -0.5886  0.3532
 6465TIP3    H240811   3.249   6.052  15.291 -1.6057  0.4305  2.0306
 6466TIP3   OH240812   4.036   3.764   1.268  0.9034 -0.3058 -0.3907
 6466TIP3    H140813   4.085   3.707   1.328  0.5424 -0.2034  0.0077
 6466TIP3    H240814   3.960   3.712   1.243  1.5288 -0.7070 -1.5122
 6467TIP3   OH240815   6.331   5.640   0.492  0.1241  0.6003 -0.1459
 6467TIP3    H140816   6.410   5.594   0.463 -0.3804  1.0257 -2.3804
 6467TIP3    H240817   6.269   5.569   0.512  0.7906  0.2774  0.8321
 6468TIP3   OH240818   4.083   3.802  11.674  0.5815 -0.3268  0.0517
 6468TIP3    H140819   4.068   3.865  11.745 -0.2528 -0.0754 -0.3266
 6468TIP3    H240820   4.061   3.717  11.713 -1.2130 -0.0515 -0.2527
 6469TIP3   OH240821   0.301   0.370  11.778 -0.3112  0.3924  0.3706
 6469TIP3    H140822   0.334   0.452  11.743 -0.1757  0.5410  0.8452
 6469TIP3    H240823   0.206   0.385  11.787 -0.1446  0.9153  1.5390
 6470TIP3   OH240824   3.569   4.866   2.805  0.0899  0.6847  0.9904
 6470TIP3    H140825   3.522   4.783   2.809 -0.9296  1.2372  0.9474
 6470TIP3    H240826   3.607   4.867   2.717  0.5999  0.0166  1.1946
 6471TIP3   OH240827   1.089   6.159   3.792 -0.1919 -0.2088 -0.3583
 6471TIP3    H140828   1.097   6.154   3.887 -3.8463  2.0107  0.2707
 6471TIP3    H240829   1.007   6.115   3.772  1.3371 -2.2215 -2.8392
 6472TIP3   OH240830   1.515   2.678   1.447  0.3594 -0.4425 -0.0563
 6472TIP3    H140831   1.431   2.635   1.432 -0.2158  0.0472  1.6104
 6472TIP3    H240832   1.518   2.694   1.541  0.9897  2.2523 -0.4648
 6473TIP3   OH240833   4.858   1.703   4.740  0.0567 -0.6235  0.0328
 6473TIP3    H140834   4.934   1.663   4.782 -1.4584 -4.0032 -0.1198
 6473TIP3    H240835   4.789   1.700   4.808 -1.0710 -1.6718 -1.0958
 6474TIP3   OH240836   5.781   4.422  14.301  0.0436 -0.3258  0.1184
 6474TIP3    H140837   5.700   4.384  14.334  0.2090 -0.4806  0.3518
 6474TIP3    H240838   5.848   4.396  14.365  0.0388  0.9187  0.6736
 6475TIP3   OH240839   6.707   4.892  15.472 -0.2095 -0.6924 -0.5342
 6475TIP3    H140840   6.652   4.824  15.509 -0.0712 -1.3517 -1.5084
 6475TIP3    H240841   6.648   4.945  15.419 -0.2249 -0.3412 -0.1702
 6476TIP3   OH240842   5.204   3.346   2.260 -0.4161  0.2603  0.1434
 6476TIP3    H140843   5.253   3.427   2.245 -0.0425 -0.2063 -1.3638
 6476TIP3    H240844   5.272   3.281   2.279 -0.6174  0.0483  0.1344
 6477TIP3   OH240845   2.183   3.756   0.209  0.3350  0.5488 -0.0527
 6477TIP3    H140846   2.178   3.815   0.284 -1.4770  0.4632 -0.0718
 6477TIP3    H240847   2.159   3.810   0.134 -1.8847 -0.2515 -0.0052
 6478TIP3   OH240848   6.295   5.479  16.530  0.6016 -0.6000  0.0296
 6478TIP3    H140849   6.375   5.448  16.574  1.7192  0.6402 -1.0356
 6478TIP3    H240850   6.311   5.572  16.514 -2.5947  0.6415  3.0084
 6479TIP3   OH240851   5.254   0.832  10.739 -0.1897  0.0928 -0.0172
 6479TIP3    H140852   5.223   0.906  10.790  0.7765  0.8196 -0.4450
 6479TIP3    H240853   5.216   0.844  10.652  0.1462  0.2177 -0.1493
 6480TIP3   OH240854   3.227   1.235   0.508 -0.0449  0.1030  0.6137
 6480TIP3    H140855   3.320   1.259   0.514  0.1906 -0.2180 -1.1532
 6480TIP3    H240856   3.182   1.316   0.485  0.2230 -0.2888 -1.4434
 6481TIP3   OH240857   5.897   2.691  17.128  0.2807 -0.0902 -0.4744
 6481TIP3    H140858   5.868   2.655  17.212 -1.1086  1.7526 -0.1007
 6481TIP3    H240859   5.954   2.623  17.091  2.0343 -0.4098  2.5242
 6482TIP3   OH240860   0.679   4.696   0.256 -0.0715  0.3156  0.0665
 6482TIP3    H140861   0.586   4.715   0.240 -0.1278 -0.8504 -1.1730
 6482TIP3    H240862   0.705   4.642   0.182  1.7981  1.1905  0.0457
 6483TIP3   OH240863   1.265   4.044   5.132 -0.6953 -0.6339 -0.7678
 6483TIP3    H140864   1.256   4.037   5.037 -1.4611 -0.6647 -0.7064
 6483TIP3    H240865   1.330   4.113   5.145 -2.1044  0.8796 -1.3184
 6484TIP3   OH240866   1.741   5.401  15.739  0.3170  0.6023 -0.2647
 6484TIP3    H140867   1.681   5.329  15.757  1.0856  0.3313  1.4694
 6484TIP3    H240868   1.698   5.478  15.777  0.6401  0.5723  0.1702
 6485TIP3   OH240869   1.526   4.358  11.675  0.2143 -0.6513 -0.2390
 6485TIP3    H140870   1.466   4.432  11.683  0.8811 -0.2235  1.1433
 6485TIP3    H240871   1.489   4.290  11.732  0.2777 -0.9245 -0.5186
 6486TIP3   OH240872   6.020   0.563  12.938 -0.1341 -0.0899 -0.1763
 6486TIP3    H140873   5.988   0.593  12.852 -0.7826  0.3494  0.2050
 6486TIP3    H240874   6.030   0.469  12.928 -0.6885 -0.1120 -0.5890
 6487TIP3   OH240875   3.546   4.918  11.890  0.9251 -0.1305  0.5015
 6487TIP3    H140876   3.565   4.933  11.798  2.1771  0.3224  0.8087
 6487TIP3    H240877   3.562   4.824  11.903 -2.7187 -1.0154 -0.4753
 6488TIP3   OH240878   4.250   6.593  14.832  0.4396  0.1962  0.7168
 6488TIP3    H140879   4.163   6.632  14.820  0.6876 -0.0548 -2.8981
 6488TIP3    H240880   4.311   6.661  14.805  1.1329 -0.9259 -0.6636
 6489TIP3   OH240881   0.187   0.246  15.345 -0.1450  0.7510 -0.3936
 6489TIP3    H140882   0.281   0.261  15.347  0.3038 -1.7705  0.7961
 6489TIP3    H240883   0.176   0.165  15.296 -1.8719  1.7286 -1.7728
 6490TIP3   OH240884   3.715   6.749   2.286  0.0508  0.2102  0.3271
 6490TIP3    H140885   3.653   6.806   2.240 -0.2209  1.4132  2.0778
 6490TIP3    H240886   3.663   6.674   2.313  0.5004 -1.1693 -2.3499
 6491TIP3   OH240887   6.472   4.156   5.460  0.7087 -0.6316  0.6300
 6491TIP3    H140888   6.417   4.220   5.506  2.0495  0.9794  0.0937
 6491TIP3    H240889   6.516   4.107   5.529  1.7252  0.8924  1.0986
 6492TIP3   OH240890   0.113   6.749   0.011  0.0936  0.0865 -0.1426
 6492TIP3    H140891   0.125   6.751  -0.084 -0.6201  1.7536 -0.2340
 6492TIP3    H240892   0.176   6.684   0.042  1.5100  0.7002 -1.6037
 6493TIP3   OH240893   6.291   2.088  12.241  0.8337  0.3516  0.3851
 6493TIP3    H140894   6.230   2.156  12.211  2.1860  1.4089 -0.0762
 6493TIP3    H240895   6.320   2.118  12.327 -0.9733 -1.3074  1.6562
 6494TIP3   OH240896   4.108   2.602   4.327 -0.2834  0.0652 -0.5503
 6494TIP3    H140897   4.071   2.582   4.241 -0.5640  0.6343 -0.5604
 6494TIP3    H240898   4.201   2.618   4.309  0.4513 -3.1720 -0.2865
 6495TIP3   OH240899   0.481   4.083  12.752 -0.0619  0.1503 -0.3256
 6495TIP3    H140900   0.493   4.134  12.672  2.3370  2.3744  1.2853
 6495TIP3    H240901   0.399   4.115  12.789 -1.6686 -1.5234 -2.1915
 6496TIP3   OH240902   2.646   4.963   3.509 -0.0381  0.2408 -0.2352
 6496TIP3    H140903   2.710   4.954   3.439  2.3238  2.4460  1.4610
 6496TIP3    H240904   2.564   4.931   3.471  1.6527 -1.0834 -3.0792
 6497TIP3   OH240905   3.571   6.575  12.455  0.0988  0.0792 -0.2809
 6497TIP3    H140906   3.551   6.507  12.390 -0.1744  1.4951 -1.7485
 6497TIP3    H240907   3.638   6.536  12.511 -0.2627 -1.4939 -0.8885
 6498TIP3   OH240908   5.571   2.491   0.940 -0.7473  0.6033 -0.2418
 6498TIP3    H140909   5.613   2.527   0.862 -0.6987  0.3029 -0.3578
 6498TIP3    H240910   5.482   2.469   0.911  0.2668 -2.8343 -1.2677
 6499TIP3   OH240911   1.955   6.620  14.650 -0.1204 -0.3971 -0.5337
 6499TIP3    H140912   2.009   6.685  14.606 -0.0131 -0.0653  0.0884
 6499TIP3    H240913   1.891   6.594  14.583 -0.9983  1.3039 -0.3977
 6500TIP3   OH240914   5.925   6.689  16.939  0.4040  0.5697  0.8161
 6500TIP3    H140915   5.866   6.623  16.975 -0.9330  1.8322  1.0934
 6500TIP3    H240916   5.947   6.656  16.852 -0.9938  0.1741  0.5735
 6501TIP3   OH240917   5.743   1.233  14.960  1.0138  0.2422  0.1453
 6501TIP3    H140918   5.820   1.195  15.003  1.5061  0.5351 -0.4562
 6501TIP3    H240919   5.674   1.227  15.025  1.8455  1.0631  1.1290
 6502TIP3   OH240920   5.944   6.667  13.312  0.1883 -0.3047  0.2206
 6502TIP3    H140921   6.002   6.735  13.346 -0.8407  0.8855 -0.3258
 6502TIP3    H240922   5.857   6.693  13.340 -0.1548 -1.8949  0.7573
 6503TIP3   OH240923   0.066   4.909   1.915 -0.5959  0.8693  0.4350
 6503TIP3    H140924   0.034   4.847   1.981 -1.3542 -2.9110 -3.0208
 6503TIP3    H240925  -0.012   4.956   1.887 -0.7758  0.6268  0.5216
 6504TIP3   OH240926   3.509   2.798   1.541 -0.0903  0.2200  0.4261
 6504TIP3    H140927   3.520   2.886   1.579  0.1613  0.1552  0.5073
 6504TIP3    H240928   3.538   2.807   1.451 -2.3663  0.8092 -0.3191
 6505TIP3   OH240929   2.260   6.184  13.361 -0.3399  0.4621  0.4397
 6505TIP3    H140930   2.329   6.250  13.374 -1.2687  1.2810  1.3741
 6505TIP3    H240931   2.301   6.118  13.306  0.9399  1.3361  0.2880
 6506TIP3   OH240932   1.212   5.607  12.575 -0.6292  0.2219 -0.4272
 6506TIP3    H140933   1.256   5.562  12.502 -1.6842  0.5681 -1.3028
 6506TIP3    H240934   1.148   5.543  12.606 -0.6689  0.3405 -0.2695
 6507TIP3   OH240935   5.057   5.563   4.654  0.4820 -0.2779 -0.1491
 6507TIP3    H140936   4.977   5.598   4.614  0.1618  0.9519  1.4708
 6507TIP3    H240937   5.044   5.468   4.653 -1.5739 -0.0766  1.1340
 6508TIP3   OH240938   2.167   5.901   3.611  0.4837  0.0011  0.1500
 6508TIP3    H140939   2.262   5.893   3.613  0.5645  1.0311  2.1992
 6508TIP3    H240940   2.137   5.813   3.584  1.9776 -0.1402 -1.2361
 6509TIP3   OH240941   1.781   6.226   1.073 -0.2379 -0.1895  0.2765
 6509TIP3    H140942   1.739   6.148   1.110  0.3648 -0.7242 -0.1416
 6509TIP3    H240943   1.735   6.241   0.991 -0.7078  0.2156  0.6125
 6510TIP3   OH240944   0.434   6.343  15.794  0.0004 -0.0050 -0.5910
 6510TIP3    H140945   0.456   6.272  15.735 -2.3115 -0.3704 -1.1239
 6510TIP3    H240946   0.381   6.302  15.862  0.1716  0.9128  0.1110
 6511TIP3   OH240947   3.809   0.466  16.370  0.1349 -0.2471  0.1371
 6511TIP3    H140948   3.760   0.442  16.449 -0.3760  0.9517  0.1972
 6511TIP3    H240949   3.815   0.561  16.374 -0.0925 -0.1559 -1.3922
 6512TIP3   OH240950   0.005   5.655  13.326  0.6064 -0.2548 -0.3558
 6512TIP3    H140951  -0.087   5.630  13.335  0.7056 -0.2853  0.7589
 6512TIP3    H240952   0.004   5.751  13.333  0.3838  0.0347 -3.1837
 6513TIP3   OH240953   0.023   4.047   1.879 -0.2634 -0.2195 -0.4480
 6513TIP3    H140954  -0.064   4.014   1.855  0.3076  0.4376 -3.8764
 6513TIP3    H240955   0.083   3.981   1.846  0.6301  0.5265 -0.3497
 6514TIP3   OH240956   0.097   0.675  12.225  0.2145  0.5573 -0.4012
 6514TIP3    H140957   0.076   0.586  12.253  1.0857  0.2969 -0.5389
 6514TIP3    H240958   0.024   0.728  12.257  0.6868  0.1329  1.5174
 6515TIP3   OH240959   3.030   3.365   4.439 -0.3219  0.2953 -0.1659
 6515TIP3    H140960   2.965   3.376   4.370 -0.1272  2.7866 -0.0191
 6515TIP3    H240961   3.061   3.453   4.458  1.4686 -0.5883  1.3623
 6516TIP3   OH240962   1.452   5.448   0.273  0.2349  0.1306  0.2256
 6516TIP3    H140963   1.476   5.389   0.202  0.9212 -0.0473  0.6057
 6516TIP3    H240964   1.393   5.397   0.328 -0.2752  0.2590 -0.1855
 6517TIP3   OH240965   0.331   3.062   3.045 -0.3957 -0.0719 -0.1753
 6517TIP3    H140966   0.237   3.071   3.057 -0.1328  1.3136  1.1528
 6517TIP3    H240967   0.362   3.023   3.127  0.1437 -0.9298 -0.7741
 6518TIP3   OH240968   6.620   5.490   5.778 -0.1299 -0.2312  0.2410
 6518TIP3    H140969   6.660   5.443   5.705  0.1426  1.5472 -0.8089
 6518TIP3    H240970   6.674   5.467   5.853 -0.0825 -1.6644 -0.1966
 6519TIP3   OH240971   1.637   4.914   1.835 -0.3338 -0.7349  0.0023
 6519TIP3    H140972   1.580   4.865   1.894 -2.1766 -1.0653 -1.9233
 6519TIP3    H240973   1.696   4.848   1.799 -1.3876 -1.2095 -0.9464
 6520TIP3   OH240974   5.922   0.762  16.112 -0.4012 -0.3896  0.1204
 6520TIP3    H140975   5.990   0.800  16.168 -0.2432 -1.5087  0.7048
 6520TIP3    H240976   5.840   0.786  16.155 -0.4249  1.0865 -0.6634
 6521TIP3   OH240977   1.353   3.459   7.066 -0.2901 -0.1570  0.0970
 6521TIP3    H140978   1.292   3.386   7.061 -1.6293  0.9956 -3.2765
 6521TIP3    H240979   1.404   3.453   6.985  0.0872  2.1691  0.0945
 6522TIP3   OH240980   3.740   2.603  14.380 -0.0975  0.4619 -0.0973
 6522TIP3    H140981   3.768   2.522  14.423  0.5583 -0.0123 -1.3839
 6522TIP3    H240982   3.711   2.659  14.452 -0.6495 -0.9399  0.8133
 6523TIP3   OH240983   5.316   5.356   4.800  0.1052 -0.6423 -0.0824
 6523TIP3    H140984   5.315   5.368   4.705  0.1346 -2.3932 -0.3346
 6523TIP3    H240985   5.270   5.433   4.834  2.8172  1.6938 -1.2479
 6524TIP3   OH240986   5.983   2.184  16.329  0.0652 -0.5311 -0.9346
 6524TIP3    H140987   5.946   2.223  16.408  0.7479  0.2564 -0.9866
 6524TIP3    H240988   5.947   2.096  16.326 -0.1689 -0.4777  0.1179
 6525TIP3   OH240989   4.161   5.001   0.813  0.2826  0.3715  0.0081
 6525TIP3    H140990   4.087   5.052   0.846 -0.6864 -0.6540 -0.5595
 6525TIP3    H240991   4.192   5.051   0.737  0.0564  0.6943  0.1257
 6526TIP3   OH240992   5.809   6.148   6.039  0.1509 -0.1134 -0.1912
 6526TIP3    H140993   5.891   6.189   6.014  0.5656 -0.2282  0.9158
 6526TIP3    H240994   5.831   6.095   6.116 -1.1286  0.5712  0.6849
 6527TIP3   OH240995   4.089   6.003  14.564 -0.2388  0.1009 -0.5397
 6527TIP3    H140996   4.040   5.954  14.497 -1.5236  1.4692 -0.6444
 6527TIP3    H240997   4.175   6.017  14.525  0.0730 -1.7714 -0.6300
 6528TIP3   OH240998   1.361   5.587   0.585 -0.1199 -0.2570 -0.0727
 6528TIP3    H140999   1.268   5.609   0.593 -0.1627 -0.7011  0.7994
 6528TIP3    H241000   1.405   5.671   0.572 -0.5671  0.0303  0.2422
 6529TIP3   OH241001   2.389   5.216   6.027  0.4083  0.5947 -0.5367
 6529TIP3    H141002   2.320   5.247   5.969  1.1826  0.2139 -1.6936
 6529TIP3    H241003   2.352   5.223   6.115 -0.6243  1.6137 -1.0368
 6530TIP3   OH241004   0.661   6.331  11.828  0.3855  0.0296  0.2402
 6530TIP3    H141005   0.655   6.253  11.774  1.5390  0.6965 -0.9038
 6530TIP3    H241006   0.667   6.298  11.918 -1.4172 -1.0993 -0.0070
 6531TIP3   OH241007   0.730   3.699  10.894  0.2126 -0.0022  0.2835
 6531TIP3    H141008   0.811   3.751  10.888  0.4050 -0.1602  1.4275
 6531TIP3    H241009   0.753   3.626  10.952 -0.2866 -0.9530 -0.6686
 6532TIP3   OH241010   2.483   1.737   4.122  0.1986 -0.4166  0.3801
 6532TIP3    H141011   2.568   1.695   4.105 -0.6318 -2.0307  0.0655
 6532TIP3    H241012   2.444   1.685   4.192  0.7437  2.1834  2.8073
 6533TIP3   OH241013   0.125   5.167   2.900  0.0618  0.0285  0.0688
 6533TIP3    H141014   0.202   5.145   2.848 -0.8074 -2.9774 -0.1268
 6533TIP3    H241015   0.127   5.106   2.974 -1.2534  1.0249  0.9852
 6534TIP3   OH241016   6.465   1.381   3.566  0.6237 -0.5979  0.3873
 6534TIP3    H141017   6.415   1.410   3.643  1.5023 -0.5261  0.9390
 6534TIP3    H241018   6.398   1.369   3.498  0.1117  2.3672  0.1969
 6535TIP3   OH241019   1.000   1.234   4.978  0.0573 -0.4238  0.2900
 6535TIP3    H141020   1.084   1.254   4.937 -0.6165 -0.3312 -1.1138
 6535TIP3    H241021   0.999   1.139   4.986 -1.1732 -0.8699 -3.2311
 6536TIP3   OH241022   5.257   5.934  13.493 -0.1212  0.2105 -0.0374
 6536TIP3    H141023   5.325   5.933  13.426  0.3233 -0.0095  0.4134
 6536TIP3    H241024   5.178   5.959  13.446  0.1825  0.0443 -0.6488
 6537TIP3   OH241025   2.901   2.720  15.889  0.3801  0.3769  0.6282
 6537TIP3    H141026   2.864   2.646  15.841  0.0622  1.4924 -0.8976
 6537TIP3    H241027   2.994   2.717  15.870  0.2362  0.8928 -0.1871
 6538TIP3   OH241028   0.858   3.614  15.440 -0.5505 -0.3139  0.2290
 6538TIP3    H141029   0.764   3.598  15.430 -0.9455  0.9155  1.6473
 6538TIP3    H241030   0.873   3.699  15.399  0.0988 -0.8383 -0.6482
 6539TIP3   OH241031   0.746   0.298   2.738 -0.4746 -0.2163 -0.0977
 6539TIP3    H141032   0.731   0.345   2.657  1.2449  0.9742  0.2275
 6539TIP3    H241033   0.677   0.328   2.797 -0.4991  0.4767 -0.4790
 6540TIP3   OH241034   1.408   3.987  13.036 -0.2575 -0.3861  0.0761
 6540TIP3    H141035   1.432   4.080  13.035 -1.7228  0.0204  0.2744
 6540TIP3    H241036   1.313   3.987  13.047 -0.3292 -1.9127 -0.3233
 6541TIP3   OH241037   4.629   6.453  13.913  0.1666  0.2671  0.2597
 6541TIP3    H141038   4.676   6.370  13.904 -1.9416 -1.6412  4.2273
 6541TIP3    H241039   4.537   6.428  13.913 -0.5160  2.3832  2.5903
 6542TIP3   OH241040   6.536   2.930   2.840  0.2900  0.0930  0.8280
 6542TIP3    H141041   6.453   2.882   2.832  0.1460  0.3757  0.5863
 6542TIP3    H241042   6.569   2.906   2.926  0.1746 -0.3685  0.7454
 6543TIP3   OH241043   2.111   3.496   0.156 -0.6639 -0.1402 -0.2059
 6543TIP3    H141044   2.150   3.428   0.210 -1.2705 -0.3163  0.0206
 6543TIP3    H241045   2.161   3.575   0.176 -0.2256 -0.4286 -0.1617
 6544TIP3   OH241046   2.951   0.761  13.118  0.8609 -0.3090  0.2247
 6544TIP3    H141047   2.879   0.698  13.110 -0.2109  0.8966  0.0702
 6544TIP3    H241048   2.995   0.758  13.033 -0.3811  0.5282 -0.4802
 6545TIP3   OH241049   0.798   4.393   3.520  0.2943 -0.2507  0.1035
 6545TIP3    H141050   0.862   4.369   3.587 -0.6910  0.0353  1.1737
 6545TIP3    H241051   0.724   4.428   3.569 -1.4142 -2.1674 -0.9592
 6546TIP3   OH241052   3.837   5.654   0.282 -0.0596 -0.2021  0.0569
 6546TIP3    H141053   3.895   5.723   0.248  0.4018 -0.2834  0.6676
 6546TIP3    H241054   3.892   5.604   0.342  0.3295 -2.5831 -2.1177
 6547TIP3   OH241055   0.534   5.044   2.972  0.4083  0.0609 -0.3896
 6547TIP3    H141056   0.490   5.058   3.056  1.6216 -0.5629  0.3658
 6547TIP3    H241057   0.627   5.053   2.992  0.7057  0.0219 -1.6995
 6548TIP3   OH241058   1.182   4.536   1.875  0.0451  0.2819  0.4434
 6548TIP3    H141059   1.159   4.601   1.808  1.3823 -0.0658 -0.4068
 6548TIP3    H241060   1.212   4.589   1.950 -1.1434  0.6702  0.6615
 6549TIP3   OH241061   1.253   4.678   4.011  0.2273 -0.4169  0.7338
 6549TIP3    H141062   1.194   4.734   3.961 -1.9573 -1.4966  1.9461
 6549TIP3    H241063   1.254   4.595   3.963  0.7910 -0.4075  0.7216
 6550TIP3   OH241064   3.446   6.339  12.163 -0.0215  0.3357  0.3367
 6550TIP3    H141065   3.357   6.370  12.175 -1.3906 -1.7898 -2.9249
 6550TIP3    H241066   3.463   6.283  12.239 -0.5376  2.4414  2.0901
 6551TIP3   OH241067   6.083   5.634  16.317  0.0768  0.1032 -0.0549
 6551TIP3    H141068   6.162   5.651  16.265  1.1420  0.2935  1.5520
 6551TIP3    H241069   6.026   5.585  16.258  1.1369  0.4872 -1.4623
 6552TIP3   OH241070   3.385   2.049  12.175  0.2893 -0.0938 -0.4203
 6552TIP3    H141071   3.442   2.008  12.110 -2.0803 -0.1878 -2.6010
 6552TIP3    H241072   3.311   1.989  12.185 -0.7496  1.2273  0.2671
 6553TIP3   OH241073   2.433   5.808   1.035 -0.1054  0.1176  0.0611
 6553TIP3    H141074   2.383   5.735   1.071 -0.3724  1.1156  1.8264
 6553TIP3    H241075   2.521   5.796   1.070  0.1937 -0.0781 -0.7371
 6554TIP3   OH241076   2.246   5.393  13.919  0.2281  0.1018  0.2520
 6554TIP3    H141077   2.340   5.411  13.931  0.8901 -3.0742  0.7155
 6554TIP3    H241078   2.229   5.415  13.828  2.3120 -2.1941 -0.8266
 6555TIP3   OH241079   6.609   6.729  16.815  0.2051 -0.4520 -0.2656
 6555TIP3    H141080   6.682   6.667  16.814  0.8891  0.3256  0.4427
 6555TIP3    H241081   6.532   6.675  16.803  0.9157 -1.2584 -1.3955
 6556TIP3   OH241082   1.334   1.017   4.785  0.4025  0.1882 -0.4372
 6556TIP3    H141083   1.271   1.045   4.719  0.9085  1.8783 -0.2372
 6556TIP3    H241084   1.346   0.923   4.768 -1.2543  0.0821 -1.2177
 6557TIP3   OH241085   0.482   5.129   6.249  0.1783 -0.1935  0.5669
 6557TIP3    H141086   0.435   5.211   6.263 -0.8030 -0.5606 -0.4096
 6557TIP3    H241087   0.438   5.066   6.306  0.9900 -0.0540  1.3867
 6558TIP3   OH241088   4.265   2.574   0.141 -0.0083  0.4260  0.2404
 6558TIP3    H141089   4.186   2.619   0.172  0.2758  1.6307 -0.6978
 6558TIP3    H241090   4.264   2.586   0.046  1.3450  0.5463  0.2188
 6559TIP3   OH241091   4.440   6.748  14.725 -0.3055  0.1921 -0.3429
 6559TIP3    H141092   4.467   6.824  14.777 -1.3081  0.2702  0.0852
 6559TIP3    H241093   4.480   6.762  14.639  1.0847  0.2358  0.2886
 6560TIP3   OH241094   3.319   1.739  13.623 -0.1877 -0.3611  0.7943
 6560TIP3    H141095   3.298   1.653  13.659  0.7438 -1.1010 -0.3782
 6560TIP3    H241096   3.267   1.745  13.543  0.0266  0.0268  0.6819
 6561TIP3   OH241097   1.089   1.302  16.832  0.1174  0.2538 -0.5102
 6561TIP3    H141098   1.084   1.275  16.923  0.3729 -1.2459 -0.9147
 6561TIP3    H241099   0.999   1.294  16.800  0.2430 -0.3778 -0.7030
 6562TIP3   OH241100   3.579   6.572   4.699  0.4257 -0.5956 -0.2291
 6562TIP3    H141101   3.515   6.581   4.770 -0.7454  0.1107 -1.3365
 6562TIP3    H241102   3.592   6.478   4.690  0.3418 -0.7066  0.7008
 6563TIP3   OH241103   2.904   4.404   6.705 -0.4431 -0.2927 -0.0254
 6563TIP3    H141104   2.897   4.310   6.689 -0.9683 -0.2134 -0.2891
 6563TIP3    H241105   2.981   4.414   6.762 -0.2940 -0.8623 -0.1277
 6564TIP3   OH241106   1.490   1.330   6.032  0.2165 -0.5197  0.4116
 6564TIP3    H141107   1.474   1.402   6.093 -2.5884  1.1355 -1.9945
 6564TIP3    H241108   1.458   1.252   6.079 -0.9633  0.5437  1.4614
 6565TIP3   OH241109   2.132   1.216  15.888  0.2899  0.0555  0.0156
 6565TIP3    H141110   2.061   1.251  15.941 -0.7333 -1.3508 -0.3714
 6565TIP3    H241111   2.188   1.171  15.951  0.9614  1.2834  0.3401
 6566TIP3   OH241112   6.175   5.220  11.351  0.3430 -0.1465 -0.4100
 6566TIP3    H141113   6.184   5.307  11.312  1.0505  0.0638  0.2100
 6566TIP3    H241114   6.264   5.194  11.373 -0.0900  0.1573  1.9448
 6567TIP3   OH241115   0.330   5.639  12.730  0.1384  0.0846 -0.0971
 6567TIP3    H141116   0.411   5.676  12.765 -0.3628 -0.2836  1.5610
 6567TIP3    H241117   0.348   5.546  12.718 -0.0075  0.0120  0.2246
 6568TIP3   OH241118   4.407   5.625  11.940 -0.3037 -0.0812 -0.2429
 6568TIP3    H141119   4.360   5.550  11.976 -1.7439  0.9584  0.1606
 6568TIP3    H241120   4.386   5.697  12.000  0.6390  0.7562 -0.8829
 6569TIP3   OH241121   6.058   5.026  14.783 -0.7133 -0.2753  0.3286
 6569TIP3    H141122   6.031   5.005  14.693  0.4399  1.9532 -0.6031
 6569TIP3    H241123   6.117   4.954  14.807  0.7206  0.1841 -1.5714
 6570TIP3   OH241124   6.539   6.090   2.383 -0.4812 -0.6944  0.9344
 6570TIP3    H141125   6.503   6.165   2.336  0.0188  0.4940  2.3566
 6570TIP3    H241126   6.571   6.127   2.466  3.6654 -1.6736  0.0071
 6571TIP3   OH241127   0.790   6.562  16.746 -0.0792 -0.0570 -0.0474
 6571TIP3    H141128   0.878   6.556  16.708  0.6769 -0.7849  1.7318
 6571TIP3    H241129   0.733   6.578  16.671  1.4578 -0.4291 -1.3511
 6572TIP3   OH241130   4.229   1.504  12.745 -0.4004  0.8925  0.0236
 6572TIP3    H141131   4.147   1.551  12.732 -1.1586 -0.4792 -0.3491
 6572TIP3    H241132   4.274   1.510  12.660 -1.1313 -0.1975 -0.4633
 6573TIP3   OH241133   4.965   2.282  11.323 -0.6874  0.5371  0.2066
 6573TIP3    H141134   4.883   2.320  11.356 -0.1526  0.5150  1.6529
 6573TIP3    H241135   4.974   2.200  11.371  0.6284  0.9863  0.7795
 6574TIP3   OH241136   1.716   2.366  16.203 -0.2978 -0.3057 -0.3499
 6574TIP3    H141137   1.779   2.304  16.240 -1.0017  0.9757  3.4878
 6574TIP3    H241138   1.766   2.447  16.193 -0.6609 -0.0345  0.0182
 6575TIP3   OH241139   5.984   6.145   2.197 -0.4933 -0.0216  0.3649
 6575TIP3    H141140   6.002   6.094   2.276  0.5875  0.9650  0.7807
 6575TIP3    H241141   6.008   6.088   2.124 -3.8485 -1.9441  0.5413
 6576TIP3   OH241142   6.405   2.061   1.836  0.3861 -0.2098 -1.3982
 6576TIP3    H141143   6.443   2.123   1.774  1.8897  0.1620 -0.1693
 6576TIP3    H241144   6.462   2.065   1.912  0.1550 -2.6549 -1.0188
 6577TIP3   OH241145   6.015   6.645   5.529 -0.0734 -0.3953 -0.1638
 6577TIP3    H141146   5.983   6.647   5.620 -0.7446 -0.7286 -0.3796
 6577TIP3    H241147   6.067   6.565   5.524 -0.9636 -0.9819 -0.3541
 6578TIP3   OH241148   2.325   6.316   2.956  0.8297 -0.1132 -0.3430
 6578TIP3    H141149   2.325   6.304   2.861  0.3263  0.3203 -0.4026
 6578TIP3    H241150   2.303   6.409   2.968 -1.6023 -0.7157  0.2515
 6579TIP3   OH241151   5.584   0.204   0.391 -0.1225 -0.0629 -0.0974
 6579TIP3    H141152   5.661   0.245   0.431  0.0710  0.2476 -0.7595
 6579TIP3    H241153   5.552   0.271   0.330 -0.1930 -0.6541 -0.7128
 6580TIP3   OH241154   3.894   4.805   2.422 -0.3419 -0.1835 -0.3301
 6580TIP3    H141155   3.931   4.791   2.509 -0.3806 -0.3529 -0.3406
 6580TIP3    H241156   3.900   4.899   2.408 -1.2913 -0.0233  0.2792
 6581TIP3   OH241157   5.341   6.556  11.580 -0.6713  0.2613  0.1895
 6581TIP3    H141158   5.275   6.615  11.543 -0.8225  0.7537  1.2090
 6581TIP3    H241159   5.423   6.603  11.568 -0.7405  0.4977  0.6109
 6582TIP3   OH241160   1.365   2.506   3.808 -0.6784 -0.4698 -0.8718
 6582TIP3    H141161   1.344   2.588   3.853 -1.0006  0.3022 -2.3700
 6582TIP3    H241162   1.446   2.476   3.849  0.1992  1.3230 -1.2065
 6583TIP3   OH241163   3.705   2.594   1.690 -0.0869 -0.2203 -0.2504
 6583TIP3    H141164   3.653   2.668   1.658  0.4295  0.8508  1.2856
 6583TIP3    H241165   3.765   2.633   1.754  0.4586 -1.9185  0.3130
 6584TIP3   OH241166   5.117   3.865   6.142 -0.0705 -0.4978 -0.4822
 6584TIP3    H141167   5.106   3.958   6.163  0.2172 -0.5214 -0.2341
 6584TIP3    H241168   5.134   3.822   6.225  1.1616 -0.5738 -0.7615
 6585TIP3   OH241169   1.632   3.578   0.730 -0.2568 -0.1079 -0.7802
 6585TIP3    H141170   1.661   3.530   0.808 -1.1395  1.4521  0.5856
 6585TIP3    H241171   1.712   3.611   0.690  0.1984 -0.6752 -0.3536
 6586TIP3   OH241172   5.721   1.758   5.052 -0.1206 -0.1012 -0.1587
 6586TIP3    H141173   5.723   1.854   5.056 -1.5891 -0.0450 -0.0796
 6586TIP3    H241174   5.756   1.729   5.136  1.4628  0.3154 -0.6403
 6587TIP3   OH241175   3.845   1.962  16.190  0.2311 -0.1283 -0.1803
 6587TIP3    H141176   3.929   2.007  16.201  0.0069  0.7221 -1.7035
 6587TIP3    H241177   3.838   1.948  16.096 -1.3297 -0.2291 -0.0630
 6588TIP3   OH241178   6.755   5.687   3.060  0.0026  0.2111  0.3250
 6588TIP3    H141179   6.660   5.685   3.049 -0.5858 -0.4015  3.9979
 6588TIP3    H241180   6.784   5.599   3.037 -0.0296  0.7507 -2.0373
 6589TIP3   OH241181   4.307   0.584  17.048 -0.1592 -0.1462  0.1222
 6589TIP3    H141182   4.262   0.537  17.118 -0.6185 -0.8240 -0.6173
 6589TIP3    H241183   4.277   0.675  17.058 -3.0759 -0.8134 -1.3384
 6590TIP3   OH241184   5.767   0.492   0.903 -0.0969  0.4802 -0.1793
 6590TIP3    H141185   5.804   0.531   0.824 -0.7841 -0.5345 -1.0327
 6590TIP3    H241186   5.674   0.513   0.899 -0.3874 -0.7569 -0.3948
 6591TIP3   OH241187   2.118   4.858   4.069  0.3683 -0.4390 -0.1806
 6591TIP3    H141188   2.155   4.770   4.078  1.8149  0.1393 -0.3080
 6591TIP3    H241189   2.190   4.912   4.038 -0.5712  0.7544 -0.3648
 6592TIP3   OH241190   0.593   6.113   0.565  0.5492 -0.1103  0.1426
 6592TIP3    H141191   0.646   6.033   0.561  1.5320  0.4831  0.7156
 6592TIP3    H241192   0.597   6.139   0.657  2.3700  1.9490 -0.4414
 6593TIP3   OH241193   3.817   5.160   0.086  0.1143 -1.0765  0.0569
 6593TIP3    H141194   3.862   5.142   0.003 -2.3255 -0.5942 -1.4791
 6593TIP3    H241195   3.804   5.255   0.086  0.6653 -0.9902  1.3367
 6594TIP3   OH241196   0.726   4.272   5.792 -0.2650 -0.2699 -0.0667
 6594TIP3    H141197   0.794   4.299   5.854 -1.5139  1.4915  0.6061
 6594TIP3    H241198   0.648   4.320   5.818 -1.9875 -2.6152 -0.4920
 6595TIP3   OH241199   0.024   0.800  15.894  0.0533 -0.0459 -0.6621
 6595TIP3    H141200  -0.069   0.812  15.910  0.1082 -1.0226  0.5288
 6595TIP3    H241201   0.039   0.707  15.909  1.3266  0.2055 -0.2450
 6596TIP3   OH241202   1.272   2.888   1.557 -0.5665 -0.2871 -0.3597
 6596TIP3    H141203   1.313   2.956   1.502 -1.4888 -0.9083 -1.8983
 6596TIP3    H241204   1.345   2.833   1.586  0.1107  0.9024  0.2885
 6597TIP3   OH241205   1.514   5.806   0.646  0.2284 -0.3444 -0.6184
 6597TIP3    H141206   1.526   5.832   0.737 -0.5703  0.4349 -0.7239
 6597TIP3    H241207   1.590   5.841   0.601  0.6480 -0.7681 -0.2503
 6598TIP3   OH241208   0.560   1.907   2.333  0.4151 -0.2745 -0.4979
 6598TIP3    H141209   0.580   1.908   2.239  1.6851  0.4869 -0.2331
 6598TIP3    H241210   0.589   1.821   2.363 -1.1542 -1.0194 -1.0196
 6599TIP3   OH241211   5.221   5.332   5.835 -0.1055  0.8280 -0.2138
 6599TIP3    H141212   5.177   5.282   5.904  0.6346 -0.3070 -0.5290
 6599TIP3    H241213   5.294   5.376   5.880  0.6951 -0.3257 -0.3150
 6600TIP3   OH241214   3.528   2.987  13.359 -0.5475  0.0576 -0.2393
 6600TIP3    H141215   3.442   2.962  13.325 -1.1338  1.9333 -0.2576
 6600TIP3    H241216   3.560   3.051  13.296  0.1066  0.6411  0.6674
 6601TIP3   OH241217   3.317   1.659   1.385 -0.4149  0.2971  0.4010
 6601TIP3    H141218   3.300   1.600   1.459 -1.6616  0.9181  0.6301
 6601TIP3    H241219   3.231   1.690   1.359 -0.0324 -0.1387 -1.5350
 6602TIP3   OH241220   3.183   1.737  14.135 -0.1257  0.1235  0.5076
 6602TIP3    H141221   3.205   1.656  14.181 -2.7936 -0.4105  0.9850
 6602TIP3    H241222   3.234   1.733  14.054 -0.2559 -2.0612  0.4862
 6603TIP3   OH241223   0.760   5.865   0.806 -0.2733  0.3163  0.2760
 6603TIP3    H141224   0.711   5.864   0.725 -1.3122 -1.2422  0.8739
 6603TIP3    H241225   0.729   5.943   0.853 -3.0638 -1.1622  1.0993
 6604TIP3   OH241226   2.911   1.629   5.142  0.1702  0.4239 -0.2435
 6604TIP3    H141227   2.829   1.640   5.190 -0.1904  1.7079 -1.1274
 6604TIP3    H241228   2.974   1.685   5.188  0.3457  0.1079 -0.0893
 6605TIP3   OH241229   4.242   2.062  12.352 -1.0443 -0.2638  1.0571
 6605TIP3    H141230   4.257   1.967  12.352  1.5747  0.0581 -0.2988
 6605TIP3    H241231   4.317   2.098  12.400 -0.2352  1.2518 -1.1829
 6606TIP3   OH241232   0.787   5.651   3.403  0.0061  0.0498  0.4642
 6606TIP3    H141233   0.846   5.684   3.335 -2.8070  0.4371 -2.0080
 6606TIP3    H241234   0.800   5.556   3.403 -1.4701 -0.2515 -2.3669
 6607TIP3   OH241235   0.916   3.913  13.614  0.0498 -0.2032  0.1570
 6607TIP3    H141236   0.993   3.865  13.584 -0.9797 -1.1764 -1.0917
 6607TIP3    H241237   0.883   3.957  13.536  0.1308  1.3996  0.9817
 6608TIP3   OH241238   2.098   3.701   4.281 -0.3863 -0.8811 -0.2837
 6608TIP3    H141239   2.119   3.654   4.200  0.6383 -2.4115  0.8281
 6608TIP3    H241240   2.182   3.713   4.325 -0.8918  0.2064  0.4343
 6609TIP3   OH241241   0.822   4.829  12.082 -0.2474 -0.1060 -0.1906
 6609TIP3    H141242   0.726   4.824  12.074 -0.1276 -1.7039 -1.2779
 6609TIP3    H241243   0.854   4.788  12.001  1.3645  0.2531  0.2333
 6610TIP3   OH241244   2.107   3.157  12.841  0.6522  0.2901 -0.2443
 6610TIP3    H141245   2.026   3.140  12.890 -0.4830  0.8711 -1.8438
 6610TIP3    H241246   2.175   3.109  12.889 -1.0034 -2.0709 -0.1261
 6611TIP3   OH241247   6.306   5.049  16.671  0.5177 -0.1162  0.5219
 6611TIP3    H141248   6.393   5.028  16.705  1.1974  2.2297  0.3880
 6611TIP3    H241249   6.322   5.109  16.598 -1.1910 -0.0766  0.1403
 6612TIP3   OH241250   0.966   3.824  17.233  0.5971 -0.6528 -0.6278
 6612TIP3    H141251   0.919   3.860  17.158  0.5485  0.4062 -0.0993
 6612TIP3    H241252   0.897   3.795  17.293  0.4600  2.7578  1.0693
 6613TIP3   OH241253   0.702   0.475   0.557 -0.7048  0.1226  0.4487
 6613TIP3    H141254   0.697   0.550   0.497 -0.0080 -0.2969 -0.1495
 6613TIP3    H241255   0.704   0.515   0.644 -1.0109  0.7743  0.1655
 6614TIP3   OH241256   4.430   0.410   2.971 -0.1724  0.3447  0.1161
 6614TIP3    H141257   4.399   0.412   3.061 -1.5610  2.0599 -0.3363
 6614TIP3    H241258   4.525   0.409   2.978 -0.2233 -2.3747  1.5599
 6615TIP3   OH241259   2.051   5.436  11.370  0.3155 -0.2898 -0.4937
 6615TIP3    H141260   2.012   5.484  11.297 -2.3438  0.8035  1.4882
 6615TIP3    H241261   2.076   5.504  11.433  3.5838 -1.1137 -0.6957
 6616TIP3   OH241262   6.193   3.636   0.439 -0.2512  0.2431  0.2056
 6616TIP3    H141263   6.097   3.633   0.446 -0.2049 -0.4580  0.6866
 6616TIP3    H241264   6.218   3.714   0.488 -0.5739  0.4243  0.0890
 6617TIP3   OH241265   6.050   3.293  12.059  0.0092 -0.0260 -0.2526
 6617TIP3    H141266   6.078   3.308  12.150 -2.3183 -1.8353  0.8636
 6617TIP3    H241267   6.122   3.244  12.020  0.9679  0.6254  0.6326
 6618TIP3   OH241268   6.736   2.829  12.076  0.3257 -0.4431  0.6703
 6618TIP3    H141269   6.796   2.827  12.001 -0.4944  1.0377 -0.0537
 6618TIP3    H241270   6.783   2.878  12.143 -1.1898  3.7347 -1.0241
 6619TIP3   OH241271   1.280   2.276  16.510  0.0999 -0.0700  0.3136
 6619TIP3    H141272   1.221   2.225  16.566 -0.8116 -1.1911 -1.5462
 6619TIP3    H241273   1.222   2.315  16.444  1.2632  0.1725 -0.6044
 6620TIP3   OH241274   6.674   6.128  13.601 -0.4631 -0.1936 -0.0113
 6620TIP3    H141275   6.732   6.125  13.677  0.4116 -3.7200 -0.6244
 6620TIP3    H241276   6.586   6.127  13.637 -0.0703 -1.2645  0.9834
 6621TIP3   OH241277   2.979   4.642   4.049 -0.0237  0.0197 -0.3757
 6621TIP3    H141278   2.988   4.722   3.996  0.5048  0.7240  0.7320
 6621TIP3    H241279   3.062   4.635   4.096 -0.2060 -0.9954 -0.1835
 6622TIP3   OH241280   0.480   3.570  15.204  0.4448  0.2346 -0.0343
 6622TIP3    H141281   0.387   3.548  15.214  0.4361 -0.1971 -1.0202
 6622TIP3    H241282   0.496   3.565  15.110  2.1665 -2.5756  0.3126
 6623TIP3   OH241283   1.667   3.685   1.523 -0.0036  0.3962 -0.1942
 6623TIP3    H141284   1.586   3.647   1.557  0.4994  1.0803  1.9633
 6623TIP3    H241285   1.639   3.749   1.458 -0.8878 -3.4807 -4.0901
 6624TIP3   OH241286   3.731   0.674  14.285 -0.1142  0.2149  0.6284
 6624TIP3    H141287   3.671   0.613  14.243 -0.4110  0.7286  0.2866
 6624TIP3    H241288   3.796   0.694  14.217  0.0579  0.1734  0.7813
 6625TIP3   OH241289   1.492   4.188  15.839  0.3351  0.4277  0.5071
 6625TIP3    H141290   1.488   4.277  15.873 -0.2732  0.0764  1.3882
 6625TIP3    H241291   1.421   4.182  15.775 -0.2528  0.2918  1.1648
 6626TIP3   OH241292   4.102   6.170   3.049 -0.4241  0.1528 -1.1253
 6626TIP3    H141293   4.143   6.130   2.972  1.6715  1.0707 -0.5422
 6626TIP3    H241294   4.064   6.096   3.096 -0.0026 -0.6672 -2.0351
 6627TIP3   OH241295   3.652   1.888   0.407 -0.0412 -0.0618 -0.1353
 6627TIP3    H141296   3.738   1.906   0.369 -0.1878 -1.3482 -1.1514
 6627TIP3    H241297   3.598   1.962   0.379  0.5913  0.5067  0.0953
 6628TIP3   OH241298   1.074   2.147   0.516  0.2541  1.1839 -0.1005
 6628TIP3    H141299   0.992   2.195   0.529 -0.7495 -0.3286 -0.5009
 6628TIP3    H241300   1.080   2.135   0.421 -0.2075 -0.5302  0.0504
 6629TIP3   OH241301   1.337   6.162  11.622  0.4528 -0.3217 -0.2189
 6629TIP3    H141302   1.305   6.233  11.676  0.8077  0.2863 -0.7940
 6629TIP3    H241303   1.262   6.103  11.613 -0.2925  0.7072 -0.9243
 6630TIP3   OH241304   2.028   2.382   2.843  0.6390 -0.4072 -0.2501
 6630TIP3    H141305   2.015   2.311   2.780 -1.1029 -0.9104  0.6125
 6630TIP3    H241306   1.965   2.364   2.912 -0.3575  2.3624 -0.3255
 6631TIP3   OH241307   5.559   3.227  13.057  0.0435  0.2869 -0.3223
 6631TIP3    H141308   5.491   3.180  13.105  0.3250 -0.7899 -0.9420
 6631TIP3    H241309   5.581   3.301  13.113 -1.0469  0.1856  0.2701
 6632TIP3   OH241310   1.901   2.491  15.060 -0.1053 -0.2838  0.5020
 6632TIP3    H141311   1.882   2.398  15.071 -0.3448 -0.3342 -0.3034
 6632TIP3    H241312   1.965   2.494  14.989 -0.2149  0.1779  0.4202
 6633TIP3   OH241313   4.647   0.147  17.176  0.0990  0.6400 -0.8045
 6633TIP3    H141314   4.591   0.070  17.177  0.4197  0.4019 -0.9523
 6633TIP3    H241315   4.666   0.162  17.083 -0.6536  1.4039 -0.8470
 6634TIP3   OH241316   2.823   5.061  13.808  0.4208 -0.5904 -0.2539
 6634TIP3    H141317   2.773   4.990  13.766 -0.4884  0.6313 -1.3300
 6634TIP3    H241318   2.889   5.085  13.743  1.2493 -0.9629  0.4325
 6635TIP3   OH241319   4.438   4.816   1.139  0.2125  0.3302  0.2267
 6635TIP3    H141320   4.447   4.896   1.087  2.1587  0.3582  0.5483
 6635TIP3    H241321   4.489   4.750   1.091 -2.0774 -1.0319 -0.5210
 6636TIP3   OH241322   0.893   1.366  15.700  0.1867  0.2098 -0.7247
 6636TIP3    H141323   0.960   1.311  15.661  0.5593 -1.4703  2.0793
 6636TIP3    H241324   0.815   1.311  15.705  0.3629  0.0708  1.4845
 6637TIP3   OH241325   5.978   1.382   3.849  0.1913 -0.9303  0.5619
 6637TIP3    H141326   5.981   1.307   3.790  2.3402 -1.3467  1.1129
 6637TIP3    H241327   6.008   1.455   3.796  1.8161 -1.2426  1.0187
 6638TIP3   OH241328   0.117   2.159  15.656  0.0834  0.5303  0.1867
 6638TIP3    H141329   0.137   2.238  15.606  1.1867  0.5264  0.5992
 6638TIP3    H241330   0.198   2.108  15.655 -0.4521 -0.3548  0.3740
 6639TIP3   OH241331   5.591   1.555   5.880 -0.0595  0.2854  0.2158
 6639TIP3    H141332   5.606   1.566   5.974  1.8102 -1.6184  0.2105
 6639TIP3    H241333   5.675   1.525   5.845 -0.9048  0.2400 -1.9670
 6640TIP3   OH241334   0.312   3.264  11.930  0.0555  0.1002 -0.1041
 6640TIP3    H141335   0.326   3.335  11.993  0.3334 -0.9251  1.0308
 6640TIP3    H241336   0.224   3.232  11.950  0.7181 -1.2276  0.8359
 6641TIP3   OH241337   1.472   0.241  13.612 -0.1849 -0.4226  0.0072
 6641TIP3    H141338   1.568   0.236  13.612 -0.1660 -0.2611  1.4491
 6641TIP3    H241339   1.449   0.241  13.519  1.3184  1.3413 -0.4378
 6642TIP3   OH241340   2.192   0.714  11.675 -0.1226  0.2043 -0.3669
 6642TIP3    H141341   2.249   0.711  11.752  1.0514  0.8466 -1.1764
 6642TIP3    H241342   2.159   0.803  11.672  0.9733  0.5993 -1.3744
 6643TIP3   OH241343   1.824   4.261   4.122  0.3773  0.5037 -0.6317
 6643TIP3    H141344   1.831   4.188   4.061  0.8406  0.5648 -0.6537
 6643TIP3    H241345   1.740   4.302   4.101  1.1763  1.4051 -2.2044
 6644TIP3   OH241346   5.610   6.107  13.963  0.5341  0.3750  0.1004
 6644TIP3    H141347   5.541   6.042  13.977  1.6519 -0.3598  2.7238
 6644TIP3    H241348   5.665   6.068  13.894  0.2235 -0.6441  0.4120
 6645TIP3   OH241349   3.195   0.676  13.902 -0.1550 -0.2721 -0.0848
 6645TIP3    H141350   3.145   0.659  13.982 -0.7223  0.3446 -0.3015
 6645TIP3    H241351   3.133   0.657  13.831 -0.0841  0.4816 -0.3534
 6646TIP3   OH241352   0.955   2.358   6.384 -0.3868  0.0722 -0.1833
 6646TIP3    H141353   0.976   2.295   6.316  2.1368  0.4552  0.1531
 6646TIP3    H241354   1.025   2.423   6.379 -1.1402  1.0949  1.6008
 6647TIP3   OH241355   3.757   2.221   6.080  0.5150  0.2146  0.3855
 6647TIP3    H141356   3.812   2.199   6.155  1.2916  0.9865  0.0549
 6647TIP3    H241357   3.816   2.260   6.016 -0.5549  1.9837  0.4072
 6648TIP3   OH241358   2.806   1.503   5.480  0.2833 -0.1031 -0.1755
 6648TIP3    H141359   2.855   1.571   5.434  0.8528 -0.5782 -0.2777
 6648TIP3    H241360   2.739   1.551   5.529  2.0632  0.7366  1.5604
 6649TIP3   OH241361   4.949   3.273   3.567  0.5084  0.1821 -0.0486
 6649TIP3    H141362   4.997   3.261   3.485  1.6773 -0.9234  0.7713
 6649TIP3    H241363   4.874   3.214   3.559  0.2711  0.5382 -0.5607
 6650TIP3   OH241364   0.815   4.324   6.187 -0.7963  0.1683  0.4790
 6650TIP3    H141365   0.802   4.362   6.273  0.3200 -0.6296  1.0360
 6650TIP3    H241366   0.755   4.249   6.184 -0.8322  0.1943  0.5617
 6651TIP3   OH241367   0.737   1.569   5.189  0.0911  0.2787 -0.4468
 6651TIP3    H141368   0.772   1.635   5.130 -0.8561 -0.1598 -1.5314
 6651TIP3    H241369   0.791   1.492   5.173 -0.0373  0.2201 -0.6024
 6652TIP3   OH241370   5.696   3.191  13.524 -0.1929  0.2114  0.0405
 6652TIP3    H141371   5.789   3.169  13.529  0.0068  1.1420  1.1348
 6652TIP3    H241372   5.666   3.188  13.615 -0.8085  1.5900 -0.0923
 6653TIP3   OH241373   4.942   1.833   0.168 -0.4879  0.1486 -0.3456
 6653TIP3    H141374   5.021   1.874   0.202 -0.1671  0.9251 -1.9204
 6653TIP3    H241375   4.871   1.892   0.193 -0.5128 -0.2588  0.5770
 6654TIP3   OH241376   0.026   3.582  13.882  0.2921 -0.1262  0.2878
 6654TIP3    H141377  -0.044   3.518  13.866  0.6909 -0.4671 -0.1202
 6654TIP3    H241378   0.036   3.583  13.977 -0.1747 -0.1717  0.3424
 6655TIP3   OH241379   6.036   3.977   0.907 -0.6080 -0.5642  0.2690
 6655TIP3    H141380   5.990   4.005   0.828 -1.4210 -2.1952  0.1324
 6655TIP3    H241381   6.129   3.979   0.882 -0.5334  2.5023  0.4708
 6656TIP3   OH241382   0.228   1.403   6.157 -0.0031 -0.7022  0.2014
 6656TIP3    H141383   0.240   1.308   6.159 -0.5522 -0.8069 -0.7693
 6656TIP3    H241384   0.188   1.420   6.072  1.7589  0.6042 -0.4411
 6657TIP3   OH241385   4.586   4.107   2.344  0.1185  0.6141 -0.3891
 6657TIP3    H141386   4.593   4.120   2.250  1.9944 -2.5378 -0.8328
 6657TIP3    H241387   4.676   4.097   2.375 -0.5123  0.2019  1.4970
 6658TIP3   OH241388   4.350   4.066   4.208  0.2781 -0.4109  0.2106
 6658TIP3    H141389   4.379   3.997   4.148 -0.8188  0.3328 -1.2046
 6658TIP3    H241390   4.279   4.026   4.258 -0.9390 -0.1030 -1.2000
 6659TIP3   OH241391   0.532   4.545   0.582 -0.3434  0.6595 -0.1616
 6659TIP3    H141392   0.553   4.489   0.508 -2.1035 -0.7527  0.3259
 6659TIP3    H241393   0.467   4.607   0.548  0.5532  1.5291 -0.3420
 6660TIP3   OH241394   4.576   4.737  12.531 -0.4414  0.1202  0.2256
 6660TIP3    H141395   4.624   4.717  12.611 -0.9355  1.0722  0.7754
 6660TIP3    H241396   4.643   4.745  12.464  0.2342  1.6010  1.0145
 6661TIP3   OH241397   0.701   6.258   5.474 -0.8945  0.4284 -0.0169
 6661TIP3    H141398   0.633   6.318   5.503 -1.6043  0.3932 -1.5269
 6661TIP3    H241399   0.672   6.228   5.388 -0.3267 -1.7123  0.4663
 6662TIP3   OH241400   3.788   0.009  16.325  0.1972  0.3582 -0.9449
 6662TIP3    H141401   3.713   0.068  16.320  1.1675  1.6444 -0.8890
 6662TIP3    H241402   3.854   0.058  16.375  0.1872 -1.7468  1.2889
 6663TIP3   OH241403   4.032   0.952  17.300  0.4420  0.3146 -0.1564
 6663TIP3    H141404   3.950   0.920  17.337  0.3861  0.8984  0.2318
 6663TIP3    H241405   4.100   0.911  17.354  0.3504  1.6874  1.0692
 6664TIP3   OH241406   1.748   4.093   2.421  0.4768 -0.1428  0.3197
 6664TIP3    H141407   1.682   4.048   2.368  0.7666 -0.1308 -0.0542
 6664TIP3    H241408   1.702   4.115   2.503  0.5156 -1.7153  0.7910
 6665TIP3   OH241409   3.522   0.379   3.751 -0.1701 -0.2281  0.0513
 6665TIP3    H141410   3.594   0.380   3.687 -1.9303 -0.8707 -2.0702
 6665TIP3    H241411   3.460   0.444   3.718 -1.5638 -1.2532  0.5754
 6666TIP3   OH241412   0.683   1.251   3.178  0.7661  0.2323 -0.0957
 6666TIP3    H141413   0.665   1.166   3.136 -0.6805  0.7838 -0.6801
 6666TIP3    H241414   0.598   1.277   3.215  1.0209  1.7128 -0.4921
 6667TIP3   OH241415   3.633   0.721   4.929 -0.5489 -0.0939  0.1677
 6667TIP3    H141416   3.607   0.707   5.020 -1.3399 -0.8405 -0.1598
 6667TIP3    H241417   3.606   0.811   4.910  1.1120  0.6402  1.1501
 6668TIP3   OH241418   6.343   4.835  11.282  0.6542  0.9005 -0.2304
 6668TIP3    H141419   6.344   4.896  11.356 -0.6320  2.7219 -1.6194
 6668TIP3    H241420   6.255   4.799  11.282  0.4894  1.2816 -1.1288
 6669TIP3   OH241421   0.513   6.308  12.733  0.2832  0.3086  0.1004
 6669TIP3    H141422   0.562   6.387  12.754 -2.0540  2.3754 -1.6022
 6669TIP3    H241423   0.444   6.303  12.799 -0.8464  0.9783 -0.9726
 6670TIP3   OH241424   0.841   1.022   3.827 -0.2339 -0.2665  0.5936
 6670TIP3    H141425   0.869   1.056   3.912 -0.4176  2.3909 -0.3075
 6670TIP3    H241426   0.907   1.056   3.766  0.7649 -3.3870 -0.2389
 6671TIP3   OH241427   6.470   5.811  12.753  0.1133 -0.4711  0.1381
 6671TIP3    H141428   6.549   5.764  12.782  0.3927  0.3343  0.7067
 6671TIP3    H241429   6.480   5.899  12.789 -1.7022 -0.7193  1.3759
 6672TIP3   OH241430   0.736   1.701  14.212  0.1928 -0.4898 -0.3103
 6672TIP3    H141431   0.679   1.625  14.221  0.8253 -1.3408 -2.6707
 6672TIP3    H241432   0.811   1.682  14.268 -0.2993 -0.9289  0.2073
 6673TIP3   OH241433   5.867   1.109   2.807 -0.2530  0.0379 -0.3989
 6673TIP3    H141434   5.858   1.029   2.755  0.0533 -0.1719 -0.1329
 6673TIP3    H241435   5.874   1.179   2.742 -0.4429 -0.1572 -0.6339
 6674TIP3   OH241436   5.819   1.992  16.431 -0.0733  0.4637 -0.3942
 6674TIP3    H141437   5.748   2.036  16.477 -2.0523 -3.0790  0.2674
 6674TIP3    H241438   5.879   1.963  16.500 -1.9197 -2.9251  0.0024
 6675TIP3   OH241439   6.664   1.961  14.562 -0.0251  0.1821 -0.2105
 6675TIP3    H141440   6.618   1.902  14.622 -0.4285 -0.1412 -0.8250
 6675TIP3    H241441   6.755   1.959  14.591 -0.0322 -0.7545 -0.2234
 6676TIP3   OH241442   3.959   1.676  15.790  0.0454  0.1222 -0.7089
 6676TIP3    H141443   3.886   1.713  15.839  0.5963  1.2391 -0.6859
 6676TIP3    H241444   3.962   1.584  15.816 -2.5130 -0.4453 -2.1598
 6677TIP3   OH241445   2.347   2.702  16.321  0.1702  0.1155  0.1058
 6677TIP3    H141446   2.317   2.756  16.394 -1.4915  0.5617 -0.8773
 6677TIP3    H241447   2.422   2.750  16.285 -0.2752  0.9266  0.2447
 6678TIP3   OH241448   3.123   5.835   5.214  0.0554  0.1980  0.4782
 6678TIP3    H141449   3.073   5.891   5.274 -0.3595 -0.0553  0.3716
 6678TIP3    H241450   3.114   5.747   5.250  0.1410  0.1029  0.2675
 6679TIP3   OH241451   4.481   0.710  12.515 -0.0622 -0.0102 -0.6247
 6679TIP3    H141452   4.431   0.648  12.462 -1.3144  0.8424 -0.4957
 6679TIP3    H241453   4.519   0.770  12.451 -0.2788  0.0959 -0.6565
 6680TIP3   OH241454   5.869   2.312   3.342  0.3471  0.8849 -0.4486
 6680TIP3    H141455   5.904   2.265   3.418 -0.0123 -1.2389 -1.5475
 6680TIP3    H241456   5.906   2.267   3.266  0.4088  2.7300 -1.5871
 6681TIP3   OH241457   6.105   0.283  12.932 -0.0439  0.3007  0.0908
 6681TIP3    H141458   6.110   0.248  13.021  3.4899  0.4160  0.0711
 6681TIP3    H241459   6.102   0.206  12.876 -1.0976  0.2201  0.2336
 6682TIP3   OH241460   0.370   2.045  15.684 -0.5803 -0.2381 -0.4961
 6682TIP3    H141461   0.443   2.002  15.640 -0.3526  0.1937 -0.5462
 6682TIP3    H241462   0.408   2.077  15.767 -0.4116  0.9784 -1.0150
 6683TIP3   OH241463   2.439   3.851   3.405  0.1374 -0.1588 -0.7128
 6683TIP3    H141464   2.385   3.793   3.351  0.1671  0.1620 -1.0906
 6683TIP3    H241465   2.520   3.861   3.356  0.6571 -0.8577 -0.0177
 6684TIP3   OH241466   4.293   0.698   2.588 -0.1965 -0.0398  0.1198
 6684TIP3    H141467   4.213   0.749   2.601 -0.6407 -0.7372  0.1675
 6684TIP3    H241468   4.364   0.755   2.619 -0.7546  0.2703  0.8264
 6685TIP3   OH241469   2.325   1.702   0.472  0.1196  0.1582 -0.5172
 6685TIP3    H141470   2.310   1.778   0.416 -0.4712  0.0775 -0.4656
 6685TIP3    H241471   2.311   1.626   0.416  0.9029  0.0745 -0.6205
 6686TIP3   OH241472   1.803   2.205   4.378 -0.2806  0.5020  0.0452
 6686TIP3    H141473   1.711   2.232   4.379 -0.1342  1.0342 -0.6483
 6686TIP3    H241474   1.817   2.170   4.291  0.2353  0.6230  0.0796
 6687TIP3   OH241475   2.655   2.134   5.994  0.2047  0.3982  0.3304
 6687TIP3    H141476   2.719   2.103   6.058 -0.2627 -0.0460  0.5908
 6687TIP3    H241477   2.588   2.178   6.047  1.0025  2.1488 -0.0546
 6688TIP3   OH241478   4.712   3.920  13.949  0.1711  0.1946 -0.8942
 6688TIP3    H141479   4.697   3.853  13.882  0.8647 -0.2423 -0.6355
 6688TIP3    H241480   4.736   3.869  14.027  1.3849  0.7599 -0.8787
 6689TIP3   OH241481   5.221   1.808  12.783 -0.4278  0.1795  0.0105
 6689TIP3    H141482   5.316   1.818  12.795 -0.4462 -0.1226  0.4079
 6689TIP3    H241483   5.200   1.867  12.710  0.1088  0.0579 -0.2501
 6690TIP3   OH241484   1.549   0.366  13.859  0.8879  0.7550  0.5689
 6690TIP3    H141485   1.494   0.330  13.790  0.2149  3.0828 -0.1948
 6690TIP3    H241486   1.632   0.319  13.851  0.5976  0.5146 -1.4161
 6691TIP3   OH241487   0.154   4.048  15.505  0.5416 -0.5390  0.5790
 6691TIP3    H141488   0.208   3.974  15.480 -1.1943 -1.2940 -1.2065
 6691TIP3    H241489   0.066   4.026  15.473 -0.4650  1.4022  1.7825
 6692TIP3   OH241490   0.019   6.165  15.667  0.6278 -0.7038 -0.1878
 6692TIP3    H141491  -0.053   6.172  15.730 -0.1489 -0.4393 -1.0672
 6692TIP3    H241492   0.044   6.255  15.649 -0.7234 -0.6186 -1.9434
 6693TIP3   OH241493   6.297   4.865  14.848  0.0647  0.0471 -0.2170
 6693TIP3    H141494   6.361   4.875  14.778  1.0247 -0.2998  0.5913
 6693TIP3    H241495   6.324   4.928  14.915 -0.2082 -0.3637  0.2931
 6694TIP3   OH241496   3.930   5.384  12.145  0.7453  0.2961  0.2507
 6694TIP3    H141497   3.953   5.291  12.146 -4.0070 -1.1833 -1.5414
 6694TIP3    H241498   3.909   5.405  12.237  1.6090 -0.4224  0.6242
 6695TIP3   OH241499   0.630   0.527  13.234 -0.0440 -0.2658  0.0070
 6695TIP3    H141500   0.670   0.563  13.155 -2.5616 -1.2792 -1.8658
 6695TIP3    H241501   0.695   0.466  13.268  0.3537 -1.3330 -2.4611
 6696TIP3   OH241502   2.133   1.285  16.800 -0.1101 -0.4154 -0.3495
 6696TIP3    H141503   2.130   1.224  16.726 -2.4670 -0.6852 -0.1242
 6696TIP3    H241504   2.223   1.317  16.802  0.9802 -3.1619 -1.0715
 6697TIP3   OH241505   0.431   2.679   1.447 -0.2389 -0.2139  0.1603
 6697TIP3    H141506   0.479   2.598   1.459  0.4363  0.2955  1.0153
 6697TIP3    H241507   0.430   2.720   1.533 -2.8979 -0.5440  0.3884
 6698TIP3   OH241508   4.390   4.962  17.320 -0.3244 -0.6086 -0.0949
 6698TIP3    H141509   4.312   5.016  17.332  0.8617  0.8492  1.6609
 6698TIP3    H241510   4.404   4.920  17.405  0.0107 -1.9852 -0.8042
 6699TIP3   OH241511   1.583   0.137   0.839  0.2555 -0.6148 -0.4027
 6699TIP3    H141512   1.517   0.192   0.882 -0.4674 -1.9259  0.2295
 6699TIP3    H241513   1.664   0.187   0.846 -0.2599  0.1074  0.6919
 6700TIP3   OH241514   6.009   5.327   0.956 -0.2372 -0.1735  0.3587
 6700TIP3    H141515   5.955   5.253   0.925 -0.2517 -0.0469  0.0801
 6700TIP3    H241516   5.960   5.362   1.031 -0.5911 -0.0010  0.0496
 6701TIP3   OH241517   6.595   6.752   5.731  0.1021  0.3096  0.0240
 6701TIP3    H141518   6.594   6.844   5.705 -0.3869  0.4096  0.3904
 6701TIP3    H241519   6.611   6.704   5.650 -1.4708  0.6123 -0.4893
 6702TIP3   OH241520   2.340   4.832   1.979  0.0807  0.0172  0.0690
 6702TIP3    H141521   2.319   4.908   2.033 -0.5936 -0.2806  0.2378
 6702TIP3    H241522   2.416   4.793   2.021  2.3635  2.2782 -1.7171
 6703TIP3   OH241523   4.270   5.298   1.918  0.0383  0.2168  0.3444
 6703TIP3    H141524   4.222   5.216   1.907  2.2645 -1.0883 -0.2099
 6703TIP3    H241525   4.301   5.320   1.830  0.9128  0.7223  0.7673
 6704TIP3   OH241526   1.439   5.833  14.340  1.0535  0.1391  0.1718
 6704TIP3    H141527   1.489   5.808  14.418  1.3007  1.0405  0.3115
 6704TIP3    H241528   1.502   5.829  14.269  0.7807 -0.8783 -0.0326
 6705TIP3   OH241529   0.577   6.123   3.229 -0.1523  0.4677 -0.4211
 6705TIP3    H141530   0.527   6.042   3.239  1.4192 -0.5243 -0.2375
 6705TIP3    H241531   0.523   6.178   3.173 -1.9067 -0.1252  0.6050
 6706TIP3   OH241532   0.216   3.166  14.852  0.2210  0.2246  0.0507
 6706TIP3    H141533   0.270   3.096  14.814 -0.3241 -1.0435  1.5033
 6706TIP3    H241534   0.251   3.247  14.813  1.1568 -0.8006 -1.3432
 6707TIP3   OH241535   2.993   6.152  12.236  0.2538 -0.1556  0.4707
 6707TIP3    H141536   2.950   6.220  12.185 -0.5312  0.6812  2.1736
 6707TIP3    H241537   3.040   6.099  12.171  0.4919  1.7057 -0.9432
 6708TIP3   OH241538   0.797   1.351  16.808 -0.0792  0.0474 -0.0686
 6708TIP3    H141539   0.771   1.306  16.728 -0.8385  0.4087 -0.0347
 6708TIP3    H241540   0.743   1.430  16.810 -1.8265 -1.0828  1.9595
 6709TIP3   OH241541   2.882   1.953   3.282 -0.2734 -0.5464  0.1976
 6709TIP3    H141542   2.811   1.974   3.222 -0.1277 -0.8594 -0.0887
 6709TIP3    H241543   2.875   1.858   3.294 -0.1053 -0.5296  0.4240
 6710TIP3   OH241544   2.958   2.639   6.693  0.1858 -0.2802  0.2873
 6710TIP3    H141545   2.925   2.558   6.653  1.1700 -0.8749  0.6245
 6710TIP3    H241546   3.002   2.609   6.773  2.1109  0.3567 -0.4705
 6711TIP3   OH241547   5.402   2.888  13.401 -0.2221 -0.0189 -0.0127
 6711TIP3    H141548   5.398   2.928  13.488 -2.3766  0.1308 -0.1230
 6711TIP3    H241549   5.328   2.827  13.400 -1.0813  0.9534 -2.1672
 6712TIP3   OH241550   0.130   6.281  15.208 -0.1868 -0.2473  0.0707
 6712TIP3    H141551   0.105   6.209  15.266  0.8407 -0.5751  0.1379
 6712TIP3    H241552   0.065   6.280  15.138 -1.7536  0.4844  1.4531
 6713TIP3   OH241553   0.530   1.967   1.829 -0.3664  0.4281 -0.6872
 6713TIP3    H141554   0.487   1.900   1.882  1.2157 -1.1702 -1.2953
 6713TIP3    H241555   0.471   1.981   1.755  0.2502 -2.0713 -1.7646
 6714TIP3   OH241556   0.149   1.014   0.261 -0.3219  0.1050 -0.1557
 6714TIP3    H141557   0.072   0.967   0.294 -0.3434  0.1880 -0.0848
 6714TIP3    H241558   0.216   0.946   0.249 -1.0270 -0.2737 -2.1614
 6715TIP3   OH241559   6.386   2.770   4.286 -0.3686 -0.2079 -0.2554
 6715TIP3    H141560   6.448   2.749   4.216 -0.8087  2.2414 -1.4798
 6715TIP3    H241561   6.373   2.864   4.279 -2.4999 -0.3067  1.4480
 6716TIP3   OH241562   2.310   0.590   3.355 -0.1225 -0.2887  0.2410
 6716TIP3    H141563   2.249   0.601   3.282  0.5447  0.2881 -0.2374
 6716TIP3    H241564   2.356   0.673   3.361  1.0224 -0.9042  0.2271
 6717TIP3   OH241565   0.971   0.421  15.842  0.4723  0.4727  0.3523
 6717TIP3    H141566   0.998   0.484  15.775 -0.9823  1.9405  1.0511
 6717TIP3    H241567   0.880   0.400  15.820  0.4613 -0.2003  0.9987
 6718TIP3   OH241568   6.550   4.045  13.542 -0.2850  0.1431 -0.3468
 6718TIP3    H141569   6.575   4.078  13.456  2.2159 -1.8520 -0.5169
 6718TIP3    H241570   6.519   3.956  13.525  0.2254 -0.2646  0.7741
 6719TIP3   OH241571   5.206   0.704   5.961 -0.2090 -0.6318  0.2003
 6719TIP3    H141572   5.190   0.610   5.949  0.6852 -0.4666 -3.3121
 6719TIP3    H241573   5.150   0.746   5.896  0.0021  1.2671  1.1769
 6720TIP3   OH241574   2.786   1.831  12.088 -0.5169  0.0410  0.3698
 6720TIP3    H141575   2.763   1.903  12.030 -0.0157  0.0393  0.1612
 6720TIP3    H241576   2.814   1.873  12.170  1.1487  0.1682 -0.2266
 6721TIP3   OH241577   1.811   5.262   4.996  0.0679 -0.6311 -0.7342
 6721TIP3    H141578   1.770   5.334   4.949  0.2430 -1.1581 -1.7082
 6721TIP3    H241579   1.848   5.303   5.075 -1.1261  0.0749 -0.5183
 6722TIP3   OH241580   2.792   0.537   3.056  0.0509 -0.1398  0.2315
 6722TIP3    H141581   2.724   0.525   2.991 -0.3353  3.0608 -0.1174
 6722TIP3    H241582   2.869   0.566   3.006  1.0920 -1.7051  0.8334
 6723TIP3   OH241583   2.578   3.483  17.225 -0.1815 -0.4579 -0.0867
 6723TIP3    H141584   2.510   3.534  17.268 -0.3999  0.5665 -1.5503
 6723TIP3    H241585   2.541   3.395  17.218 -1.0560 -0.1005 -0.1610
 6724TIP3   OH241586   0.899   0.321  13.293 -0.2554 -0.1716 -0.3769
 6724TIP3    H141587   0.982   0.345  13.253 -0.8636  0.5864 -1.2207
 6724TIP3    H241588   0.862   0.255  13.234 -1.9042  2.0987 -2.0860
 6725TIP3   OH241589   2.748   2.731   6.512 -0.1975 -0.0971  0.2860
 6725TIP3    H141590   2.683   2.660   6.506 -0.8796  0.4462  1.0561
 6725TIP3    H241591   2.802   2.708   6.588 -1.0870  0.7166  1.2030
 6726TIP3   OH241592   0.500   2.468  12.696  0.4917 -0.3682  0.3634
 6726TIP3    H141593   0.431   2.450  12.632  0.1242  2.4956 -0.1613
 6726TIP3    H241594   0.579   2.479  12.644  0.2663  1.5841  0.3496
 6727TIP3   OH241595   3.629   4.728   3.905  0.3351 -0.2111 -0.3044
 6727TIP3    H141596   3.705   4.703   3.852 -1.1515 -0.5484 -2.3555
 6727TIP3    H241597   3.579   4.647   3.915  0.7826 -0.2653  2.0664
 6728TIP3   OH241598   1.604   1.827  14.415 -0.1713  0.2487 -0.2745
 6728TIP3    H141599   1.514   1.845  14.387 -0.2163  0.9530  0.2846
 6728TIP3    H241600   1.595   1.750  14.472 -0.6913  1.3554  1.1916
 6729TIP3   OH241601   0.179   6.710  13.497 -0.3683  0.0635  0.2695
 6729TIP3    H141602   0.254   6.753  13.456 -0.2138 -0.7363 -0.3144
 6729TIP3    H241603   0.165   6.631  13.445 -2.3391  0.7418 -0.3216
 6730TIP3   OH241604   2.954   1.401   3.635 -0.5267  0.0004  0.3609
 6730TIP3    H141605   2.966   1.320   3.685  0.6033 -0.0015  0.1232
 6730TIP3    H241606   2.965   1.471   3.700 -0.4099 -0.0229  0.3661
 6731TIP3   OH241607   0.727   4.205  15.982 -0.0739 -0.6253  0.1037
 6731TIP3    H141608   0.750   4.118  15.948  0.8031 -0.1879 -0.4515
 6731TIP3    H241609   0.799   4.227  16.041 -0.6593 -0.5787  0.8168
 6732TIP3   OH241610   3.161   4.689   5.204 -0.1460 -0.3568 -0.4493
 6732TIP3    H141611   3.204   4.726   5.282  3.2567 -1.0480 -1.8311
 6732TIP3    H241612   3.083   4.647   5.238  0.3703  0.7317  2.3692
 6733TIP3   OH241613   1.242   5.834   5.864  0.0167  0.4565  0.6014
 6733TIP3    H141614   1.210   5.852   5.952 -0.8052  1.0268  0.2097
 6733TIP3    H241615   1.249   5.920   5.823 -1.3138  0.1111 -0.4395
 6734TIP3   OH241616   4.111   0.765  16.787  0.2053  0.0542  0.5579
 6734TIP3    H141617   4.181   0.703  16.806 -0.5348 -1.1659 -0.5086
 6734TIP3    H241618   4.107   0.821  16.864  1.3151 -0.8223  1.2903
 6735TIP3   OH241619   1.026   2.813  15.193  0.0245 -0.2343 -0.4714
 6735TIP3    H141620   0.931   2.809  15.185  0.0723 -0.0198 -1.2665
 6735TIP3    H241621   1.051   2.727  15.225 -0.3836 -0.5255 -0.9227
 6736TIP3   OH241622   6.033   1.172   0.633  0.2578  0.7692 -0.2490
 6736TIP3    H141623   5.963   1.137   0.576 -0.2905  3.0906 -1.0907
 6736TIP3    H241624   6.014   1.135   0.719 -0.3013 -0.9328 -1.0537
 6737TIP3   OH241625   3.444   1.705  12.625  0.0681 -0.2486  0.1694
 6737TIP3    H141626   3.504   1.667  12.690  0.3427  0.4331  0.3258
 6737TIP3    H241627   3.369   1.645  12.624 -0.3432  0.1753  1.7621
 6738TIP3   OH241628   2.316   4.306  15.338  0.1042  1.4023  0.9419
 6738TIP3    H141629   2.334   4.398  15.358 -1.3076  0.9637  5.1367
 6738TIP3    H241630   2.402   4.264  15.338  0.5566  2.2836  1.8599
 6739TIP3   OH241631   6.518   4.207   2.434 -0.1183 -0.3414  0.0123
 6739TIP3    H141632   6.557   4.148   2.499  0.1505  0.2664  0.4076
 6739TIP3    H241633   6.523   4.158   2.352 -0.2490 -1.0254  0.4042
 6740TIP3   OH241634   1.326   3.788   2.210  0.0684 -0.3009 -0.1588
 6740TIP3    H141635   1.235   3.761   2.226 -0.8389  2.9939  0.9534
 6740TIP3    H241636   1.374   3.754   2.286 -0.5463 -0.6441  0.0870
 6741TIP3   OH241637   4.920   1.429  12.815  0.6099 -0.1033 -0.2061
 6741TIP3    H141638   4.936   1.519  12.842  0.7693 -0.3629  0.5935
 6741TIP3    H241639   4.852   1.397  12.875 -1.0601  0.1649 -1.8850
 6742TIP3   OH241640   1.039   4.305   2.722  0.4854  0.8845  0.0192
 6742TIP3    H141641   1.085   4.355   2.790  1.1820 -1.3419  1.2768
 6742TIP3    H241642   0.948   4.304   2.751  0.8137 -0.2295  1.0792
 6743TIP3   OH241643   5.262   2.862   5.336  0.5892  0.3952  0.4502
 6743TIP3    H141644   5.337   2.868   5.396  0.3465  3.2486  0.5750
 6743TIP3    H241645   5.187   2.892   5.387 -0.5411 -1.5728  0.0540
 6744TIP3   OH241646   5.265   2.066  12.213 -0.7283 -0.8084  0.2435
 6744TIP3    H141647   5.293   1.976  12.199 -1.5082 -1.4136  2.2399
 6744TIP3    H241648   5.335   2.104  12.267  0.9226  0.6626 -2.6904
 6745TIP3   OH241649   0.299   1.207  14.054  0.5829 -0.4034 -0.1139
 6745TIP3    H141650   0.243   1.142  14.012 -0.8369 -0.7646  2.1613
 6745TIP3    H241651   0.285   1.287  14.002 -2.9759 -0.1966  0.9147
 6746TIP3   OH241652   6.711   4.650   0.838 -0.2940  0.1360  0.4819
 6746TIP3    H141653   6.770   4.702   0.892  0.2080 -0.3508  0.4116
 6746TIP3    H241654   6.640   4.625   0.898 -0.4422  0.7246  0.5630
 6747TIP3   OH241655   4.929   1.864  15.710 -0.4045  0.6860 -0.1137
 6747TIP3    H141656   4.988   1.833  15.641 -2.5924  0.3944 -1.9806
 6747TIP3    H241657   4.865   1.794  15.721 -1.6403  1.8382  0.2980
 6748TIP3   OH241658   3.214   5.071  14.459  0.1440 -0.2617 -0.3666
 6748TIP3    H141659   3.260   4.990  14.481  0.5261 -0.3641 -1.5006
 6748TIP3    H241660   3.136   5.043  14.411 -0.8735 -0.0568  1.0903
 6749TIP3   OH241661   0.784   0.643  16.784  0.2185  0.6879  0.5649
 6749TIP3    H141662   0.801   0.549  16.787  1.2475  0.8673  0.7051
 6749TIP3    H241663   0.688   0.650  16.785  0.0231 -0.4306 -2.4500
 6750TIP3   OH241664   0.602   0.595  16.596 -0.5611 -0.0149  0.4663
 6750TIP3    H141665   0.600   0.690  16.610  1.4320 -0.2445  3.2689
 6750TIP3    H241666   0.688   0.579  16.559 -0.8954 -0.7401 -0.0026
 6751TIP3   OH241667   4.965   4.290  17.318 -0.4402 -0.5414  0.5111
 6751TIP3    H141668   4.954   4.195  17.315 -1.2103 -0.4750  0.9962
 6751TIP3    H241669   5.029   4.309  17.249 -0.6301 -1.3597  0.0981
 6752TIP3   OH241670   0.162   5.730   3.859 -0.4185 -0.0485  0.1808
 6752TIP3    H141671   0.112   5.683   3.926  1.5630 -1.0903  1.0206
 6752TIP3    H241672   0.221   5.663   3.822  0.7645  1.2401 -0.3436
 6753TIP3   OH241673   5.621   1.112  15.485 -0.2467  0.4268  0.3088
 6753TIP3    H141674   5.595   1.154  15.566 -1.0762 -1.6057  1.1675
 6753TIP3    H241675   5.574   1.029  15.485  1.9793 -0.9321 -0.8259
 6754TIP3   OH241676   0.330   0.860   3.093 -0.0890  0.1720  0.3400
 6754TIP3    H141677   0.418   0.868   3.128 -0.0646 -0.7419  0.5322
 6754TIP3    H241678   0.273   0.859   3.170  0.1030 -3.7648  0.6360
 6755TIP3   OH241679   3.647   5.431  16.638 -0.2140  0.2911  0.3378
 6755TIP3    H141680   3.578   5.438  16.704 -0.8488  1.0076 -0.3746
 6755TIP3    H241681   3.606   5.460  16.557  0.5461 -0.5774 -0.3907
 6756TIP3   OH241682   0.982   6.135   2.704 -0.3344 -0.7826  0.0005
 6756TIP3    H141683   0.891   6.161   2.687 -0.7862 -1.9540  0.5354
 6756TIP3    H241684   1.033   6.184   2.639 -1.2153  0.7590  0.4178
 6757TIP3   OH241685   2.581   2.114  13.787  0.1010 -0.1418  0.0532
 6757TIP3    H141686   2.541   2.109  13.874  0.0364 -1.7981 -0.0416
 6757TIP3    H241687   2.593   2.023  13.761  1.0875  0.3301 -1.2413
 6758TIP3   OH241688   1.127   4.354  11.800  0.2596  0.3578  0.2953
 6758TIP3    H141689   1.211   4.360  11.845 -0.8852  1.5916  2.4434
 6758TIP3    H241690   1.120   4.436  11.750  0.0729  0.5466  0.6280
 6759TIP3   OH241691   4.497   2.991  11.803  0.5299  0.1345 -0.3405
 6759TIP3    H141692   4.559   3.006  11.731  0.2417  4.3554  0.0669
 6759TIP3    H241693   4.411   3.006  11.764  0.2004  0.2413  0.4146
 6760TIP3   OH241694   0.443   3.983   6.077  0.1035 -0.3007 -0.0305
 6760TIP3    H141695   0.379   3.943   6.136 -3.2405  1.2139 -2.2863
 6760TIP3    H241696   0.479   4.056   6.126  0.5325 -1.4510  1.4620
 6761TIP3   OH241697   6.475   4.105   5.984 -0.2938 -0.0216  0.3497
 6761TIP3    H141698   6.544   4.050   6.020  1.5262  1.8998 -0.0020
 6761TIP3    H241699   6.499   4.118   5.893 -1.4491  0.2347  0.0663
 6762TIP3   OH241700   0.071   1.872   0.198 -1.0402 -0.1132  0.3821
 6762TIP3    H141701   0.047   1.846   0.287 -1.7412 -0.5419  0.0805
 6762TIP3    H241702   0.009   1.941   0.176  2.1425  3.6150  1.9914
 6763TIP3   OH241703   1.090   1.364   6.073 -0.3756  0.1715 -0.4114
 6763TIP3    H141704   1.013   1.413   6.104 -1.1501 -0.3519 -1.4479
 6763TIP3    H241705   1.155   1.432   6.052 -1.2027  0.7344 -1.2340
 6764TIP3   OH241706   2.578   0.439   4.261 -0.0176  0.4381  0.2232
 6764TIP3    H141707   2.522   0.406   4.190 -1.8624  1.3452  1.1914
 6764TIP3    H241708   2.613   0.521   4.227  0.9490 -0.2558 -0.4841
 6765TIP3   OH241709   0.653   1.271  16.592  0.1753  0.2819 -0.1554
 6765TIP3    H141710   0.617   1.218  16.521 -2.2470 -0.5792  1.6080
 6765TIP3    H241711   0.619   1.359  16.576  0.7605  0.4124 -0.7589
 6766TIP3   OH241712   2.948   2.925  14.185  0.2391  0.2240 -0.1788
 6766TIP3    H141713   2.869   2.927  14.130 -0.7679  1.8165  1.2116
 6766TIP3    H241714   3.020   2.910  14.123 -1.1642 -2.0505 -1.4051
 6767TIP3   OH241715   4.599   0.457  17.078 -0.3278 -0.5868  0.1340
 6767TIP3    H141716   4.539   0.532  17.071 -1.5797 -1.5540  0.1174
 6767TIP3    H241717   4.622   0.453  17.171  2.3448  1.7119 -0.2892
 6768TIP3   OH241718   2.942   0.800  11.468 -0.5058 -0.0683  0.3757
 6768TIP3    H141719   2.886   0.741  11.518 -1.7180  2.3705  2.0553
 6768TIP3    H241720   2.957   0.754  11.385 -4.1984 -1.2816  0.2115
 6769TIP3   OH241721   0.664   1.046   0.311  0.4147  0.0704  0.4422
 6769TIP3    H141722   0.608   1.004   0.376  0.0446 -1.9533 -1.0944
 6769TIP3    H241723   0.692   1.128   0.353 -1.0774 -0.3875  2.4904
 6770TIP3   OH241724   3.029   1.624   3.806  0.1099  0.1587 -0.1539
 6770TIP3    H141725   3.073   1.635   3.891  1.9652 -1.8598 -0.7588
 6770TIP3    H241726   2.950   1.676   3.814  2.1646  3.4226  1.3313
 6771TIP3   OH241727   3.932   1.031  14.176  0.2068 -0.3303 -0.1007
 6771TIP3    H141728   3.877   1.081  14.237  1.8377 -0.1175  1.2619
 6771TIP3    H241729   4.021   1.053  14.201  0.9564 -0.2766 -2.5789
 6772TIP3   OH241730   2.304   5.999  12.228 -0.0423  0.4332  0.7092
 6772TIP3    H141731   2.273   6.017  12.317 -0.4848  0.9012  0.4662
 6772TIP3    H241732   2.351   6.078  12.202  0.2063  0.2432  0.5725
 6773TIP3   OH241733   6.044   4.585   5.870 -0.8010 -0.3938  0.4888
 6773TIP3    H141734   5.974   4.618   5.927 -1.3981  0.7649 -0.8608
 6773TIP3    H241735   6.020   4.494   5.853 -2.4976  0.2067 -0.6303
 6774TIP3   OH241736   0.924   1.096  10.367  0.2305  0.5880  0.4149
 6774TIP3    H141737   0.923   1.170  10.306  0.6099  0.3165  0.0724
 6774TIP3    H241738   0.988   1.122  10.434  1.0734  0.1814 -0.2108
 6775TIP3   OH241739   3.212   5.153   1.571 -0.2027  0.3228  0.0356
 6775TIP3    H141740   3.205   5.074   1.624  0.6702  0.4425  0.3432
 6775TIP3    H241741   3.192   5.224   1.631  2.1341  0.5770  0.6314
 6776TIP3   OH241742   5.508   2.577   6.455  0.2651 -0.2636 -0.5771
 6776TIP3    H141743   5.585   2.552   6.403  1.2610  1.5671 -0.1002
 6776TIP3    H241744   5.470   2.651   6.407  1.7600  2.0973  1.6305
 6777TIP3   OH241745   4.716   2.424   1.027  0.3408  0.0969 -0.1311
 6777TIP3    H141746   4.704   2.330   1.044  1.1462 -0.1501 -0.9078
 6777TIP3    H241747   4.642   2.465   1.073  0.3997 -0.8417  0.8591
 6778TIP3   OH241748   3.287   2.738  11.840  0.1076 -0.6840  0.0123
 6778TIP3    H141749   3.278   2.687  11.920  4.1278 -1.0408  0.4426
 6778TIP3    H241750   3.297   2.829  11.870  1.5053 -0.8041 -0.0191
 6779TIP3   OH241751   2.366   2.079  14.098  0.1829  0.0567 -0.1053
 6779TIP3    H141752   2.458   2.105  14.100 -0.0088  0.7161  1.4781
 6779TIP3    H241753   2.340   2.094  14.007  2.0156 -1.6569 -1.0041
 6780TIP3   OH241754   0.138   4.955   3.077  0.1378  0.7904  0.3167
 6780TIP3    H141755   0.063   4.895   3.082  0.4973  0.4365  2.0314
 6780TIP3    H241756   0.215   4.898   3.079  0.4698  1.1806 -0.8638
 6781TIP3   OH241757   4.821   2.923  12.654 -0.1258 -0.2425  0.3655
 6781TIP3    H141758   4.844   2.988  12.720  2.9660 -1.6574  0.8347
 6781TIP3    H241759   4.845   2.839  12.694  2.2244 -1.1360 -2.5819
 6782TIP3   OH241760   4.203   3.066   5.351 -0.2445 -0.4453 -0.0012
 6782TIP3    H141761   4.176   2.975   5.342 -1.4575 -0.0008 -1.3109
 6782TIP3    H241762   4.161   3.111   5.277  1.6141  0.8866 -0.3235
 6783TIP3   OH241763   4.516   1.697  12.780  0.1594  0.1556  0.8526
 6783TIP3    H141764   4.506   1.611  12.741  0.3641  0.1484  0.8128
 6783TIP3    H241765   4.434   1.712  12.827 -0.3381  0.4189 -0.0691
 6784TIP3   OH241766   2.802   4.805   0.245 -0.3526  0.6943 -0.6613
 6784TIP3    H141767   2.840   4.721   0.269 -0.5991  0.7271 -0.1150
 6784TIP3    H241768   2.722   4.783   0.198 -1.8035  0.5537  1.6881
 6785TIP3   OH241769   3.177   1.698  16.983 -0.2452  0.4559  0.4047
 6785TIP3    H141770   3.199   1.741  16.901 -1.4580 -1.9780 -1.3267
 6785TIP3    H241771   3.108   1.752  17.021 -0.0267  1.3435 -0.4249
 6786TIP3   OH241772   2.971   4.575   2.312 -0.1216 -0.1902 -0.0019
 6786TIP3    H141773   2.888   4.591   2.356 -0.5988 -2.6627  0.1346
 6786TIP3    H241774   3.018   4.517   2.372  0.3654 -1.3939 -1.5079
 6787TIP3   OH241775   4.244   3.357   1.712 -0.5370 -0.0640  0.3072
 6787TIP3    H141776   4.307   3.417   1.753 -1.9147  1.4499  0.3340
 6787TIP3    H241777   4.216   3.299   1.782  1.0947 -1.0156  0.2005
 6788TIP3   OH241778   4.056   5.470  10.744 -0.5046  0.1667 -0.3249
 6788TIP3    H141779   3.993   5.539  10.725  0.2588  0.4464 -1.9747
 6788TIP3    H241780   4.114   5.468  10.668  0.2780 -1.4223  0.2604
 6789TIP3   OH241781   5.146   0.519  12.661 -0.0804 -0.2579 -0.4394
 6789TIP3    H141782   5.140   0.475  12.746 -0.6928  1.1385  0.2728
 6789TIP3    H241783   5.070   0.487  12.613  0.0312 -0.7306 -0.3082
 6790TIP3   OH241784   6.060   0.190  16.193 -0.6452 -0.4988 -0.1124
 6790TIP3    H141785   6.009   0.150  16.263 -0.0525 -1.3035 -0.1235
 6790TIP3    H241786   6.142   0.142  16.193 -0.7488 -0.7275 -1.5576
 6791TIP3   OH241787   2.834   0.441   0.095 -0.5759 -0.1276  0.2188
 6791TIP3    H141788   2.890   0.416   0.022  0.8557  0.4768  1.0679
 6791TIP3    H241789   2.780   0.512   0.060 -0.1558 -0.0843 -0.3542
 6792TIP3   OH241790   3.007   2.772   2.403  0.0568 -0.5422 -0.2493
 6792TIP3    H141791   3.074   2.738   2.462 -2.0938 -1.5188  1.8075
 6792TIP3    H241792   2.930   2.718   2.422 -1.2078  0.2403 -2.8061
 6793TIP3   OH241793   1.851   1.190  17.299 -0.7946  0.1073 -0.0114
 6793TIP3    H141794   1.913   1.194  17.226 -0.1766  0.9995  0.5357
 6793TIP3    H241795   1.896   1.138  17.366 -0.3908  1.2250  0.6012
 6794TIP3   OH241796   5.885   2.794   4.709 -0.3146  0.0028  0.3430
 6794TIP3    H141797   5.835   2.725   4.753 -0.2599  1.1017  2.2537
 6794TIP3    H241798   5.836   2.874   4.726  1.8638  1.0794  2.0712
 6795TIP3   OH241799   5.554   0.917  11.760  0.1593 -0.0300  0.3612
 6795TIP3    H141800   5.599   0.833  11.751  0.2835 -0.0684  1.2154
 6795TIP3    H241801   5.553   0.953  11.672 -0.0174 -0.9908 -0.0439
 6796TIP3   OH241802   5.562   4.357  13.080 -0.2135 -0.2972  0.3611
 6796TIP3    H141803   5.467   4.361  13.094  0.0052  2.2075  1.6875
 6796TIP3    H241804   5.597   4.331  13.165  0.3185 -0.6544  0.0316
 6797TIP3   OH241805   0.154   5.488   2.311 -0.1236  0.1519 -0.4158
 6797TIP3    H141806   0.185   5.575   2.338  0.2783  0.3439 -1.4612
 6797TIP3    H241807   0.143   5.440   2.394 -0.8659  1.3551  0.2164
 6798TIP3   OH241808   1.639   4.507  16.771  0.1892  0.4027  0.5536
 6798TIP3    H141809   1.721   4.463  16.796 -0.0617 -0.9021 -0.8297
 6798TIP3    H241810   1.637   4.585  16.826  1.3956 -0.5430  2.0314
 6799TIP3   OH241811   6.679   0.921   2.694 -0.7104  1.3303 -0.2230
 6799TIP3    H141812   6.615   0.909   2.765  1.0174  1.0023  1.3727
 6799TIP3    H241813   6.686   0.834   2.654  2.6120 -0.2716  3.1995
 6800TIP3   OH241814   3.512   3.946   4.388 -0.1579 -0.3215 -0.4001
 6800TIP3    H141815   3.478   4.019   4.440  1.2926 -0.6428  1.0563
 6800TIP3    H241816   3.526   3.983   4.301  1.5298  1.4615  0.5592
 6801TIP3   OH241817   2.678   6.342  16.538  0.7531  0.6326  0.3142
 6801TIP3    H141818   2.683   6.425  16.586  0.5982  2.0107 -1.9033
 6801TIP3    H241819   2.769   6.315  16.528  0.8025  0.4970  1.0646
 6802TIP3   OH241820   5.324   3.875  16.752  0.0425  0.0386 -0.4348
 6802TIP3    H141821   5.272   3.899  16.829  1.2681  1.6853 -0.0578
 6802TIP3    H241822   5.383   3.950  16.738  0.8408 -0.8331 -2.1192
 6803TIP3   OH241823   4.038   3.348   3.403  0.5557  0.6177  0.4814
 6803TIP3    H141824   3.956   3.315   3.366 -0.0717 -0.5982  2.7663
 6803TIP3    H241825   4.015   3.436   3.434  0.2530  0.4997  0.6042
 6804TIP3   OH241826   6.226   2.857  11.795 -0.0974  0.6313 -0.1989
 6804TIP3    H141827   6.287   2.876  11.724  1.8008  2.0112  1.6632
 6804TIP3    H241828   6.177   2.781  11.765  3.3619 -1.3725 -1.4048
 6805TIP3   OH241829   1.635   6.596  11.579  0.0080  0.2959  0.7037
 6805TIP3    H141830   1.637   6.689  11.601  2.3242 -0.2003  3.1001
 6805TIP3    H241831   1.726   6.567  11.589 -0.6048 -2.2032 -0.1637
 6806TIP3   OH241832   1.619   0.719  12.508  0.1497 -0.0869  0.3110
 6806TIP3    H141833   1.591   0.728  12.417  0.0780  1.4281  0.4561
 6806TIP3    H241834   1.706   0.682  12.503 -0.6217 -1.9212 -0.2776
 6807TIP3   OH241835   1.462   5.542  12.728  0.0711 -0.4890 -0.0738
 6807TIP3    H141836   1.547   5.498  12.719  1.0554  1.1551  0.5381
 6807TIP3    H241837   1.414   5.488  12.791  1.2039 -0.7376  0.6189
 6808TIP3   OH241838   5.244   4.076   5.363  0.5372  0.3428 -1.0477
 6808TIP3    H141839   5.175   4.030   5.410  0.8586  1.5828  0.7756
 6808TIP3    H241840   5.204   4.159   5.336  1.1224  0.8451 -0.4342
 6809TIP3   OH241841   1.061   6.768  16.888 -0.6811  0.4643  0.1899
 6809TIP3    H141842   1.115   6.730  16.820 -0.4894  1.5811 -0.3071
 6809TIP3    H241843   0.972   6.766  16.852 -1.1064 -1.7907  1.1863
 6810TIP3   OH241844   5.927   5.182  16.201  0.0345 -0.0377 -0.1872
 6810TIP3    H141845   5.984   5.249  16.240  0.1073  1.4730 -2.6635
 6810TIP3    H241846   5.988   5.114  16.171  0.2470  0.1773 -0.2452
 6811TIP3   OH241847   3.317   6.731  13.315  0.5046 -0.0475  0.4847
 6811TIP3    H141848   3.356   6.713  13.230  0.2769  0.8013  0.1893
 6811TIP3    H241849   3.293   6.645  13.349 -0.5063 -0.3261 -0.8421
 6812TIP3   OH241850   6.079   2.018  13.354  0.3379  0.3387  0.7056
 6812TIP3    H141851   6.010   1.956  13.329 -1.1022  1.3075  2.0605
 6812TIP3    H241852   6.161   1.971  13.337 -0.5920 -0.5848 -1.6961
 6813TIP3   OH241853   5.695   3.476   5.647 -0.0143  0.2745 -0.4054
 6813TIP3    H141854   5.653   3.557   5.619 -0.6765 -0.1282 -0.6035
 6813TIP3    H241855   5.748   3.450   5.572  1.2775  1.2274  0.1513
 6814TIP3   OH241856   6.142   3.204  15.760  0.0768  0.2730 -0.1202
 6814TIP3    H141857   6.223   3.156  15.779  0.9342  1.2685 -1.1085
 6814TIP3    H241858   6.172   3.289  15.729 -1.3950  1.1076  0.6507
 6815TIP3   OH241859   1.312   1.869  12.004  0.2794 -0.3726  0.6164
 6815TIP3    H141860   1.336   1.841  12.093  0.8916  1.3836  1.0563
 6815TIP3    H241861   1.362   1.811  11.946  0.4755 -1.0370  1.4299
 6816TIP3   OH241862   5.123   4.337   5.347  0.4054  0.2809  0.0938
 6816TIP3    H141863   5.052   4.382   5.301  0.9380  0.3888 -0.6383
 6816TIP3    H241864   5.094   4.334   5.438 -0.9111 -0.4009 -0.3202
 6817TIP3   OH241865   3.931   4.974   2.827 -0.1343 -0.2380 -0.0861
 6817TIP3    H141866   3.937   4.963   2.922 -0.8057 -0.8032 -0.1022
 6817TIP3    H241867   4.022   4.979   2.798  0.0785 -0.1487  0.5773
 6818TIP3   OH241868   5.995   3.165  16.001 -0.0030  0.4222 -0.4042
 6818TIP3    H141869   6.033   3.181  15.914 -0.7976 -0.1428 -0.8618
 6818TIP3    H241870   6.064   3.119  16.049 -0.2074 -0.9173 -1.3417
 6819TIP3   OH241871   1.888   1.756   1.366  0.0896  0.2529  0.8348
 6819TIP3    H141872   1.824   1.767   1.437  0.3365 -0.5128  1.1853
 6819TIP3    H241873   1.877   1.665   1.339  1.0418  0.1068  0.9078
 6820TIP3   OH241874   4.275   6.309   4.843  0.1195  0.0668  0.5405
 6820TIP3    H141875   4.216   6.243   4.880 -1.4181  0.0262 -1.7445
 6820TIP3    H241876   4.225   6.391   4.849 -1.1650 -0.2677 -3.1102
 6821TIP3   OH241877   5.013   1.516  13.862  0.2616  0.2337 -0.1848
 6821TIP3    H141878   4.996   1.538  13.771  0.5293 -1.3063 -0.6278
 6821TIP3    H241879   4.953   1.571  13.912 -0.9785 -0.0057 -1.3626
 6822TIP3   OH241880   3.477   4.011  16.393  0.9582 -0.7373  0.0484
 6822TIP3    H141881   3.510   4.006  16.304  1.3920  0.1340  0.1458
 6822TIP3    H241882   3.482   4.104  16.415 -0.4609 -0.7353  0.4907
 6823TIP3   OH241883   1.170   5.007  15.334 -0.0770  0.0839  0.5304
 6823TIP3    H141884   1.076   5.023  15.329 -0.0379  0.4284  0.8318
 6823TIP3    H241885   1.191   4.958  15.255 -0.8770 -1.9043  1.4928
 6824TIP3   OH241886   1.528   6.481  11.204  1.1437  0.2640 -1.3453
 6824TIP3    H141887   1.514   6.417  11.275  0.1062  0.4195 -1.3914
 6824TIP3    H241888   1.439   6.505  11.177  1.5145  1.7528 -1.3019
 6825TIP3   OH241889   3.939   5.387   2.544  0.4718 -0.0374  0.6655
 6825TIP3    H141890   3.866   5.357   2.598  1.0769 -3.0898 -0.0506
 6825TIP3    H241891   4.016   5.347   2.584  1.3351  0.3106 -0.5939
 6826TIP3   OH241892   6.352   0.341   3.223  0.4664  0.1041 -0.1369
 6826TIP3    H141893   6.300   0.274   3.266 -2.3132 -0.0343 -3.3029
 6826TIP3    H241894   6.395   0.295   3.151  2.4832  0.8751  0.5118
 6827TIP3   OH241895   5.208   0.554  14.950  0.5585  0.6463 -0.0739
 6827TIP3    H141896   5.237   0.645  14.950  0.5675  0.6796 -1.7207
 6827TIP3    H241897   5.116   0.558  14.924 -0.2735  0.3428  2.5416
 6828TIP3   OH241898   1.680   2.281   1.807 -0.2493 -0.0859  0.2581
 6828TIP3    H141899   1.751   2.344   1.807  0.2476 -0.6333 -0.1042
 6828TIP3    H241900   1.633   2.296   1.889  0.2722  0.2881  0.4863
 6829TIP3   OH241901   4.484   2.191   5.438 -0.1359 -0.0941  0.1690
 6829TIP3    H141902   4.530   2.152   5.364 -0.4506 -0.5814  0.2264
 6829TIP3    H241903   4.392   2.195   5.409 -0.0139  1.2063 -0.0904
 6830TIP3   OH241904   0.676   6.424  16.398  0.0700 -0.7071  0.4746
 6830TIP3    H141905   0.755   6.402  16.348 -1.3207  0.2193 -2.3801
 6830TIP3    H241906   0.604   6.385  16.347 -1.4977  0.6398  1.5560
 6831TIP3   OH241907   1.084   4.181   0.780  0.0667  0.2851 -0.2436
 6831TIP3    H141908   1.075   4.102   0.727 -1.2572  0.4421 -0.2794
 6831TIP3    H241909   1.108   4.149   0.867 -0.6286 -0.1637 -0.2157
 6832TIP3   OH241910   5.063   4.021  11.107  0.2811  0.3424 -0.1226
 6832TIP3    H141911   5.122   4.086  11.069  1.4691  1.0343  2.6360
 6832TIP3    H241912   5.117   3.943  11.119 -0.4665 -0.3578 -1.0896
 6833TIP3   OH241913   2.024   6.602  16.100 -0.1884  0.3442  0.4531
 6833TIP3    H141914   2.085   6.533  16.073 -0.3840 -0.2579  1.4676
 6833TIP3    H241915   2.079   6.663  16.150  0.4691  2.2108 -2.3667
 6834TIP3   OH241916   3.632   3.115   0.830 -0.1037 -0.1049 -0.4460
 6834TIP3    H141917   3.554   3.126   0.776  0.3664 -3.0189 -1.9161
 6834TIP3    H241918   3.702   3.098   0.767  1.3163  0.4106  0.9395
 6835TIP3   OH241919   4.522   5.027  10.754 -0.2165  0.0991 -0.7258
 6835TIP3    H141920   4.483   5.017  10.667 -2.0561 -1.9662  0.2405
 6835TIP3    H241921   4.533   4.938  10.786  0.4071  0.8058  1.1738
 6836TIP3   OH241922   2.552   5.075   4.616 -0.3337  0.3298 -0.1667
 6836TIP3    H141923   2.551   5.137   4.543  1.2320  0.5207 -0.0743
 6836TIP3    H241924   2.485   5.107   4.676 -1.2237  0.5200 -1.2286
 6837TIP3   OH241925   5.612   5.496   5.840  0.6770  0.6198 -0.5606
 6837TIP3    H141926   5.579   5.466   5.924 -1.3059  1.0073 -1.1405
 6837TIP3    H241927   5.669   5.424   5.809 -1.5962 -1.2995 -0.5857
 6838TIP3   OH241928   1.964   5.779  12.168 -0.0722  0.2979  0.4165
 6838TIP3    H141929   2.050   5.799  12.204  0.5765 -0.0095 -0.9178
 6838TIP3    H241930   1.940   5.856  12.116  0.6341 -0.6533 -1.4169
 6839TIP3   OH241931   2.804   2.190   0.800  0.1613 -0.0211 -0.5132
 6839TIP3    H141932   2.808   2.095   0.792  0.4037 -0.1312  0.7138
 6839TIP3    H241933   2.725   2.207   0.851 -1.1521  0.5984 -2.6315
 6840TIP3   OH241934   0.644   2.288  16.137 -0.6999 -0.3627  0.5619
 6840TIP3    H141935   0.616   2.196  16.132 -0.0940 -0.5170 -0.2126
 6840TIP3    H241936   0.713   2.295  16.071 -1.7171  1.0150 -0.3902
 6841TIP3   OH241937   1.827   1.644  11.850  0.1383 -0.5742  0.4112
 6841TIP3    H141938   1.780   1.565  11.876 -1.2163 -0.1776 -0.7036
 6841TIP3    H241939   1.856   1.627  11.761  0.3256 -0.0100  0.3571
 6842TIP3   OH241940   6.415   6.260  14.632 -0.5164 -0.2538 -0.1785
 6842TIP3    H141941   6.420   6.354  14.616  0.6831 -0.4210 -0.8174
 6842TIP3    H241942   6.468   6.220  14.563 -1.5269 -1.4517 -0.3048
 6843TIP3   OH241943   1.247   0.029  16.675 -0.0240 -0.1834  0.1471
 6843TIP3    H141944   1.229   0.122  16.657 -0.3122 -0.4934 -1.3019
 6843TIP3    H241945   1.182  -0.018  16.623 -0.4883 -1.2001  1.5964
 6844TIP3   OH241946   1.048   5.398  16.152 -0.1247 -0.0489  0.6784
 6844TIP3    H141947   1.076   5.411  16.242 -3.0753  1.8580  1.4930
 6844TIP3    H241948   1.035   5.487  16.118 -0.9655 -0.7459 -0.9383
 6845TIP3   OH241949   2.575   0.009  17.262  0.0714  0.5572 -0.2968
 6845TIP3    H141950   2.620   0.038  17.182  2.0298 -1.2606  0.0556
 6845TIP3    H241951   2.542  -0.078  17.240 -2.2672  1.3342 -0.1136
 6846TIP3   OH241952   3.129   1.422  10.856 -0.1382 -0.3738  0.4368
 6846TIP3    H141953   3.070   1.473  10.912 -3.6857 -3.1980 -0.3772
 6846TIP3    H241954   3.087   1.422  10.770  1.2977 -2.1328 -0.3261
 6847TIP3   OH241955   1.867   2.052   4.660 -0.1444 -0.4281 -1.1460
 6847TIP3    H141956   1.955   2.028   4.630 -0.4197 -0.9880 -1.5330
 6847TIP3    H241957   1.825   2.090   4.583  0.7479  2.7540 -0.1866
 6848TIP3   OH241958   3.667   2.914   6.427  0.5421  0.2952  0.9320
 6848TIP3    H141959   3.729   2.982   6.452  0.7258  0.4366  0.1185
 6848TIP3    H241960   3.720   2.836   6.413  0.3390 -0.0038  1.7958
 6849TIP3   OH241961   3.214   4.593  11.006  0.0944  0.2727 -0.2768
 6849TIP3    H141962   3.189   4.605  10.914  0.5288 -0.5945 -0.5099
 6849TIP3    H241963   3.270   4.668  11.025 -0.2747  0.6418 -0.6126
 6850TIP3   OH241964   6.190   0.317  14.694  0.5631 -0.3180  0.5988
 6850TIP3    H141965   6.227   0.361  14.770  1.9633  2.4173 -1.4903
 6850TIP3    H241966   6.136   0.384  14.651 -3.0726 -2.7543  0.8757
 6851TIP3   OH241967   0.907   5.329  16.666 -0.2964  0.0164 -0.2281
 6851TIP3    H141968   0.922   5.415  16.705  0.9376  0.4840 -1.6444
 6851TIP3    H241969   0.980   5.317  16.604  0.0173 -2.3867  0.4899
 6852TIP3   OH241970   1.037   6.204   5.169 -0.0141 -0.0417 -0.2000
 6852TIP3    H141971   0.966   6.268   5.163  1.1444  1.1633 -1.8357
 6852TIP3    H241972   1.018   6.156   5.250 -2.6340  0.2703 -0.5310
 6853TIP3   OH241973   0.708   1.874  16.571  0.0038 -0.4788 -0.0117
 6853TIP3    H141974   0.662   1.904  16.492  1.6775  0.6845 -0.5822
 6853TIP3    H241975   0.751   1.793  16.544 -1.1448 -1.2491  0.3586
 6854TIP3   OH241976   2.300   2.394   5.983  0.2472  0.0210 -0.2243
 6854TIP3    H141977   2.308   2.361   5.894  0.3641 -3.4536  0.9073
 6854TIP3    H241978   2.206   2.394   6.000  0.3198 -1.8413  0.3973
 6855TIP3   OH241979   0.027   1.389   5.378  0.3697 -0.5539  0.4019
 6855TIP3    H141980   0.083   1.373   5.453 -2.0181  0.0945  2.4565
 6855TIP3    H241981  -0.037   1.318   5.380 -0.9219  0.5709  0.2100
 6856TIP3   OH241982   5.677   3.558  12.291  0.1337  0.1705  0.1854
 6856TIP3    H141983   5.664   3.558  12.197 -2.2050  0.3665  0.4565
 6856TIP3    H241984   5.700   3.468  12.313 -0.3535 -0.1086 -0.4397
 6857TIP3   OH241985   0.439   2.409   3.440 -0.0191 -0.3637  0.7327
 6857TIP3    H141986   0.495   2.457   3.380  1.1766 -1.0680  1.2377
 6857TIP3    H241987   0.396   2.342   3.386  0.1655 -0.2665  0.4653
 6858TIP3   OH241988   3.313   2.306   0.018 -0.2404 -0.2117 -0.2280
 6858TIP3    H141989   3.292   2.323   0.110 -0.4399 -0.3053 -0.2554
 6858TIP3    H241990   3.254   2.363  -0.031  1.4708  1.6367 -0.2799
 6859TIP3   OH241991   1.891   4.038   4.551 -0.2354 -0.1905 -0.3716
 6859TIP3    H141992   1.912   3.988   4.473 -0.1025  3.2855 -2.7873
 6859TIP3    H241993   1.796   4.044   4.553 -0.1994  1.7408 -1.8036
 6860TIP3   OH241994   2.424   4.240   5.172 -0.4204  0.2149 -0.4806
 6860TIP3    H141995   2.333   4.214   5.186 -0.2354 -0.7696 -1.0410
 6860TIP3    H241996   2.456   4.181   5.105  0.2738  1.3725 -1.2074
 6861TIP3   OH241997   5.231   0.374   5.452 -0.5653  0.0803 -0.1043
 6861TIP3    H141998   5.282   0.295   5.472  0.6514  0.7646 -0.3797
 6861TIP3    H241999   5.146   0.359   5.494  0.0373 -0.8724  0.8450
 6862TIP3   OH242000   0.008   3.626  15.430 -0.6361 -0.4272  0.5323
 6862TIP3    H142001   0.018   3.541  15.387  0.2105 -0.0931  0.0565
 6862TIP3    H242002   0.046   3.613  15.517  1.2406 -0.0351 -0.1872
 6863TIP3   OH242003   4.505   5.450  14.540 -0.1481  0.3608 -0.4755
 6863TIP3    H142004   4.585   5.418  14.581 -1.0853 -0.0186  1.1565
 6863TIP3    H242005   4.500   5.543  14.565 -0.8093  0.0866  0.4787
 6864TIP3   OH242006   2.606   1.523   1.182 -0.1930 -0.0621 -0.1908
 6864TIP3    H142007   2.686   1.531   1.234  0.2387  1.4181 -1.0096
 6864TIP3    H242008   2.538   1.501   1.245  0.1740  2.3046  1.1802
 6865TIP3   OH242009   3.283   2.495   4.656 -0.4998  0.0383 -0.0401
 6865TIP3    H142010   3.350   2.496   4.724 -0.4855  1.3440 -0.0619
 6865TIP3    H242011   3.226   2.422   4.680  0.9628 -1.1758 -0.0816
 6866TIP3   OH242012   4.417   1.556  11.484 -0.3542  0.2323  0.4168
 6866TIP3    H142013   4.453   1.547  11.396 -0.3011 -1.6793  0.5904
 6866TIP3    H242014   4.493   1.574  11.539 -0.2506  0.4134  0.2189
 6867TIP3   OH242015   5.145   4.698  15.290  0.2778 -0.5135 -0.3541
 6867TIP3    H142016   5.138   4.607  15.261 -1.1551 -0.8468  0.9024
 6867TIP3    H242017   5.213   4.696  15.358  0.7244 -0.5034 -0.7944
 6868TIP3   OH242018   0.930   6.666  17.124 -0.2347 -0.2029  0.0019
 6868TIP3    H142019   0.862   6.608  17.092  0.4267 -0.4316 -1.0606
 6868TIP3    H242020   0.973   6.698  17.045  0.7456  0.1114  0.6399
 6869TIP3   OH242021   3.426   0.366  17.206  0.3109 -0.2849 -0.0418
 6869TIP3    H142022   3.429   0.459  17.183 -0.9584 -0.0431  0.7077
 6869TIP3    H242023   3.370   0.362  17.283 -0.7503 -1.8148 -0.8356
 6870TIP3   OH242024   5.234   5.159  15.511 -0.1057 -0.0606  0.2748
 6870TIP3    H142025   5.297   5.136  15.443 -1.9141  0.1436 -1.5400
 6870TIP3    H242026   5.248   5.093  15.579  0.4584 -1.4615 -1.1467
 6871TIP3   OH242027   0.515   2.302  11.959 -0.7269 -0.2557  0.1721
 6871TIP3    H142028   0.428   2.264  11.954 -0.3429 -1.4398  1.5017
 6871TIP3    H242029   0.539   2.293  12.052  0.7429  0.1544 -0.1410
 6872TIP3   OH242030   4.760   2.541  11.347 -0.6018 -0.3155 -0.7007
 6872TIP3    H142031   4.789   2.580  11.264 -1.2307 -1.4497 -1.4862
 6872TIP3    H242032   4.824   2.572  11.411  1.3474 -1.3097 -2.0413
 6873TIP3   OH242033   1.120   0.043   3.986 -0.0354 -0.3346  0.2138
 6873TIP3    H142034   1.202   0.086   4.011 -0.5213  1.6418 -1.3618
 6873TIP3    H242035   1.064   0.051   4.064  0.9608 -0.9957  1.0220
 6874TIP3   OH242036   3.816   1.082  16.543 -0.7076  0.5415 -0.5972
 6874TIP3    H142037   3.881   1.042  16.486 -1.4257 -0.5737 -0.6511
 6874TIP3    H242038   3.867   1.135  16.604  0.4310 -1.6892  0.4964
 6875TIP3   OH242039   4.643   0.104   1.808 -0.1527 -0.4011  0.2070
 6875TIP3    H142040   4.577   0.035   1.811 -0.7365  0.1167 -0.4400
 6875TIP3    H242041   4.597   0.180   1.772  1.1798 -0.4751 -1.8013
 6876TIP3   OH242042   5.553   6.288   1.851 -0.2577 -0.0110  1.0016
 6876TIP3    H142043   5.487   6.224   1.876  0.3102 -0.8588  0.3658
 6876TIP3    H242044   5.526   6.369   1.895 -3.4953  0.5579 -1.6006
 6877TIP3   OH242045   1.465   3.551  12.146 -0.0304 -0.4105 -0.4616
 6877TIP3    H142046   1.434   3.589  12.063 -0.7332 -0.6436 -0.3131
 6877TIP3    H242047   1.459   3.456  12.132 -1.2144 -0.4551  0.2292
 6878TIP3   OH242048   3.177   2.248   3.490 -0.4466 -0.6792 -0.2672
 6878TIP3    H142049   3.161   2.341   3.506  0.0408 -0.4144 -1.1975
 6878TIP3    H242050   3.129   2.203   3.559 -1.5103  0.2282 -0.3858
 6879TIP3   OH242051   5.734   5.291  13.053  0.1627  1.3409 -0.5122
 6879TIP3    H142052   5.656   5.263  13.004  0.4022  0.1565 -0.2374
 6879TIP3    H242053   5.807   5.271  12.995  0.2944  2.3122 -0.7044
 6880TIP3   OH242054   1.791   0.338  14.449  0.4923 -0.6641 -0.0719
 6880TIP3    H142055   1.806   0.426  14.482  0.3342 -0.6393 -0.0627
 6880TIP3    H242056   1.808   0.344  14.355  0.5071 -0.6298 -0.0674
 6881TIP3   OH242057   0.298   1.084   4.051  0.4213  0.2535 -0.2395
 6881TIP3    H142058   0.370   1.131   4.093  2.8558 -3.1003 -0.2433
 6881TIP3    H242059   0.238   1.063   4.122 -0.1628  2.2020 -0.0727
 6882TIP3   OH242060   6.064   5.945  14.810 -0.1064 -0.0833  0.0315
 6882TIP3    H142061   6.083   5.851  14.809 -0.3320 -0.2133 -3.2273
 6882TIP3    H242062   5.969   5.950  14.816 -0.0588 -0.0315  0.7755
 6883TIP3   OH242063   3.754   0.227   2.572  0.1345 -0.6945  0.6407
 6883TIP3    H142064   3.707   0.143   2.572 -1.8839  0.3590 -0.3199
 6883TIP3    H242065   3.783   0.239   2.481 -0.8430  0.2642  0.4327
 6884TIP3   OH242066   5.456   4.562   3.198 -0.5297  0.3652 -0.3867
 6884TIP3    H142067   5.374   4.610   3.185 -0.9351  0.2630  1.4198
 6884TIP3    H242068   5.523   4.629   3.206 -0.8221  0.5819  0.3894
 6885TIP3   OH242069   5.811   1.627   4.291  0.3837  0.0519  0.6699
 6885TIP3    H142070   5.790   1.545   4.246 -0.0389  0.0660  0.8328
 6885TIP3    H242071   5.807   1.694   4.222  0.7132 -0.0589  0.5398
 6886TIP3   OH242072   3.504   2.369   0.790  0.6199  0.6950 -0.3511
 6886TIP3    H142073   3.534   2.306   0.724  0.4198 -0.0839  0.2851
 6886TIP3    H242074   3.476   2.315   0.863 -1.6050  1.4145 -0.6027
 6887TIP3   OH242075   3.304   0.935   0.685 -0.7451  0.8230 -0.8114
 6887TIP3    H142076   3.257   0.999   0.738  0.5635  1.3303 -0.2154
 6887TIP3    H242077   3.392   0.972   0.675 -0.7025  0.3381 -2.6356
 6888TIP3   OH242078   0.459   0.259  16.548 -0.3027  0.1725 -0.3969
 6888TIP3    H142079   0.432   0.206  16.473 -1.7143 -0.2252  0.3484
 6888TIP3    H242080   0.394   0.330  16.551  0.5292  0.9434 -0.3384
 6889TIP3   OH242081   5.247   2.745   0.831 -0.0281 -0.6281 -0.6137
 6889TIP3    H142082   5.299   2.678   0.877  1.0825  1.0109  0.6156
 6889TIP3    H242083   5.165   2.749   0.880  0.4698 -0.1113  0.1980
 6890TIP3   OH242084   1.183   2.658  15.405 -0.4435 -0.8504  0.2348
 6890TIP3    H142085   1.239   2.582  15.420  0.3803 -0.5585 -1.2337
 6890TIP3    H242086   1.231   2.712  15.342 -2.9835 -1.3164 -2.3030
 6891TIP3   OH242087   1.099   2.493  15.085  0.0959 -0.1332 -0.1207
 6891TIP3    H142088   1.005   2.509  15.097  0.0034 -0.5718 -0.2453
 6891TIP3    H242089   1.117   2.524  14.996  0.0283 -0.2177 -0.1649
 6892TIP3   OH242090   1.216   4.767   3.119 -0.3704 -0.1759 -0.1168
 6892TIP3    H142091   1.279   4.705   3.081 -1.9134 -1.3835 -0.8272
 6892TIP3    H242092   1.143   4.768   3.057 -1.4293  0.5302  1.0879
 6893TIP3   OH242093   6.206   2.952   3.367  0.6625 -0.0850  0.5016
 6893TIP3    H142094   6.114   2.978   3.362  0.6796 -0.1518 -0.2746
 6893TIP3    H242095   6.254   3.035   3.361  0.7699 -0.2235 -3.4677
 6894TIP3   OH242096   3.924   6.346  14.569  0.2987  0.1337  0.6233
 6894TIP3    H142097   3.953   6.436  14.577  1.4262 -0.1711  0.1905
 6894TIP3    H242098   3.945   6.306  14.653  0.2367  0.1581  0.6505
 6895TIP3   OH242099   2.523   1.038  13.988 -0.0050  0.3748  0.2956
 6895TIP3    H142100   2.536   1.003  13.900 -0.6222  0.1962  0.2684
 6895TIP3    H242101   2.571   1.120  13.989 -0.2154  0.5118 -0.2970
 6896TIP3   OH242102   0.163   4.711   1.064 -0.0647  0.5129  0.0500
 6896TIP3    H142103   0.146   4.805   1.065 -0.8536  0.3899 -0.6570
 6896TIP3    H242104   0.190   4.692   0.974 -0.5490 -0.0325  0.0118
 6897TIP3   OH242105   1.082   1.867   4.162 -0.4322 -0.0959 -0.3735
 6897TIP3    H142106   1.099   1.949   4.116 -0.2395 -0.0027 -0.1407
 6897TIP3    H242107   1.094   1.889   4.255  0.7864 -0.6638 -0.3753
 6898TIP3   OH242108   6.515   4.677  12.950  0.3219 -0.1484 -0.8594
 6898TIP3    H142109   6.490   4.585  12.958 -0.2007  0.0596 -0.0220
 6898TIP3    H242110   6.610   4.675  12.938  0.4105 -0.7636 -0.1114
 6899TIP3   OH242111   6.137   6.523  12.353 -0.0702  0.6087  0.1531
 6899TIP3    H142112   6.223   6.549  12.318 -0.6570  2.0963 -0.2592
 6899TIP3    H242113   6.097   6.472  12.282  0.5213 -0.2645  0.4202
 6900TIP3   OH242114   3.547   0.476  14.537  0.7434  0.8628  0.0940
 6900TIP3    H142115   3.499   0.447  14.614 -0.3082  1.4112 -0.3288
 6900TIP3    H242116   3.620   0.415  14.530 -0.7321 -0.9877 -0.0864
 6901TIP3   OH242117   0.424   4.034   0.779 -0.3197  0.4571 -0.0287
 6901TIP3    H142118   0.519   4.046   0.780 -0.4738  1.8278  0.3652
 6901TIP3    H242119   0.391   4.100   0.840 -1.4696 -0.6150  0.5590
 6902TIP3   OH242120   2.097   6.362   1.230  0.5796 -0.5551 -0.5904
 6902TIP3    H142121   2.118   6.270   1.218 -0.4046 -0.9452  0.4451
 6902TIP3    H242122   2.177   6.409   1.208  1.5605 -1.7545  0.3460
 6903TIP3   OH242123   1.217   3.844  16.850 -0.1821 -0.0499  0.3123
 6903TIP3    H142124   1.135   3.873  16.809  0.3602 -0.1768 -0.9252
 6903TIP3    H242125   1.252   3.779  16.789  1.9455  1.6192 -0.4035
 6904TIP3   OH242126   3.399   0.512  13.585 -0.1471  0.3514  0.0354
 6904TIP3    H142127   3.480   0.462  13.577 -0.0523  0.4687  0.2632
 6904TIP3    H242128   3.423   0.589  13.636 -0.1017  1.0587 -1.0318
 6905TIP3   OH242129   0.051   3.445   3.179  0.6102 -0.2902  0.1086
 6905TIP3    H142130   0.049   3.350   3.167 -0.0831 -0.1550 -0.9167
 6905TIP3    H242131  -0.023   3.478   3.129  2.7253  1.0823 -2.3971
 6906TIP3   OH242132   2.847   3.540  13.142 -0.1000 -0.2185 -0.9434
 6906TIP3    H142133   2.826   3.616  13.087  1.4179  0.5089 -0.5789
 6906TIP3    H242134   2.909   3.489  13.089  0.4077 -0.1584 -0.4119
 6907TIP3   OH242135   2.536   0.767  11.249  0.1136  0.3516  0.4148
 6907TIP3    H142136   2.608   0.712  11.217 -0.9876 -0.1872 -1.2510
 6907TIP3    H242137   2.525   0.834  11.182 -0.0589  1.2750  1.3399
 6908TIP3   OH242138   1.955   5.305   4.161  1.1758 -0.0800 -0.1538
 6908TIP3    H142139   1.998   5.385   4.190 -0.0643  0.4935  0.1398
 6908TIP3    H242140   1.871   5.334   4.125  0.8530 -1.2158 -0.3478
 6909TIP3   OH242141   3.160   4.451   0.297  0.3532  0.1753  0.4837
 6909TIP3    H142142   3.154   4.404   0.381 -0.1342  0.2965  0.5166
 6909TIP3    H242143   3.168   4.381   0.232 -0.1094  0.0515  0.5570
 6910TIP3   OH242144   5.665   5.597   0.665  0.3931 -0.2934  0.2506
 6910TIP3    H142145   5.678   5.604   0.760  0.0106 -0.1444  0.2932
 6910TIP3    H242146   5.670   5.687   0.633  0.5269 -0.3439  0.1267
 6911TIP3   OH242147   5.941   1.449   3.216 -0.4054 -0.6636  0.2669
 6911TIP3    H142148   5.917   1.428   3.306  1.7366  0.7180  1.2503
 6911TIP3    H242149   6.034   1.425   3.209 -0.5610 -0.8674 -1.6138
 6912TIP3   OH242150   4.280   6.063   2.855 -0.7274  0.0041  0.0652
 6912TIP3    H142151   4.340   5.996   2.822 -0.7129 -0.4200  0.9196
 6912TIP3    H242152   4.324   6.146   2.836  1.2030 -0.3239  2.5252
 6913TIP3   OH242153   3.852   6.585  11.591  0.0322  0.0524  0.3871
 6913TIP3    H142154   3.792   6.658  11.607 -0.4620 -0.3352  0.3401
 6913TIP3    H242155   3.875   6.554  11.679  2.6280  2.1304  0.5411
 6914TIP3   OH242156   5.776   4.225  12.974  0.4379 -0.4772 -0.0104
 6914TIP3    H142157   5.716   4.187  12.910 -0.0217  0.6968 -0.3102
 6914TIP3    H242158   5.737   4.309  12.996  2.0222  0.3694 -0.2830
 6915TIP3   OH242159   1.902   3.049   5.694  0.1512 -0.1209 -0.4222
 6915TIP3    H142160   1.954   2.987   5.643 -0.8865  0.3403 -2.1171
 6915TIP3    H242161   1.958   3.126   5.703  1.9797 -1.6480  2.8442
 6916TIP3   OH242162   2.002   0.674  15.180  0.6692  0.2867  0.6985
 6916TIP3    H142163   2.074   0.619  15.149 -0.3944 -0.7834  0.0175
 6916TIP3    H242164   2.040   0.761  15.189  1.7191  0.0505 -0.9816
 6917TIP3   OH242165   2.944   4.295  14.557  0.0912 -0.3080  0.3749
 6917TIP3    H142166   2.926   4.367  14.497  1.3724 -0.2337  0.0541
 6917TIP3    H242167   2.894   4.316  14.635 -1.0016 -0.0167 -0.3811
 6918TIP3   OH242168   0.422   2.723   4.033 -0.4627 -0.0053 -0.0733
 6918TIP3    H142169   0.444   2.659   3.965  0.4675 -0.0085  0.2084
 6918TIP3    H242170   0.446   2.807   3.995  0.0372 -0.0048  0.2290
 6919TIP3   OH242171   4.794   6.066   4.721  0.2478  0.0496  0.4822
 6919TIP3    H142172   4.707   6.094   4.747  0.2040 -0.0290  0.4196
 6919TIP3    H242173   4.849   6.144   4.733  0.1008  0.2009  0.1790
 6920TIP3   OH242174   2.900   4.227   2.592  0.2733 -0.3609 -1.1109
 6920TIP3    H142175   2.837   4.296   2.573 -1.9435 -1.7325  0.7595
 6920TIP3    H242176   2.939   4.252   2.675 -1.0538 -1.6214 -0.0675
 6921TIP3   OH242177   6.428   2.800   3.295  0.0055 -0.5543  0.5060
 6921TIP3    H142178   6.424   2.723   3.352 -1.4223 -0.9898 -0.1410
 6921TIP3    H242179   6.342   2.840   3.302 -0.1993 -0.5847 -1.2722
 6922TIP3   OH242180   6.504   4.692  12.104 -0.1265 -0.0031  0.1175
 6922TIP3    H142181   6.425   4.738  12.078  0.3049  0.8944  0.3539
 6922TIP3    H242182   6.479   4.644  12.183 -0.7058 -0.5750 -0.3998
 6923TIP3   OH242183   3.192   5.327   6.466 -0.2858  0.2579  0.8479
 6923TIP3    H142184   3.227   5.305   6.380 -0.4389 -1.4443  1.1956
 6923TIP3    H242185   3.145   5.410   6.452 -1.0661 -0.4285 -0.9017
 6924TIP3   OH242186   1.522   6.342  11.439  0.7425 -0.4063 -0.2104
 6924TIP3    H142187   1.527   6.399  11.515  1.1447 -0.4078 -0.2350
 6924TIP3    H242188   1.483   6.261  11.471  0.6212 -0.2952 -0.0759
 6925TIP3   OH242189   5.385   1.414  15.742 -0.2798 -0.6064 -0.2323
 6925TIP3    H142190   5.442   1.473  15.792 -1.2945  0.6214 -0.4797
 6925TIP3    H242191   5.444   1.346  15.711  0.8561  0.0294  0.4373
 6926TIP3   OH242192   1.254   4.357  14.529  0.1927  0.5947 -0.1590
 6926TIP3    H142193   1.265   4.370  14.435  0.7362  1.7413  0.0460
 6926TIP3    H242194   1.341   4.375  14.566  0.1870 -0.6096  0.4988
 6927TIP3   OH242195   5.600   6.109   0.497 -0.2962  0.5960  0.5283
 6927TIP3    H142196   5.686   6.127   0.459 -0.1409 -2.7589 -1.0622
 6927TIP3    H242197   5.616   6.103   0.592  1.0736  0.8076  0.3188
 6928TIP3   OH242198   5.386   0.183  12.886 -0.2414  0.0515 -0.2858
 6928TIP3    H142199   5.350   0.174  12.974  0.3429  0.0755 -0.0412
 6928TIP3    H242200   5.449   0.255  12.893 -0.3150  0.1669 -0.7657
 6929TIP3   OH242201   4.248   0.750   0.046  0.0321  0.3512  0.3037
 6929TIP3    H142202   4.247   0.655   0.054  0.7012  0.4180  1.3469
 6929TIP3    H242203   4.282   0.767  -0.042  1.9487 -0.3494  0.8780
 6930TIP3   OH242204   6.275   2.592  13.938  0.2487  0.1941  0.0828
 6930TIP3    H142205   6.198   2.542  13.910 -0.3871  1.4612 -0.5780
 6930TIP3    H242206   6.260   2.608  14.031 -0.3327  0.4706 -0.0499
 6931TIP3   OH242207   6.190   3.410   5.611 -0.5601 -0.3283  0.2968
 6931TIP3    H142208   6.141   3.480   5.569 -1.2362  0.4590  2.2665
 6931TIP3    H242209   6.123   3.355   5.652  0.0721 -0.6030  0.9890
 6932TIP3   OH242210   2.530   1.129  12.900  0.4273  0.1375  0.3415
 6932TIP3    H142211   2.525   1.081  12.817  0.3559  1.8462 -0.6760
 6932TIP3    H242212   2.440   1.157  12.917  0.1555 -1.4315  1.8017
 6933TIP3   OH242213   5.644   4.325   1.456  0.2217  0.7892 -0.2537
 6933TIP3    H142214   5.642   4.233   1.428 -1.5137  1.2838 -2.0210
 6933TIP3    H242215   5.557   4.340   1.494  0.8412  1.4681  0.9452
 6934TIP3   OH242216   6.071   1.635   0.197 -0.3398 -0.1926 -0.0652
 6934TIP3    H142217   6.020   1.669   0.124 -1.1876 -0.1399  0.5408
 6934TIP3    H242218   6.162   1.641   0.167 -0.6689 -0.1893 -1.1169
 6935TIP3   OH242219   2.913   1.652  15.839 -0.5226 -0.3165  0.2398
 6935TIP3    H142220   2.914   1.599  15.919  1.8673  2.0187  1.9272
 6935TIP3    H242221   2.868   1.732  15.863 -0.1352  0.2644 -0.8857
 6936TIP3   OH242222   0.332   5.050  16.213  0.1761 -0.7878 -0.4519
 6936TIP3    H142223   0.380   5.101  16.148 -0.0184  0.9561  0.7107
 6936TIP3    H242224   0.399   4.996  16.256  1.5721  2.5421  2.0633
 6937TIP3   OH242225   5.519   3.043   1.964 -0.1689  0.0694  0.0023
 6937TIP3    H142226   5.538   3.034   1.871  0.6302  0.8043  0.0791
 6937TIP3    H242227   5.446   3.104   1.968 -0.0604  0.2089 -0.1390
 6938TIP3   OH242228   2.315   5.090   4.338  0.2774 -0.4643  0.1606
 6938TIP3    H142229   2.222   5.078   4.322  0.1309  0.8420 -0.1043
 6938TIP3    H242230   2.352   5.107   4.251  0.6601 -0.3647  0.3422
 6939TIP3   OH242231   1.491   2.714  15.281 -0.1641  0.4178 -0.7571
 6939TIP3    H142232   1.539   2.726  15.199  2.7170  0.0467  0.7840
 6939TIP3    H242233   1.475   2.620  15.286  0.7524  0.2847 -0.3140
 6940TIP3   OH242234   3.148   2.505   3.590  0.1643 -0.0366 -0.4124
 6940TIP3    H142235   3.125   2.504   3.683  1.1913  0.2738 -0.1443
 6940TIP3    H242236   3.163   2.597   3.569  5.0589 -0.3537  0.4940
 6941TIP3   OH242237   6.001   4.767   3.645  0.2378  0.2334  0.3293
 6941TIP3    H142238   5.924   4.765   3.589 -0.3143  1.9315  0.9688
 6941TIP3    H242239   5.968   4.793   3.731  1.4474  0.5511  0.7217
 6942TIP3   OH242240   2.427   2.462  11.200 -0.1768  0.0517  0.2443
 6942TIP3    H142241   2.522   2.478  11.199 -0.2621  0.5232 -0.3109
 6942TIP3    H242242   2.417   2.390  11.262  0.4731  0.4710  0.8630
 6943TIP3   OH242243   3.081   6.662  11.962  0.2965 -0.1323  0.4637
 6943TIP3    H142244   3.062   6.688  11.872  0.2492 -0.7236  0.2963
 6943TIP3    H242245   3.150   6.723  11.991  0.5526 -0.1526 -0.0862
 6944TIP3   OH242246   0.852   0.338   2.414 -0.6019  0.7086  0.6785
 6944TIP3    H142247   0.899   0.414   2.381  1.1024 -0.8592 -0.7851
 6944TIP3    H242248   0.762   0.368   2.426 -0.2010  2.6858 -0.7696
 6945TIP3   OH242249   4.740   3.074   0.817 -0.5932  0.0236 -0.2955
 6945TIP3    H142250   4.835   3.083   0.817 -0.5897 -0.0058 -0.4515
 6945TIP3    H242251   4.712   3.110   0.901 -0.3691 -0.7505  0.1239
 6946TIP3   OH242252   4.608   0.647   2.244  0.8363 -0.3747  0.3525
 6946TIP3    H142253   4.641   0.632   2.156  1.8790 -2.3172  1.0042
 6946TIP3    H242254   4.655   0.583   2.298 -0.5943  0.0049  2.1381
 6947TIP3   OH242255   2.425   4.574  12.039 -0.0059  0.6652  0.7987
 6947TIP3    H142256   2.410   4.507  11.972  0.0273  0.5619  0.8943
 6947TIP3    H242257   2.486   4.533  12.101  0.9663  1.1976  0.2259
 6948TIP3   OH242258   6.399   3.028   1.001 -0.4049  0.0849 -0.0436
 6948TIP3    H142259   6.398   3.014   0.907  0.9098 -0.1580 -0.0404
 6948TIP3    H242260   6.394   2.940   1.039  2.4479 -0.1395  0.0347
 6949TIP3   OH242261   4.187   6.418  16.234  0.1635  0.3166 -0.1341
 6949TIP3    H142262   4.256   6.406  16.169  1.1893  2.1932  0.5242
 6949TIP3    H242263   4.151   6.505  16.216 -0.4354  0.3179  0.9547
 6950TIP3   OH242264   6.430   3.102  10.810 -0.5123  0.3516  0.3929
 6950TIP3    H142265   6.381   3.184  10.801  0.4486  0.8559 -0.3867
 6950TIP3    H242266   6.364   3.038  10.838 -1.9673  0.6438 -2.0361
 6951TIP3   OH242267   4.915   6.445  15.374 -0.0289 -0.4451  0.1095
 6951TIP3    H142268   4.899   6.514  15.439  1.2481  1.3570 -1.3787
 6951TIP3    H242269   4.839   6.449  15.316  0.5758  0.5806 -0.6522
 6952TIP3   OH242270   2.440   3.592   3.834 -0.3481 -0.0131 -0.0266
 6952TIP3    H142271   2.510   3.571   3.896  0.4532  0.4289 -0.7656
 6952TIP3    H242272   2.477   3.573   3.748 -0.8278  1.0675 -0.4919
 6953TIP3   OH242273   0.693   4.294   1.706  0.1989  0.7208 -0.8113
 6953TIP3    H142274   0.769   4.279   1.650  0.6282  0.5804 -0.2033
 6953TIP3    H242275   0.642   4.214   1.700  0.0983  0.8149 -1.2218
 6954TIP3   OH242276   4.715   1.012  16.469 -0.2824  0.3349  0.3529
 6954TIP3    H142277   4.771   1.089  16.479 -0.2773  0.5242 -1.0545
 6954TIP3    H242278   4.771   0.946  16.427 -0.3234 -0.4234  1.4219
 6955TIP3   OH242279   4.600   2.106   5.192 -0.3597 -0.0583  0.1864
 6955TIP3    H142280   4.523   2.070   5.148  0.1273 -1.0305  0.0867
 6955TIP3    H242281   4.644   2.157   5.124 -0.5232 -0.1270  0.0266
 6956TIP3   OH242282   5.273   2.580   5.547  0.5248 -0.1582 -0.1838
 6956TIP3    H142283   5.298   2.553   5.459  0.8040  1.0159 -0.4889
 6956TIP3    H242284   5.230   2.503   5.585 -1.0810 -0.2007 -1.9293
 6957TIP3   OH242285   2.654   6.224  15.263  0.0734 -0.1808  0.4004
 6957TIP3    H142286   2.635   6.318  15.267  0.8257 -0.0594  2.4742
 6957TIP3    H242287   2.601   6.186  15.334  0.0523 -1.2738 -0.1763
 6958TIP3   OH242288   5.624   1.851  16.291 -0.6647  0.0086  0.0320
 6958TIP3    H142289   5.700   1.876  16.343 -0.4772 -0.6134  0.0709
 6958TIP3    H242290   5.658   1.839  16.202 -0.8360  0.3341 -0.0766
 6959TIP3   OH242291   3.409   0.366  14.759  0.2717 -0.0592 -0.0198
 6959TIP3    H142292   3.455   0.385  14.841  0.2672 -0.5345  0.0950
 6959TIP3    H242293   3.316   0.376  14.781  0.3134  1.1564 -0.3160
 6960TIP3   OH242294   6.079   4.003  13.827  0.4596 -0.1491  0.1932
 6960TIP3    H142295   6.103   4.006  13.919 -1.4373 -2.0312  0.8295
 6960TIP3    H242296   6.005   4.063  13.819  1.5366  1.1324 -0.4616
 6961TIP3   OH242297   1.618   4.693   4.029  0.0174 -0.2478  0.6796
 6961TIP3    H142298   1.699   4.741   4.013 -0.3633  0.4802  0.9124
 6961TIP3    H242299   1.550   4.760   4.033 -0.3490 -0.6597  2.2466
 6962TIP3   OH242300   1.496   5.756  16.451 -0.0573  0.2925  0.4942
 6962TIP3    H142301   1.506   5.851  16.457  0.0175  0.1912  2.4694
 6962TIP3    H242302   1.549   5.731  16.375  0.0056  1.7993  0.0143
 6963TIP3   OH242303   0.557   6.355   1.349 -0.9422 -0.5136 -0.0955
 6963TIP3    H142304   0.482   6.305   1.318 -2.0328  0.6323  0.5776
 6963TIP3    H242305   0.612   6.367   1.272 -1.6326 -1.0776 -0.6803
 6964TIP3   OH242306   5.154   1.936  11.828 -0.1147 -0.0953 -0.2423
 6964TIP3    H142307   5.127   2.011  11.880 -0.7202  0.6944 -1.6234
 6964TIP3    H242308   5.193   1.974  11.749 -0.5070 -1.2270 -1.0106
 6965TIP3   OH242309   3.338   1.797  13.908  0.1009 -0.1489  0.3491
 6965TIP3    H142310   3.323   1.887  13.938 -1.6776 -0.1890 -0.2721
 6965TIP3    H242311   3.329   1.801  13.813 -1.0204 -1.1208  0.3819
 6966TIP3   OH242312   4.523   3.326  15.696 -0.2409  0.2483 -0.0092
 6966TIP3    H142313   4.522   3.379  15.776 -3.2910  0.1253  0.1713
 6966TIP3    H242314   4.532   3.390  15.625  2.6857  0.3400  0.3486
 6967TIP3   OH242315   2.778   2.344  14.413 -0.2464 -0.6033 -0.3068
 6967TIP3    H142316   2.829   2.384  14.342 -1.2941  1.3153 -0.0261
 6967TIP3    H242317   2.813   2.382  14.493 -1.3546 -0.1128 -0.0398
 6968TIP3   OH242318   4.276   2.043   4.000  0.0161  0.2583 -0.4510
 6968TIP3    H142319   4.246   1.952   3.996  0.9177 -0.0224 -3.3676
 6968TIP3    H242320   4.225   2.087   3.931  1.1061  1.4483 -0.5237
 6969TIP3   OH242321   5.344   4.562  16.051  0.7162  0.3593 -0.0908
 6969TIP3    H142322   5.336   4.480  16.100  3.0581  0.6464  0.9251
 6969TIP3    H242323   5.320   4.539  15.961 -0.6593 -0.9230  0.5618
 6970TIP3   OH242324   4.779   3.470   4.788 -0.4162 -0.2321 -0.0242
 6970TIP3    H142325   4.690   3.505   4.783 -0.7193 -1.1487 -3.0906
 6970TIP3    H242326   4.828   3.519   4.722  0.6993 -1.4477 -0.1396
 6971TIP3   OH242327   1.163   0.009   1.313 -0.4833  0.0690  0.0373
 6971TIP3    H142328   1.174  -0.083   1.290 -0.4205  0.2815 -0.8049
 6971TIP3    H242329   1.203   0.057   1.241  2.9238  0.7656  2.1750
 6972TIP3   OH242330   3.776   1.738  11.344 -0.7073  0.3370 -0.0826
 6972TIP3    H142331   3.857   1.687  11.336  1.0675  3.2474 -2.9449
 6972TIP3    H242332   3.715   1.696  11.283  0.4509  1.0697 -1.7945
 6973TIP3   OH242333   6.375   0.411  11.625  0.2188 -0.3494  0.2633
 6973TIP3    H142334   6.341   0.437  11.711  0.4376 -0.1270  0.2810
 6973TIP3    H242335   6.437   0.341  11.644 -0.1767 -0.7131  0.2362
 6974TIP3   OH242336   0.617   0.302  17.343  0.1092 -0.4141  0.3061
 6974TIP3    H142337   0.698   0.325  17.297 -0.0413  0.0357  0.2680
 6974TIP3    H242338   0.568   0.249  17.281  0.3610 -0.6634  0.3196
 6975TIP3   OH242339   4.430   5.320  17.143 -0.2678 -0.0292 -0.2823
 6975TIP3    H142340   4.478   5.239  17.157 -0.7194 -0.2927 -0.2603
 6975TIP3    H242341   4.403   5.347  17.231 -0.3652 -0.0067 -0.3190
 6976TIP3   OH242342   5.691   1.151   1.389 -0.3719 -0.2495 -0.1407
 6976TIP3    H142343   5.751   1.166   1.461  0.1807 -2.5513 -0.0250
 6976TIP3    H242344   5.711   1.220   1.326  1.1852  0.0731  0.6505
 6977TIP3   OH242345   1.819   2.117  15.956  0.1997 -0.3660  0.2432
 6977TIP3    H142346   1.909   2.094  15.981  0.1021  0.0827  1.0717
 6977TIP3    H242347   1.825   2.209  15.929  0.0825 -0.4913 -0.2060
 6978TIP3   OH242348   5.929   5.188  12.890 -0.6109 -0.4403  0.1304
 6978TIP3    H142349   5.922   5.097  12.861 -0.6646 -1.0376  1.9118
 6978TIP3    H242350   6.016   5.194  12.931 -0.5835  0.3412 -0.0138
 6979TIP3   OH242351   6.207   3.311  13.963 -0.6272 -0.1549  0.2092
 6979TIP3    H142352   6.267   3.364  14.015 -1.0113  0.4132  0.0883
 6979TIP3    H242353   6.125   3.361  13.963 -1.1022 -0.9115  0.3673
 6980TIP3   OH242354   5.540   0.397   1.228  0.1758 -0.4186  0.3328
 6980TIP3    H142355   5.571   0.486   1.243 -1.1321  0.0338  0.4468
 6980TIP3    H242356   5.591   0.343   1.289  1.6123  0.1118 -0.3717
 6981TIP3   OH242357   2.472   3.658   4.728  0.6620 -0.2751 -0.1331
 6981TIP3    H142358   2.436   3.569   4.722 -0.0540 -0.0238  0.2480
 6981TIP3    H242359   2.444   3.689   4.815 -0.2245  0.7993 -0.7754
 6982TIP3   OH242360   3.185   3.196  12.760  0.2383 -0.0822 -1.0047
 6982TIP3    H142361   3.101   3.224  12.796 -0.0204 -0.9584 -0.9030
 6982TIP3    H242362   3.162   3.146  12.682  0.5043 -2.1383  0.1598
 6983TIP3   OH242363   2.709   6.698   2.507 -0.6089 -0.3944  0.0769
 6983TIP3    H142364   2.653   6.621   2.515 -1.6891 -0.1142 -3.2789
 6983TIP3    H242365   2.788   6.665   2.464 -0.3804  0.1252  0.0924
 6984TIP3   OH242366   4.348   5.926  16.838  0.2187  0.4621 -0.5222
 6984TIP3    H142367   4.344   5.832  16.850  0.7492  0.2054 -2.0786
 6984TIP3    H242368   4.440   5.949  16.852  0.3004  0.5670 -1.1830
 6985TIP3   OH242369   4.454   5.300   0.230 -0.9409 -0.2493  0.1787
 6985TIP3    H142370   4.522   5.265   0.173 -2.7378 -2.2285 -0.9157
 6985TIP3    H242371   4.406   5.362   0.176 -0.9854 -0.0677  0.4248
 6986TIP3   OH242372   5.662   3.101  13.789  0.3666 -0.0200 -0.1756
 6986TIP3    H142373   5.592   3.070  13.846  0.5825 -1.5889 -0.7217
 6986TIP3    H242374   5.732   3.128  13.849 -0.9140  2.2901  0.4053
 6987TIP3   OH242375   6.001   4.162   5.064  0.0636  0.2735  0.2309
 6987TIP3    H142376   6.093   4.147   5.087 -0.0069 -0.8362 -0.1809
 6987TIP3    H242377   5.961   4.075   5.064 -0.1826  0.2588 -2.9496
 6988TIP3   OH242378   6.595   0.696   3.337 -0.0817 -0.2286 -0.1989
 6988TIP3    H142379   6.589   0.618   3.392  2.2802 -1.0318 -0.9665
 6988TIP3    H242380   6.678   0.686   3.291 -0.9697  1.4695 -2.3082
 6989TIP3   OH242381   3.421   5.640  15.460 -0.3510 -0.1631  0.4612
 6989TIP3    H142382   3.328   5.625  15.447 -0.5771  1.5508 -0.1242
 6989TIP3    H242383   3.427   5.683  15.546  0.0616 -1.5347  1.1471
 6990TIP3   OH242384   1.390   1.327   0.961 -0.1106 -0.0624 -0.0052
 6990TIP3    H142385   1.464   1.386   0.977 -0.4974  0.1781  0.9432
 6990TIP3    H242386   1.431   1.244   0.937  0.4490  0.4820 -1.0240
 6991TIP3   OH242387   0.638   0.041   2.684 -0.5753  0.2604  0.1965
 6991TIP3    H142388   0.689   0.121   2.692  0.0402 -0.1954  1.1147
 6991TIP3    H242389   0.683  -0.010   2.617 -0.8775  0.6035 -0.2763
 6992TIP3   OH242390   1.463   3.354   1.900  0.0344 -0.0698 -0.2069
 6992TIP3    H142391   1.506   3.269   1.896 -0.7386 -0.4958  0.3219
 6992TIP3    H242392   1.380   3.342   1.854 -0.8806 -0.1109  1.3923
 6993TIP3   OH242393   4.006   3.860   0.787 -0.7678 -0.6518 -0.3540
 6993TIP3    H142394   3.953   3.783   0.807 -1.3835 -0.3350 -0.7532
 6993TIP3    H242395   4.051   3.879   0.870 -2.3144 -0.1189  0.4111
 6994TIP3   OH242396   3.314   1.346  13.563 -0.1026  0.0954 -0.1516
 6994TIP3    H142397   3.390   1.290  13.571  0.0309  0.2838 -0.0802
 6994TIP3    H242398   3.322   1.407  13.637 -0.5894 -0.2061  0.1564
 6995TIP3   OH242399   0.502   4.048  15.771  0.0338  0.1213  0.6350
 6995TIP3    H142400   0.590   4.061  15.807  0.8211 -3.3204  0.3494
 6995TIP3    H242401   0.509   4.071  15.679  0.6845 -0.1878  0.6033
 6996TIP3   OH242402   1.556   2.256   0.479 -0.2204 -0.0503 -0.2471
 6996TIP3    H142403   1.613   2.186   0.445  0.5010  0.7335 -0.6707
 6996TIP3    H242404   1.476   2.210   0.504 -0.6124 -0.7758 -2.5564
 6997TIP3   OH242405   5.904   6.642  15.188  0.0047  0.0843 -0.3368
 6997TIP3    H142406   5.933   6.713  15.131 -0.2528 -0.4130 -1.0985
 6997TIP3    H242407   5.811   6.634  15.170 -0.1360  0.1094  0.3681
 6998TIP3   OH242408   4.840   0.412   2.810  0.0939  0.6873  0.2794
 6998TIP3    H142409   4.931   0.391   2.789 -0.0117  1.6862 -1.3851
 6998TIP3    H242410   4.789   0.357   2.751 -0.4045 -0.0617  1.3927
 6999TIP3   OH242411   1.597   2.375   0.152 -0.4375  0.7095 -0.0824
 6999TIP3    H142412   1.602   2.288   0.111  1.6391  1.0160 -0.5483
 6999TIP3    H242413   1.510   2.376   0.192  0.1107 -2.3039  1.5138
 7000TIP3   OH242414   1.805   0.054   5.104 -0.1765 -0.3421 -0.3304
 7000TIP3    H142415   1.822   0.114   5.177  0.0609 -1.7882  0.8614
 7000TIP3    H242416   1.734   0.095   5.055  2.6025  2.9537 -2.0147
 7001TIP3   OH242417   2.556   2.348   1.392 -0.1721 -0.2349 -0.3251
 7001TIP3    H142418   2.469   2.310   1.397  0.1805 -1.0281 -0.0810
 7001TIP3    H242419   2.588   2.345   1.483 -0.3661  1.2121 -0.1831
 7002TIP3   OH242420   3.702   6.306   2.198  0.0011  0.2321 -0.2719
 7002TIP3    H142421   3.652   6.366   2.253  0.1340 -0.0089  0.1121
 7002TIP3    H242422   3.789   6.346   2.191  0.3638 -0.3542  0.7196
 7003TIP3   OH242423   0.070   4.274   5.381  0.0531  0.3221 -0.3259
 7003TIP3    H142424   0.006   4.207   5.355 -0.5229 -0.1271  2.0538
 7003TIP3    H242425   0.019   4.337   5.432  1.5061 -0.2740  1.9985
 7004TIP3   OH242426   3.074   1.688  11.184 -0.5855 -0.0720  0.0909
 7004TIP3    H142427   3.023   1.636  11.122  0.1944  0.2632 -0.8509
 7004TIP3    H242428   3.164   1.680  11.154 -0.4324  1.7754 -0.0766
 7005TIP3   OH242429   2.013   0.158  13.034  0.0527 -0.1258  0.2654
 7005TIP3    H142430   1.949   0.228  13.017  1.0954  0.9668  0.6493
 7005TIP3    H242431   1.985   0.086  12.978 -0.2652  1.0864 -1.2110
 7006TIP3   OH242432   3.390   0.430  10.636 -0.3756 -0.3200  0.4695
 7006TIP3    H142433   3.326   0.496  10.611 -1.3670 -1.3251  0.2489
 7006TIP3    H242434   3.358   0.349  10.596  1.8345 -0.5896 -0.8870
 7007TIP3   OH242435   4.976   4.043  14.021 -0.1625 -0.2879  0.4354
 7007TIP3    H142436   4.978   4.133  13.989  0.3116  0.5378  2.6808
 7007TIP3    H242437   4.995   3.990  13.943 -0.7691  1.4894 -1.0013
 7008TIP3   OH242438   2.677   4.213   1.861  0.0403 -0.7703  0.4576
 7008TIP3    H142439   2.594   4.224   1.815  0.3473 -1.4689 -0.2910
 7008TIP3    H242440   2.704   4.123   1.841  2.1849  0.1831 -1.3819
 7009TIP3   OH242441   1.318   6.544  13.771  0.3508 -0.4727  0.1125
 7009TIP3    H142442   1.283   6.557  13.683  1.1199  1.3240  0.0216
 7009TIP3    H242443   1.411   6.524  13.758 -0.1643 -3.5441  0.4231
 7010TIP3   OH242444   0.290   5.259   3.680 -0.1362 -0.1677 -0.1840
 7010TIP3    H142445   0.331   5.260   3.594 -0.6611 -1.2071 -0.4653
 7010TIP3    H242446   0.228   5.185   3.676 -2.8930  1.9659 -0.1953
 7011TIP3   OH242447   1.446   4.086  16.329  0.3497  0.5657 -0.0615
 7011TIP3    H142448   1.365   4.075  16.380  0.7689  1.6548  0.8701
 7011TIP3    H242449   1.514   4.048  16.384  0.4005 -1.0805 -1.1906
 7012TIP3   OH242450   1.812   5.602   2.273 -0.6425 -0.5249 -0.5036
 7012TIP3    H142451   1.838   5.633   2.360 -1.3531 -0.9480 -0.1370
 7012TIP3    H242452   1.869   5.527   2.256  0.1365  0.1207 -0.8085
 7013TIP3   OH242453   2.389   6.081  12.695 -0.4281 -0.2801  0.3071
 7013TIP3    H142454   2.397   6.156  12.753  0.8998  0.8720 -1.2532
 7013TIP3    H242455   2.447   6.015  12.733 -0.3173  0.0955  0.8009
 7014TIP3   OH242456   3.794   1.604  15.174  0.4107 -0.2462  0.4836
 7014TIP3    H142457   3.740   1.571  15.102  1.7328  0.8061 -1.0729
 7014TIP3    H242458   3.859   1.660  15.131  0.0442  2.0453  2.6932
 7015TIP3   OH242459   4.645   0.939  14.146 -0.0033  0.6558  0.1889
 7015TIP3    H142460   4.661   1.024  14.188  2.8247 -0.3622  1.4196
 7015TIP3    H242461   4.704   0.938  14.071  0.3266 -0.3672  0.4503
 7016TIP3   OH242462   3.700   0.679   1.308 -0.5208  0.4542  0.6802
 7016TIP3    H142463   3.709   0.766   1.269  1.3171 -0.0275 -0.0975
 7016TIP3    H242464   3.788   0.643   1.305 -1.6192 -2.4538 -1.4889
 7017TIP3   OH242465   2.693   2.667   6.078  0.3094  0.6028  0.2296
 7017TIP3    H142466   2.647   2.733   6.026 -1.2076  0.9324  1.8788
 7017TIP3    H242467   2.664   2.682   6.168  2.6556 -0.0889  1.1878
 7018TIP3   OH242468   3.918   3.907   5.455 -0.0092 -0.6900 -0.1134
 7018TIP3    H142469   3.978   3.930   5.384 -0.4887 -0.2883 -0.3980
 7018TIP3    H242470   3.969   3.920   5.535 -0.3800  1.9924 -0.2013
 7019TIP3   OH242471   4.670   3.283   2.847 -0.3831  0.0500 -0.3413
 7019TIP3    H142472   4.711   3.238   2.920  1.4340  0.3550 -1.1198
 7019TIP3    H242473   4.588   3.236   2.833 -0.2527 -0.6955  1.1670
 7020TIP3   OH242474   4.181   0.935   5.454  0.6660  0.3669 -0.1683
 7020TIP3    H142475   4.220   1.013   5.414  0.0181  0.7419 -0.0800
 7020TIP3    H242476   4.206   0.940   5.546 -0.1820  0.9933  0.0392
 7021TIP3   OH242477   5.494   6.176   1.583  0.0108 -0.0443  0.3065
 7021TIP3    H142478   5.535   6.166   1.497 -1.1215 -1.1227 -0.1346
 7021TIP3    H242479   5.564   6.210   1.639  0.9890 -0.1029 -0.8480
 7022TIP3   OH242480   4.186   5.865  14.161 -0.0110  0.1422 -0.1099
 7022TIP3    H142481   4.218   5.827  14.080  1.4713  2.7447 -0.8810
 7022TIP3    H242482   4.121   5.930  14.134 -0.4471  0.1494  0.8949
 7023TIP3   OH242483   4.902   4.234  13.090  0.5744  0.3838 -0.2982
 7023TIP3    H142484   4.943   4.147  13.098 -0.7186 -0.3507 -1.2639
 7023TIP3    H242485   4.809   4.217  13.102  0.1127  1.3615 -2.2003
 7024TIP3   OH242486   1.477   5.208   0.878  0.2065  0.0632  0.1575
 7024TIP3    H142487   1.446   5.135   0.824  1.2693  0.0061 -0.3881
 7024TIP3    H242488   1.563   5.180   0.909  0.3401  0.8211  0.4903
 7025TIP3   OH242489   4.379   4.954  13.298 -0.2040 -0.3251 -0.2698
 7025TIP3    H142490   4.434   4.946  13.220  0.2511  1.8912 -0.2445
 7025TIP3    H242491   4.427   4.908  13.367  0.5118 -0.3700 -0.7867
 7026TIP3   OH242492   2.428   4.877   4.484 -0.3927 -0.3898  0.0826
 7026TIP3    H142493   2.438   4.894   4.390  3.7262 -0.9342  0.2337
 7026TIP3    H242494   2.450   4.961   4.526 -0.5471 -0.5890  0.5642
 7027TIP3   OH242495   6.290   5.989   0.065 -0.0775 -0.1177  0.5176
 7027TIP3    H142496   6.332   6.031   0.140 -0.6888  0.6275  0.4664
 7027TIP3    H242497   6.290   5.896   0.086  1.9831 -0.2071  0.2994
 7028TIP3   OH242498   2.618   1.086   2.665 -0.6472  0.2202  0.0101
 7028TIP3    H142499   2.582   1.076   2.577 -0.3268 -0.7324 -0.0190
 7028TIP3    H242500   2.660   1.002   2.684 -0.5305  0.4866  0.9894
 7029TIP3   OH242501   1.832   4.716   2.466 -0.0666  0.2210  0.0698
 7029TIP3    H142502   1.776   4.777   2.417 -1.0890  0.2036  1.1594
 7029TIP3    H242503   1.795   4.629   2.446  0.6282  0.0480 -0.5156
 7030TIP3   OH242504   5.493   3.228  12.000  0.4389 -0.1478  0.0042
 7030TIP3    H142505   5.472   3.141  12.033  1.0810 -0.6168 -0.7810
 7030TIP3    H242506   5.582   3.244  12.030 -0.3708  1.1337  1.9069
 7031TIP3   OH242507   6.233   4.403   0.115  0.2808 -1.0862 -0.2354
 7031TIP3    H142508   6.194   4.461   0.180  0.7843 -0.1547 -0.7447
 7031TIP3    H242509   6.164   4.339   0.095 -0.8994  0.3412 -0.9159
 7032TIP3   OH242510   5.609   0.246  17.193  0.3313 -0.2651  0.4349
 7032TIP3    H142511   5.679   0.229  17.130 -1.6062 -2.2121 -1.4006
 7032TIP3    H242512   5.566   0.325  17.158  0.1776 -0.4601  0.1774
 7033TIP3   OH242513   4.089   1.761   2.069 -0.5663 -0.2551 -0.4433
 7033TIP3    H142514   4.165   1.746   2.012  0.2675 -0.0434  0.6045
 7033TIP3    H242515   4.068   1.674   2.104 -0.0954 -0.1288  0.1563
 7034TIP3   OH242516   3.814   1.818  13.121 -0.4850 -0.0201 -0.0841
 7034TIP3    H142517   3.841   1.905  13.148  1.3846 -0.9077  1.1623
 7034TIP3    H242518   3.823   1.765  13.200 -1.2361 -1.4293 -0.8976
 7035TIP3   OH242519   5.501   0.881   2.634  0.4849  0.6527  0.4145
 7035TIP3    H142520   5.568   0.884   2.566  1.5805  2.0129  1.4941
 7035TIP3    H242521   5.432   0.940   2.602 -0.1864 -0.6412 -0.6312
 7036TIP3   OH242522   4.455   6.140   0.079 -0.6836 -0.3242 -0.2595
 7036TIP3    H142523   4.507   6.139  -0.001 -0.1083 -0.1045  0.1094
 7036TIP3    H242524   4.364   6.148   0.048 -0.4918 -0.5652 -0.8972
 7037TIP3   OH242525   2.396   2.825  12.779 -0.3242 -0.0293 -0.2263
 7037TIP3    H142526   2.423   2.736  12.801  0.6108  0.3608  0.2267
 7037TIP3    H242527   2.373   2.820  12.686  0.1095 -0.6509 -0.3065
 7038TIP3   OH242528   1.982   6.418  17.265  0.5663  0.1807  0.0263
 7038TIP3    H142529   1.999   6.417  17.359  1.2916  1.0137 -0.0832
 7038TIP3    H242530   1.898   6.461  17.256 -0.6165 -1.9083  0.4254
 7039TIP3   OH242531   1.928   1.242   2.748 -0.7750  0.3913  0.3838
 7039TIP3    H142532   2.018   1.263   2.723  1.2498 -5.0648  1.7096
 7039TIP3    H242533   1.883   1.226   2.665  1.1695 -1.8766 -0.3590
 7040TIP3   OH242534   1.092   2.447  11.532  0.0414 -0.4166  0.0417
 7040TIP3    H142535   1.080   2.468  11.624 -2.6213 -0.3283 -0.2580
 7040TIP3    H242536   1.062   2.356  11.524 -2.5236  0.4548 -1.1635
 7041TIP3   OH242537   3.298   2.744   5.696  0.7499 -0.1381  0.2569
 7041TIP3    H142538   3.360   2.816   5.685  0.3165  0.3287  0.8183
 7041TIP3    H242539   3.326   2.701   5.777  2.2703 -1.8998 -1.0919
 7042TIP3   OH242540   2.684   5.188   1.592 -0.2402  0.0068  0.2695
 7042TIP3    H142541   2.700   5.220   1.503 -1.2910  1.3684  0.5284
 7042TIP3    H242542   2.613   5.125   1.581 -0.7490  0.5824  0.1954
 7043TIP3   OH242543   6.621   1.718   1.342 -0.3773  0.5954  0.0119
 7043TIP3    H142544   6.695   1.671   1.381 -0.6208  1.5101  1.6851
 7043TIP3    H242545   6.588   1.773   1.413 -1.8550  1.1810 -1.0820
 7044TIP3   OH242546   2.971   5.626  11.968 -0.2795  0.0470  0.3431
 7044TIP3    H142547   3.001   5.632  12.058  0.2895  1.2520  0.0893
 7044TIP3    H242548   2.888   5.674  11.967 -0.2571  0.0859  0.2237
 7045TIP3   OH242549   4.967   2.509  15.630  0.1711  0.7903 -0.3363
 7045TIP3    H142550   5.043   2.491  15.685  0.5160 -0.6006 -1.2024
 7045TIP3    H242551   4.983   2.595  15.593  0.4864  1.2427  0.8158
 7046TIP3   OH242552   6.192   1.587   2.503 -0.2473  0.5488 -0.2696
 7046TIP3    H142553   6.142   1.609   2.581  1.7337 -1.1545  1.6377
 7046TIP3    H242554   6.127   1.557   2.440 -1.7948  0.3256  1.3465
 7047TIP3   OH242555   4.496   1.034  12.578 -0.0751 -0.5265 -0.2221
 7047TIP3    H142556   4.515   1.009  12.488  2.8452 -0.7843  0.3716
 7047TIP3    H242557   4.403   1.016  12.589 -0.3280 -1.2434 -2.9223
 7048TIP3   OH242558   4.053   1.569   6.806  0.3793 -0.4737 -0.6723
 7048TIP3    H142559   4.131   1.624   6.810 -0.0529  0.0668  2.2763
 7048TIP3    H242560   3.987   1.625   6.763  0.2384  1.0156  1.3607
 7049TIP3   OH242561   6.448   3.116  12.870 -0.2175 -0.6742 -0.0047
 7049TIP3    H142562   6.412   3.075  12.948 -0.8894 -0.8064 -0.3772
 7049TIP3    H242563   6.440   3.210  12.885  0.0461 -0.6941  0.2629
 7050TIP3   OH242564   1.076   1.833  13.645  0.0932  0.3532  0.3932
 7050TIP3    H142565   1.007   1.810  13.582 -0.9078  1.1394  1.1814
 7050TIP3    H242566   1.051   1.919  13.679  2.2744  1.3988 -0.4204
 7051TIP3   OH242567   3.955   0.736  14.126  0.0357 -0.0309  0.0664
 7051TIP3    H142568   3.951   0.831  14.141  2.5724  0.1575  0.0964
 7051TIP3    H242569   4.022   0.726  14.058  0.1439 -1.8235  0.3886
 7052TIP3   OH242570   1.978   2.785   3.489 -0.2239 -0.4088 -0.2601
 7052TIP3    H142571   2.053   2.831   3.451  0.5946 -0.9257  0.6814
 7052TIP3    H242572   1.915   2.854   3.510  1.7353  0.6269  2.8819
 7053TIP3   OH242573   2.942   2.836   0.625 -0.0368 -0.2491 -0.6223
 7053TIP3    H142574   2.992   2.907   0.585  0.1641 -1.1736 -2.1039
 7053TIP3    H242575   2.866   2.879   0.664  0.3225  0.8291 -1.0793
 7054TIP3   OH242576   3.276   4.089  15.928 -0.5291 -0.6269 -0.5129
 7054TIP3    H142577   3.324   4.028  15.873 -0.0108 -0.5655 -0.1286
 7054TIP3    H242578   3.193   4.103  15.881 -0.5757 -1.4703 -0.6948
 7055TIP3   OH242579   6.404   2.059   2.728  0.3081 -0.1884 -0.4238
 7055TIP3    H142580   6.485   2.057   2.781  0.9341 -0.3435 -1.3705
 7055TIP3    H242581   6.351   2.127   2.770  2.0664  1.9129 -1.3555
 7056TIP3   OH242582   0.761   1.857   1.545  0.6304  0.1242 -0.4387
 7056TIP3    H142583   0.768   1.819   1.632  0.7068  0.8232 -0.1387
 7056TIP3    H242584   0.723   1.943   1.559 -0.4067 -0.1891 -1.2070
 7057TIP3   OH242585   5.412   3.201   0.795  0.0938 -0.6007  0.0001
 7057TIP3    H142586   5.490   3.244   0.829 -0.8638  0.3336  1.0724
 7057TIP3    H242587   5.446   3.138   0.730  1.7171 -0.2385  0.4547
 7058TIP3   OH242588   2.706   1.671  11.457  0.4529  0.0646 -0.0117
 7058TIP3    H142589   2.708   1.767  11.446  0.9059  0.3172  1.9197
 7058TIP3    H242590   2.680   1.658  11.548 -0.1678 -1.6856 -0.4102
 7059TIP3   OH242591   0.940   1.231  11.630  0.0778 -0.0515 -0.6109
 7059TIP3    H142592   0.956   1.241  11.536  0.3014 -1.4038 -0.7344
 7059TIP3    H242593   1.025   1.207  11.666 -0.1800 -0.3436 -0.1888
 7060TIP3   OH242594   5.206   0.421   0.711 -0.4832 -0.0001 -0.2454
 7060TIP3    H142595   5.193   0.485   0.781  1.9028 -0.7133  0.9401
 7060TIP3    H242596   5.201   0.336   0.754 -1.5678 -0.5814 -1.4428
 7061TIP3   OH242597   5.862   1.749   6.224 -0.6104  0.0901  0.1720
 7061TIP3    H142598   5.823   1.836   6.229  0.1966  0.4689 -0.1325
 7061TIP3    H242599   5.905   1.737   6.309 -1.0861 -0.1897  0.3772
 7062TIP3   OH242600   0.903   2.563   0.374 -0.1873 -0.2555  0.7107
 7062TIP3    H142601   0.933   2.545   0.285  0.9958  0.5797  0.9182
 7062TIP3    H242602   0.832   2.626   0.363  0.9091  0.9592  0.4143
 7063TIP3   OH242603   1.332   3.563   4.717  0.1849  0.4534 -0.4460
 7063TIP3    H142604   1.377   3.529   4.641 -0.4321 -1.3183 -0.0657
 7063TIP3    H242605   1.396   3.558   4.788 -0.0262 -0.3577 -0.3010
 7064TIP3   OH242606   3.744   3.832   4.489  0.3718 -0.3357  0.0975
 7064TIP3    H142607   3.656   3.867   4.478  1.0618  0.9119 -1.9489
 7064TIP3    H242608   3.780   3.829   4.401  2.4396 -0.6859  0.8904
 7065TIP3   OH242609   6.252   2.249   4.773 -0.7078  0.1348 -0.2112
 7065TIP3    H142610   6.225   2.326   4.824  0.2463  0.7309 -0.5818
 7065TIP3    H242611   6.346   2.240   4.789 -0.4494  0.1426 -1.5865
 7066TIP3   OH242612   6.225   1.596  15.295  0.1452  0.0918 -0.2238
 7066TIP3    H142613   6.201   1.688  15.281  1.3718  0.4436 -0.1701
 7066TIP3    H242614   6.300   1.600  15.354 -0.9495 -1.0597  1.3018
 7067TIP3   OH242615   4.050   2.531   2.955 -0.2831  0.0790 -0.0415
 7067TIP3    H142616   3.989   2.473   3.001 -0.2448  0.5385  0.6074
 7067TIP3    H242617   3.998   2.571   2.886 -0.9331  1.0159  0.9566
 7068TIP3   OH242618   3.174   6.738   4.218  1.1979 -0.5231 -0.6610
 7068TIP3    H142619   3.122   6.784   4.151 -0.2044 -1.5259 -0.3149
 7068TIP3    H242620   3.155   6.645   4.202  0.2306 -0.7707  1.5591
 7069TIP3   OH242621   2.325   2.833   3.837  0.4161  1.0149  0.2085
 7069TIP3    H142622   2.391   2.770   3.864  0.2603  1.4737  1.7565
 7069TIP3    H242623   2.242   2.785   3.842  0.4968  0.7749 -0.6027
 7070TIP3   OH242624   6.021   5.481  16.094 -0.1028  0.3130 -0.2660
 7070TIP3    H142625   6.019   5.525  16.009  0.7172 -0.5733 -0.7653
 7070TIP3    H242626   6.104   5.432  16.094 -0.1924  0.1299  0.9546
 7071TIP3   OH242627   6.126   5.728  13.144  0.4983  0.0614  0.2066
 7071TIP3    H142628   6.141   5.721  13.050 -0.0401  0.1741  0.1067
 7071TIP3    H242629   6.124   5.823  13.161 -1.3410  0.0944 -0.0099
 7072TIP3   OH242630   1.281   4.608  17.320 -0.0751  0.5764 -0.0609
 7072TIP3    H142631   1.260   4.568  17.404 -0.5786  0.1858 -0.3689
 7072TIP3    H242632   1.306   4.698  17.342  0.7031  0.2102  0.5937
 7073TIP3   OH242633   3.397   6.212   1.822  0.0976 -0.1373 -0.1962
 7073TIP3    H142634   3.315   6.163   1.826  0.5307 -0.7913  1.3928
 7073TIP3    H242635   3.408   6.249   1.910  1.1266  0.5835 -0.6052
 7074TIP3   OH242636   3.800   3.914   0.211 -0.2743 -0.0813  0.2751
 7074TIP3    H142637   3.811   4.008   0.221 -0.8756  0.0875 -0.5256
 7074TIP3    H242638   3.880   3.876   0.248 -0.0199  0.7373  0.5826
 7075TIP3   OH242639   1.168   0.786   0.241  0.2820 -0.0320 -0.2514
 7075TIP3    H142640   1.252   0.772   0.198 -0.4691 -1.5385 -1.3248
 7075TIP3    H242641   1.136   0.869   0.205  0.0480 -0.8469 -2.0509
 7076TIP3   OH242642   5.450   2.972  16.183  0.1172 -0.0022 -0.1201
 7076TIP3    H142643   5.543   2.964  16.205 -0.2412 -0.1980  1.4227
 7076TIP3    H242644   5.448   2.974  16.088  1.7288  0.2877 -0.1744
 7077TIP3   OH242645   4.808   5.921  15.178  0.1841 -0.2167 -0.3843
 7077TIP3    H142646   4.899   5.922  15.210  0.3824  0.3074 -0.9441
 7077TIP3    H242647   4.816   5.900  15.085 -0.3310 -0.9393 -0.2674
 7078TIP3   OH242648   0.692   3.635   1.888 -0.1908  0.2115 -0.2229
 7078TIP3    H142649   0.709   3.722   1.852 -0.8390 -0.4382 -2.2553
 7078TIP3    H242650   0.619   3.602   1.836 -1.3177 -0.7737  1.8730
 7079TIP3   OH242651   2.637   6.721  15.847  0.3599  0.1286 -0.1011
 7079TIP3    H142652   2.628   6.745  15.755  2.6196 -2.2810 -1.0657
 7079TIP3    H242653   2.571   6.653  15.860 -0.2161  0.7300  0.2247
 7080TIP3   OH242654   3.365   5.003  16.352  0.3454  0.3280 -0.2852
 7080TIP3    H142655   3.337   5.039  16.268  0.9634  2.0083  0.1994
 7080TIP3    H242656   3.309   5.046  16.417  0.6956 -0.0452  0.2759
 7081TIP3   OH242657   1.638   6.574   4.814 -0.1230  0.4647 -0.1773
 7081TIP3    H142658   1.612   6.654   4.768  1.6135  1.8553  1.1264
 7081TIP3    H242659   1.688   6.525   4.749 -0.8235  0.6354 -0.8595
 7082TIP3   OH242660   3.647   4.282  12.450 -0.0195  0.1357  0.1555
 7082TIP3    H142661   3.560   4.242  12.443 -0.2035  0.6319 -0.5136
 7082TIP3    H242662   3.691   4.259  12.368  0.8228 -0.8845  0.8717
 7083TIP3   OH242663   3.159   6.665   2.108  0.1839 -0.0201 -0.3141
 7083TIP3    H142664   3.065   6.648   2.114  0.5980 -2.7564 -0.2019
 7083TIP3    H242665   3.185   6.626   2.025  1.2668  0.5160 -0.2407
 7084TIP3   OH242666   6.339   3.716   0.014 -0.1455 -0.0210 -0.6000
 7084TIP3    H142667   6.297   3.800  -0.002  0.7496  0.2683 -1.5419
 7084TIP3    H242668   6.269   3.659   0.046 -0.6801  1.1927  0.4902
 7085TIP3   OH242669   6.704   5.105  16.651 -0.5120  0.1575 -0.0006
 7085TIP3    H142670   6.650   5.027  16.643  0.0992 -0.2415 -0.2946
 7085TIP3    H242671   6.745   5.097  16.737  0.2572 -0.3188 -0.3949
 7086TIP3   OH242672   6.377   4.461  16.125  0.7553 -0.0184  0.0229
 7086TIP3    H142673   6.427   4.385  16.096 -1.2049 -1.5993  0.5077
 7086TIP3    H242674   6.390   4.527  16.057  3.0467 -0.4922 -0.0760
 7087TIP3   OH242675   0.372   2.807   3.590  0.4635  0.3538 -0.1962
 7087TIP3    H142676   0.450   2.799   3.535  0.8169  0.5895  0.2654
 7087TIP3    H242677   0.314   2.737   3.560  0.8860  0.1285 -0.4898
 7088TIP3   OH242678   1.401   2.702   5.795  0.5148  0.3293  0.4147
 7088TIP3    H142679   1.490   2.685   5.826  0.9820  0.3930 -0.8499
 7088TIP3    H242680   1.411   2.765   5.724 -0.4745 -0.1910 -0.2110
 7089TIP3   OH242681   2.841   4.026  12.722 -0.5267 -0.2782  0.5003
 7089TIP3    H142682   2.904   3.954  12.730  0.5940  0.7010  0.8720
 7089TIP3    H242683   2.819   4.048  12.812 -0.7366 -0.0408  0.3915
 7090TIP3   OH242684   2.449   0.655  13.585 -0.3374 -0.0568  0.5151
 7090TIP3    H142685   2.510   0.601  13.534 -1.7601 -1.0278 -0.2391
 7090TIP3    H242686   2.406   0.593  13.644 -0.6226  0.6066  1.0190
 7091TIP3   OH242687   1.851   2.973  15.940 -0.0627  0.7054  0.1754
 7091TIP3    H142688   1.924   2.945  15.885  0.2335  1.9677 -0.0953
 7091TIP3    H242689   1.885   2.970  16.029 -0.4853 -1.1613  0.3062
 7092TIP3   OH242690   4.505   5.152   4.993 -0.2505 -0.1150 -0.1502
 7092TIP3    H142691   4.437   5.149   5.060 -0.8001  3.6678 -0.2988
 7092TIP3    H242692   4.579   5.195   5.036  0.3519 -0.0027 -1.2621
 7093TIP3   OH242693   0.463   4.429   1.165 -0.5103  0.0281  0.2237
 7093TIP3    H142694   0.380   4.436   1.119 -0.0815  3.7905 -0.2666
 7093TIP3    H242695   0.451   4.480   1.245  0.4850 -1.8226  1.6308
 7094TIP3   OH242696   0.279   1.114  10.741 -0.6695 -0.3366  0.2193
 7094TIP3    H142697   0.319   1.176  10.681 -1.1069 -1.1194 -0.9092
 7094TIP3    H242698   0.193   1.152  10.762 -0.9951 -0.6087 -0.5819
 7095TIP3   OH242699   1.420   1.663   5.736 -0.2880  0.5087 -0.2742
 7095TIP3    H142700   1.408   1.631   5.646  0.2647 -2.9410  0.7696
 7095TIP3    H242701   1.512   1.648   5.755 -0.8818 -1.0984  1.6237
 7096TIP3   OH242702   2.133   2.373   1.805  0.5688 -0.1988 -0.2158
 7096TIP3    H142703   2.045   2.410   1.791  1.3540  1.3044 -1.4073
 7096TIP3    H242704   2.189   2.418   1.742  2.3035 -0.8211  0.8048
 7097TIP3   OH242705   5.899   5.405  14.784 -0.0695 -0.4973  0.2325
 7097TIP3    H142706   5.851   5.322  14.794  2.8676 -2.2156  1.2155
 7097TIP3    H242707   5.950   5.394  14.704 -0.9050  1.1267 -0.5742
 7098TIP3   OH242708   5.706   2.323  15.091  0.1228  0.1811  0.2651
 7098TIP3    H142709   5.690   2.372  15.171  1.0217  2.2621 -0.7457
 7098TIP3    H242710   5.766   2.379  15.040 -1.8284 -0.1421 -2.6420
 7099TIP3   OH242711   5.789   0.433  13.453 -0.3956 -0.5525  0.0498
 7099TIP3    H142712   5.858   0.371  13.430  0.7943  0.1963  1.4499
 7099TIP3    H242713   5.827   0.488  13.520 -1.6045  1.3819 -0.7557
 7100TIP3   OH242714   3.349   1.756   2.910  0.0270 -0.2455  0.0178
 7100TIP3    H142715   3.408   1.828   2.935 -0.7010 -0.2013  1.7649
 7100TIP3    H242716   3.373   1.684   2.969 -1.5347 -0.2733  0.6600
 7101TIP3   OH242717   6.319   2.500   0.341  1.0728 -0.5367  0.2187
 7101TIP3    H142718   6.380   2.573   0.329  2.1421 -1.5991 -1.2276
 7101TIP3    H242719   6.287   2.481   0.253 -2.3603  0.7315  1.0491
 7102TIP3   OH242720   3.335   5.120   5.139 -0.1657 -0.2199 -0.4706
 7102TIP3    H142721   3.427   5.141   5.154  0.1542 -0.9884 -1.3409
 7102TIP3    H242722   3.300   5.105   5.227  0.6662 -0.4762 -0.1753
 7103TIP3   OH242723   6.494   2.975  16.138 -0.8113 -0.1977  0.0840
 7103TIP3    H142724   6.577   3.001  16.098 -1.1705  0.5642 -0.1847
 7103TIP3    H242725   6.507   2.992  16.232 -1.3186  1.8399 -0.1601
 7104TIP3   OH242726   5.896   4.063  13.484 -0.2271 -0.2369  0.1050
 7104TIP3    H142727   5.940   4.128  13.430  0.1366 -0.7868 -0.2626
 7104TIP3    H242728   5.926   3.978  13.451  0.2237 -0.5869  1.3306
 7105TIP3   OH242729   6.414   0.650  14.799 -0.4101  0.6329  0.1598
 7105TIP3    H142730   6.408   0.556  14.815  0.7846  0.5497  0.1974
 7105TIP3    H242731   6.341   0.669  14.740 -0.4397 -0.3877 -0.1457
 7106TIP3   OH242732   1.225   1.456   4.465 -0.6060  0.4773 -0.5637
 7106TIP3    H142733   1.162   1.493   4.404 -3.2130 -2.6729 -0.1060
 7106TIP3    H242734   1.218   1.510   4.543 -1.7488  1.0295 -1.0287
 7107TIP3   OH242735   2.295   2.265   1.363 -0.3633 -0.7738  0.7419
 7107TIP3    H142736   2.236   2.333   1.329  0.8011  0.1480  0.4900
 7107TIP3    H242737   2.304   2.203   1.291  1.0185  0.4625 -0.2148
 7108TIP3   OH242738   6.384   4.414  12.018  0.4069  0.3356 -0.1019
 7108TIP3    H142739   6.480   4.418  12.013  0.3528  0.7191 -0.8903
 7108TIP3    H242740   6.354   4.435  11.930 -0.4203  0.7648  0.2693
 7109TIP3   OH242741   2.297   4.021  10.810  0.6170  0.4875  0.5469
 7109TIP3    H142742   2.331   4.051  10.726  2.5933  0.5930  1.3469
 7109TIP3    H242743   2.283   4.102  10.861 -1.8620  0.5326 -0.0808
 7110TIP3   OH242744   6.222   4.593  13.970  0.1430  0.2396  0.6332
 7110TIP3    H142745   6.222   4.542  13.889  2.0102 -1.3060  1.5227
 7110TIP3    H242746   6.130   4.605  13.991 -0.3835 -2.0817 -0.0766
 7111TIP3   OH242747   0.536   4.254  15.255 -0.1455  0.1448 -0.5786
 7111TIP3    H142748   0.459   4.294  15.216  1.5162  2.9338 -1.3457
 7111TIP3    H242749   0.578   4.207  15.183  0.2928  0.9880 -0.8805
 7112TIP3   OH242750   5.676   5.344   0.399  0.4459  0.4527 -0.3897
 7112TIP3    H142751   5.617   5.322   0.327  2.0772 -1.0604 -1.3501
 7112TIP3    H242752   5.701   5.435   0.383 -3.5328  2.1425  1.5448
 7113TIP3   OH242753   0.667   0.708   2.937  0.2293  0.2940 -0.1253
 7113TIP3    H142754   0.734   0.641   2.948  0.0327  0.1168  0.0087
 7113TIP3    H242755   0.706   0.788   2.971  0.5468  0.2986 -0.4881
 7114TIP3   OH242756   5.241   1.407  11.855 -0.1844  0.7952 -0.0033
 7114TIP3    H142757   5.150   1.387  11.876 -0.4362  1.1782 -0.7075
 7114TIP3    H242758   5.246   1.503  11.860  0.7352  0.6834  2.2527
 7115TIP3   OH242759   0.234   2.391  15.533  0.2758 -0.0516  0.3494
 7115TIP3    H142760   0.211   2.417  15.444 -0.9919 -0.1399  0.6319
 7115TIP3    H242761   0.300   2.454  15.560 -0.4278  0.9024 -0.1172
 7116TIP3   OH242762   5.537   5.836   5.577 -0.3583  0.2076 -0.2429
 7116TIP3    H142763   5.510   5.852   5.486  1.1240  2.7277 -0.3538
 7116TIP3    H242764   5.520   5.919   5.621 -0.6602 -0.8424  1.7191
 7117TIP3   OH242765   1.680   0.565  16.904 -0.7213 -1.0418 -0.1801
 7117TIP3    H142766   1.703   0.474  16.886 -0.0427 -0.5200 -2.1650
 7117TIP3    H242767   1.738   0.591  16.976 -0.8253 -2.1089  0.3110
 7118TIP3   OH242768   0.992   2.090  14.405 -0.0415 -0.2184 -0.1936
 7118TIP3    H142769   1.023   2.170  14.363  1.3243 -2.1791 -3.2457
 7118TIP3    H242770   0.901   2.081  14.377  0.4972 -0.8711 -1.8250
 7119TIP3   OH242771   5.712   2.203  12.996  0.1799 -0.2268  0.7555
 7119TIP3    H142772   5.764   2.193  13.076  0.7662  1.2799  0.5950
 7119TIP3    H242773   5.655   2.278  13.014 -0.2780 -0.4024  0.0599
 7120TIP3   OH242774   3.259   4.777  10.199 -0.1384  0.1902  0.5091
 7120TIP3    H142775   3.194   4.823  10.145 -0.1831 -0.7656 -0.2810
 7120TIP3    H242776   3.282   4.840  10.267 -0.6860  1.1346 -0.1511
 7121TIP3   OH242777   3.822   2.294  12.237  0.2691 -0.6568  0.2947
 7121TIP3    H142778   3.852   2.211  12.275  0.4635 -0.5722  0.3266
 7121TIP3    H242779   3.737   2.310  12.279  0.7570 -0.2532  1.1535
 7122TIP3   OH242780   2.658   1.459  14.809 -0.5775 -0.0661 -0.0936
 7122TIP3    H142781   2.587   1.486  14.868  0.0396 -0.0956  0.6773
 7122TIP3    H242782   2.617   1.397  14.749 -0.9901 -0.8336  0.9657
 7123TIP3   OH242783   2.218   5.508   2.326 -0.0650 -0.9114  0.7671
 7123TIP3    H142784   2.264   5.509   2.411 -0.9974 -0.4058  1.2792
 7123TIP3    H242785   2.204   5.600   2.305  0.3884 -1.0247 -0.0778
 7124TIP3   OH242786   3.242   0.167   0.488 -0.0289 -1.1743 -0.0208
 7124TIP3    H142787   3.211   0.091   0.439 -0.9590 -0.1011 -1.1706
 7124TIP3    H242788   3.172   0.232   0.478  0.6368 -0.2377  1.1234
 7125TIP3   OH242789   5.512   5.439  15.568 -0.3790 -0.7759  0.1343
 7125TIP3    H142790   5.557   5.513  15.528  0.8284 -1.4841  0.1022
 7125TIP3    H242791   5.575   5.367  15.560 -1.3404 -1.6851  0.5637
 7126TIP3   OH242792   4.375   3.861  14.364 -0.2746  0.3040  0.7776
 7126TIP3    H142793   4.405   3.952  14.366 -0.1035  0.3685 -1.6367
 7126TIP3    H242794   4.416   3.825  14.286 -0.0708 -1.9790  1.8662
 7127TIP3   OH242795   0.190   3.569  13.244  0.0300  0.0383  0.3913
 7127TIP3    H142796   0.115   3.553  13.302  2.2719 -2.2600  2.9585
 7127TIP3    H242797   0.163   3.642  13.189 -3.3922  0.4730  2.3778
 7128TIP3   OH242798   6.621   1.186  14.919 -0.1138  0.3550 -0.2483
 7128TIP3    H142799   6.569   1.203  14.997 -0.9574 -0.1693 -0.6827
 7128TIP3    H242800   6.589   1.248  14.854  0.6794  0.8828 -0.1448
 7129TIP3   OH242801   0.488   5.138  11.756 -0.1401  0.9367  0.0753
 7129TIP3    H142802   0.492   5.058  11.704 -0.5787  1.0944 -0.2062
 7129TIP3    H242803   0.415   5.124  11.816  0.7551  0.5028  1.0807
 7130TIP3   OH242804   4.200   6.016  16.434  0.2424 -0.1499  0.6393
 7130TIP3    H142805   4.134   6.002  16.501 -0.2285 -0.8554  0.0456
 7130TIP3    H242806   4.163   5.976  16.355 -0.3043  2.7549 -0.6916
 7131TIP3   OH242807   5.665   3.592   6.658 -0.0974  0.0270  0.1750
 7131TIP3    H142808   5.627   3.679   6.650 -0.6143 -0.2806 -1.0017
 7131TIP3    H242809   5.756   3.608   6.684  0.1398  0.9895 -1.1232
 7132TIP3   OH242810   2.905   4.606   2.989  0.0965  0.5647 -0.1306
 7132TIP3    H142811   2.816   4.635   3.011 -0.0816  0.1767 -0.3347
 7132TIP3    H242812   2.898   4.572   2.900  0.2775 -0.2319  0.1574
 7133TIP3   OH242813   5.544   4.389   0.064  0.1428 -0.1172 -0.8379
 7133TIP3    H142814   5.503   4.383   0.150  1.2286 -0.6555 -0.3344
 7133TIP3    H242815   5.638   4.395   0.083  0.3713  0.0614 -1.9778
 7134TIP3   OH242816   3.847   1.145  13.607  0.0157  0.3563 -0.4460
 7134TIP3    H142817   3.804   1.143  13.521 -1.2114 -2.1309  0.1240
 7134TIP3    H242818   3.934   1.109  13.591 -0.0946  0.1988 -0.7006
 7135TIP3   OH242819   3.457   3.606  14.124  0.3068 -0.2745  0.2711
 7135TIP3    H142820   3.527   3.652  14.170 -0.5067  1.0917  0.2158
 7135TIP3    H242821   3.499   3.565  14.049  1.2147 -0.3481  0.8091
 7136TIP3   OH242822   3.245   3.879  16.286  0.5657 -0.4133  0.1353
 7136TIP3    H142823   3.199   3.957  16.254  0.9584 -0.7128 -1.2099
 7136TIP3    H242824   3.331   3.911  16.312 -0.1708  0.0610  2.1974
 7137TIP3   OH242825   4.199   5.566  10.500 -0.2475 -0.2613 -0.1285
 7137TIP3    H142826   4.281   5.612  10.520  1.2320 -2.3441 -0.9289
 7137TIP3    H242827   4.150   5.626  10.445  2.4251 -0.1989 -2.7174
 7138TIP3   OH242828   4.229   3.748  15.138  0.6523  0.2307  0.5303
 7138TIP3    H142829   4.186   3.826  15.104  0.0611 -0.0685  0.5790
 7138TIP3    H242830   4.280   3.779  15.213 -0.9135  0.3267  1.6158
 7139TIP3   OH242831   6.542   3.433  16.363  0.1345 -0.3284 -0.3772
 7139TIP3    H142832   6.502   3.381  16.293 -1.3130  0.6215 -0.3118
 7139TIP3    H242833   6.598   3.496  16.318  1.7938 -1.8002 -0.4612
 7140TIP3   OH242834   4.966   6.072  16.852  0.1410 -0.4278 -0.2432
 7140TIP3    H142835   4.885   6.053  16.805 -0.2840 -1.0699  0.7251
 7140TIP3    H242836   4.961   6.166  16.871  0.1572 -0.2314 -1.1500
 7141TIP3   OH242837   4.451   6.417  16.465  0.0736 -0.5973 -0.3901
 7141TIP3    H142838   4.367   6.417  16.419 -1.3404 -0.4789  2.0000
 7141TIP3    H242839   4.463   6.326  16.493 -0.1626 -0.2897  0.7604
 7142TIP3   OH242840   5.578   5.009   3.760  0.1664 -0.1356 -0.0501
 7142TIP3    H142841   5.500   5.054   3.790  0.7558 -0.3906  2.0069
 7142TIP3    H242842   5.617   5.068   3.696 -0.7788  0.7878  0.2035
 7143TIP3   OH242843   2.454   3.861  13.188  0.0927  0.0374 -0.0321
 7143TIP3    H142844   2.523   3.807  13.226  1.3002  1.0888 -0.6766
 7143TIP3    H242845   2.465   3.852  13.094 -0.9296 -0.1073 -0.1491
 7144TIP3   OH242846   3.600   1.927   4.611  0.9436  0.2449 -0.4378
 7144TIP3    H142847   3.606   1.836   4.639 -0.6036 -0.2424 -1.5282
 7144TIP3    H242848   3.507   1.941   4.595  0.9339  2.4991  1.1218
 7145TIP3   OH242849   2.177   2.409   4.924  0.4080  0.7650 -0.0244
 7145TIP3    H142850   2.086   2.439   4.925  0.0845 -0.1112 -1.1448
 7145TIP3    H242851   2.214   2.441   5.007 -1.3786 -0.2354  1.2269
 7146TIP3   OH242852   2.462   4.365  16.990  0.0781  0.6115  0.2397
 7146TIP3    H142853   2.497   4.451  17.013 -0.6093  0.9426  0.0810
 7146TIP3    H242854   2.426   4.376  16.902  0.1828  0.1030  0.1270
 7147TIP3   OH242855   3.837   4.335   0.463  0.0729  0.0104 -0.4759
 7147TIP3    H142856   3.896   4.407   0.442  0.2920 -0.2704 -0.8445
 7147TIP3    H242857   3.753   4.360   0.425 -0.8395  1.6913  2.3818
 7148TIP3   OH242858   2.831   0.230   4.863  0.4579 -0.9534 -0.0952
 7148TIP3    H142859   2.771   0.281   4.809 -0.0086  0.1431  1.3827
 7148TIP3    H242860   2.907   0.214   4.807 -0.6424 -1.2264 -1.5648
 7149TIP3   OH242861   3.871   6.368   1.625  0.0350 -0.6167 -0.4881
 7149TIP3    H142862   3.805   6.350   1.692 -0.9838  2.7092 -0.4172
 7149TIP3    H242863   3.830   6.339   1.543 -0.2706 -1.2721 -0.1124
 7150TIP3   OH242864   6.590   3.655  16.556 -0.2461  0.7921 -0.5306
 7150TIP3    H142865   6.570   3.613  16.473 -0.9403 -0.2329  0.1349
 7150TIP3    H242866   6.519   3.630  16.614 -0.1183  2.0259  0.2114
 7151TIP3   OH242867   1.083   0.349  12.435  0.5324  0.0370  0.1208
 7151TIP3    H142868   1.172   0.368  12.465  0.7500 -1.2182  0.3247
 7151TIP3    H242869   1.092   0.272  12.378 -0.6024 -1.2137  1.5240
 7152TIP3   OH242870   6.619   3.014   0.648 -0.0294  0.0452 -0.3898
 7152TIP3    H142871   6.689   3.076   0.625  1.6459 -1.1648  1.1769
 7152TIP3    H242872   6.649   2.930   0.611 -1.7220 -0.1174 -1.5109
 7153TIP3   OH242873   2.633   4.975   3.089  0.1153 -0.1830  0.9727
 7153TIP3    H142874   2.689   5.036   3.137 -1.6234  4.4106 -2.1925
 7153TIP3    H242875   2.552   4.973   3.139 -0.3962  1.5586  0.2583
 7154TIP3   OH242876   5.919   5.759   4.448 -0.3917  0.0860 -0.2167
 7154TIP3    H142877   5.907   5.686   4.388  0.0857 -1.4500  1.4879
 7154TIP3    H242878   5.831   5.780   4.479 -0.4273 -0.4336  0.0388
 7155TIP3   OH242879   1.026   6.135   0.121 -0.0432 -0.5332 -0.2992
 7155TIP3    H142880   0.955   6.075   0.147  0.4002 -0.9459 -0.0132
 7155TIP3    H242881   1.065   6.093   0.044 -1.3344  0.6743 -1.6727
 7156TIP3   OH242882   0.551   1.514  14.199 -0.0291 -0.7586 -0.1630
 7156TIP3    H142883   0.612   1.443  14.218  1.4261  0.4558 -0.0507
 7156TIP3    H242884   0.466   1.484  14.232  0.2881 -2.8796 -1.1617
 7157TIP3   OH242885   4.900   4.918   3.141  0.4583 -0.1179  0.8544
 7157TIP3    H142886   4.815   4.875   3.138  1.2274 -1.6455 -0.1759
 7157TIP3    H242887   4.881   5.008   3.168 -1.3469 -0.7224  1.6693
 7158TIP3   OH242888   2.053   6.104  13.557 -0.7178 -0.7497  0.3502
 7158TIP3    H142889   2.097   6.022  13.580 -1.6930 -1.7363 -1.1283
 7158TIP3    H242890   2.116   6.149  13.500 -1.0910 -1.6013 -0.7767
 7159TIP3   OH242891   0.902   3.545  11.369  0.0302  0.0046  0.6078
 7159TIP3    H142892   0.901   3.612  11.438  1.8542 -0.8100  1.4865
 7159TIP3    H242893   0.948   3.587  11.296 -2.3951  1.0671 -0.4171
 7160TIP3   OH242894   5.185   5.414  12.932  0.4047 -0.2476  0.2588
 7160TIP3    H142895   5.126   5.473  12.979 -1.5321 -1.4182 -0.5637
 7160TIP3    H242896   5.152   5.415  12.842  0.8795 -1.8818  0.0444
 7161TIP3   OH242897   4.627   4.381  11.524 -0.0460 -0.4275 -0.1847
 7161TIP3    H142898   4.697   4.316  11.521 -0.9058 -1.4057  0.5358
 7161TIP3    H242899   4.560   4.347  11.465  0.6661  1.2514 -2.0634
 7162TIP3   OH242900   2.493   6.169  14.256 -0.8531 -0.7514 -0.0780
 7162TIP3    H142901   2.477   6.095  14.198 -1.8520  0.4942 -1.4840
 7162TIP3    H242902   2.406   6.201  14.279 -0.4414 -0.0500  0.5562
 7163TIP3   OH242903   5.934   0.576  10.844  0.2078 -0.3034 -0.7638
 7163TIP3    H142904   5.993   0.615  10.779 -0.1166 -0.4143 -1.1296
 7163TIP3    H242905   5.961   0.484  10.850  0.3217 -0.2623 -0.6456
 7164TIP3   OH242906   5.430   0.348  10.432 -0.5927 -0.5492  0.4483
 7164TIP3    H142907   5.427   0.308  10.346 -2.6823  0.0531  0.1831
 7164TIP3    H242908   5.519   0.332  10.463  0.3325 -0.4541 -1.9504
 7165TIP3   OH242909   2.483   4.370  17.282 -0.2325 -0.1495 -0.1557
 7165TIP3    H142910   2.422   4.326  17.342  1.2108  0.3596  1.7612
 7165TIP3    H242911   2.426   4.415  17.220 -1.7819 -0.8691  0.6808
 7166TIP3   OH242912   1.360   1.950  13.828  0.4557 -0.1700  0.1230
 7166TIP3    H142913   1.443   1.997  13.821 -0.5410  1.8276  1.0963
 7166TIP3    H242914   1.336   1.957  13.920  0.1310 -2.4663  0.2834
 7167TIP3   OH242915   2.557   1.105  12.187 -0.0185  0.1545  0.0799
 7167TIP3    H142916   2.543   1.181  12.243 -0.0159  0.0228  0.2604
 7167TIP3    H242917   2.476   1.099  12.135  0.3079  0.7589 -0.5152
 7168TIP3   OH242918   5.952   3.093   3.321 -0.5643  0.2502 -0.1295
 7168TIP3    H142919   5.861   3.067   3.339 -2.3060  2.9289 -3.6370
 7168TIP3    H242920   5.982   3.027   3.258 -0.5214  0.0509  0.0974
 7169TIP3   OH242921   5.674   2.289   2.498  0.9022  0.2672  0.6873
 7169TIP3    H142922   5.646   2.361   2.554  0.1347 -0.9803  1.9737
 7169TIP3    H242923   5.759   2.263   2.534  0.4151 -0.5257  1.3156
 7170TIP3   OH242924   0.756   5.544  12.081  0.8296  0.0477  0.2839
 7170TIP3    H142925   0.680   5.587  12.043 -0.2173 -0.3228  1.8394
 7170TIP3    H242926   0.744   5.554  12.176  2.2900 -0.7439  0.5850
 7171TIP3   OH242927   4.737   0.908   5.962 -0.0796  0.3959 -0.3517
 7171TIP3    H142928   4.821   0.907   6.008  0.2857  2.6037 -0.8560
 7171TIP3    H242929   4.745   0.979   5.899 -1.7255 -0.4816 -1.6392
 7172TIP3   OH242930   5.089   4.197  12.287 -1.0595 -0.7283 -0.2474
 7172TIP3    H142931   5.066   4.121  12.234  0.1819 -0.0342 -1.8720
 7172TIP3    H242932   5.034   4.190  12.365 -2.8467 -1.8635 -1.5525
 7173TIP3   OH242933   3.538   6.375  15.973  0.1415 -0.5827 -0.1700
 7173TIP3    H142934   3.584   6.452  16.008  1.8111 -0.8262 -1.7001
 7173TIP3    H242935   3.533   6.390  15.879  2.7829 -3.3980 -0.9179
 7174TIP3   OH242936   1.862   0.095   1.599  0.9151  0.1900 -0.3060
 7174TIP3    H142937   1.799   0.150   1.645  0.7365 -0.9172  0.8286
 7174TIP3    H242938   1.818   0.071   1.517  0.6333  0.9569 -0.3883
 7175TIP3   OH242939   6.110   0.010   0.580 -0.5100 -0.2108  0.3229
 7175TIP3    H142940   6.051   0.062   0.635 -1.0783 -1.3337  0.8195
 7175TIP3    H242941   6.146  -0.055   0.640  0.7258  0.0364 -0.1297
 7176TIP3   OH242942   0.662   6.535   5.548 -0.3649  0.1972 -0.1038
 7176TIP3    H142943   0.746   6.577   5.570  0.2685  0.0386 -2.0070
 7176TIP3    H242944   0.602   6.566   5.615  1.2911  0.0284  1.5498
 7177TIP3   OH242945   6.333   4.679   1.533 -0.3699  0.3823 -0.2443
 7177TIP3    H142946   6.397   4.724   1.477  0.2464 -0.1379  0.0404
 7177TIP3    H242947   6.368   4.689   1.621 -0.5000 -0.2181 -0.1259
 7178TIP3   OH242948   4.106   4.002  15.043  0.4586  0.0232  0.1895
 7178TIP3    H142949   4.158   4.001  14.963 -2.1078 -0.3166 -1.6179
 7178TIP3    H242950   4.129   4.084  15.086  0.4706  1.2388 -1.9820
 7179TIP3   OH242951   3.616   5.673   1.905  0.1746 -0.2575  0.4184
 7179TIP3    H142952   3.628   5.625   1.987 -1.8709  0.1645  1.0167
 7179TIP3    H242953   3.603   5.605   1.839 -1.1799 -0.5918  0.9937
 7180TIP3   OH242954   2.153   3.035   4.782  0.5236 -0.2614  0.7951
 7180TIP3    H142955   2.139   3.067   4.871  2.2956  0.1370  0.9570
 7180TIP3    H242956   2.136   2.941   4.788 -0.8235 -0.0210  1.1893
 7181TIP3   OH242957   3.478   5.405  11.091 -0.7654  0.4310 -0.2286
 7181TIP3    H142958   3.520   5.367  11.014 -2.0785 -0.2820 -0.6209
 7181TIP3    H242959   3.417   5.469  11.055 -1.7800 -0.2908  0.1619
 7182TIP3   OH242960   3.046   6.132   0.014 -0.4235  0.3016 -0.7434
 7182TIP3    H142961   3.137   6.154   0.036 -0.7344  1.7896 -0.8490
 7182TIP3    H242962   3.050   6.042  -0.017  0.5779 -0.7558  2.1035
 7183TIP3   OH242963   3.680   4.305   1.581 -0.2081  0.5993 -0.1357
 7183TIP3    H142964   3.704   4.329   1.670  1.1714 -0.3549 -0.2144
 7183TIP3    H242965   3.584   4.299   1.582 -0.2355  0.9823  1.1575
 7184TIP3   OH242966   2.367   4.923  10.571 -0.3041 -0.2925 -0.2708
 7184TIP3    H142967   2.412   4.838  10.570  5.0752  1.8913  3.7444
 7184TIP3    H242968   2.330   4.929  10.659 -0.0394  1.7064 -0.2594
 7185TIP3   OH242969   2.137   3.117   5.976  0.1733 -0.0360  0.1053
 7185TIP3    H142970   2.186   3.035   5.986 -0.5256 -0.5086 -0.2775
 7185TIP3    H242971   2.196   3.184   6.010  1.1062 -0.5841 -0.3904
 7186TIP3   OH242972   1.245   1.986   2.026 -0.2649 -0.6316  0.5450
 7186TIP3    H142973   1.304   2.042   2.076 -0.8182  0.4667  0.0031
 7186TIP3    H242974   1.275   1.995   1.936 -2.3053  1.3940 -0.0207
 7187TIP3   OH242975   5.025   4.403   3.641 -0.1147  0.0331  0.7368
 7187TIP3    H142976   5.039   4.441   3.728 -1.2363  0.3561  0.7877
 7187TIP3    H242977   5.085   4.452   3.584  0.8665 -0.3986  1.3578
 7188TIP3   OH242978   0.292   1.421  13.896 -0.4258  0.2699  0.0268
 7188TIP3    H142979   0.273   1.512  13.877 -0.4342  0.1516 -0.5243
 7188TIP3    H242980   0.316   1.382  13.812 -4.0594 -1.1749 -0.5308
 7189TIP3   OH242981   5.666   0.979  16.963 -0.1001 -0.3360 -0.0978
 7189TIP3    H142982   5.746   0.927  16.969  0.2796  0.1814 -0.5342
 7189TIP3    H242983   5.606   0.938  17.025  0.3030 -1.0839 -0.1875
 7190TIP3   OH242984   5.262   4.723  10.523 -0.4087 -0.0176  0.1098
 7190TIP3    H142985   5.293   4.809  10.496  0.1229 -0.3626 -0.3820
 7190TIP3    H242986   5.168   4.735  10.537 -0.6652  0.2587 -1.5971
 7191TIP3   OH242987   0.292   3.051   2.735  0.9487  0.1767  0.3629
 7191TIP3    H142988   0.343   3.046   2.654 -1.7335  0.7929 -1.5219
 7191TIP3    H242989   0.207   3.084   2.707 -0.5047 -0.7696  3.2847
 7192TIP3   OH242990   1.191   4.975  12.630  0.3318  0.0787 -0.0850
 7192TIP3    H142991   1.226   5.063  12.642  0.5288 -0.0899  0.6412
 7192TIP3    H242992   1.211   4.953  12.539  1.1110  0.4209 -0.0009
 7193TIP3   OH242993   6.043   1.472  13.638  0.2086  0.3787  0.0487
 7193TIP3    H142994   5.981   1.408  13.603 -1.1616  1.4851  0.3942
 7193TIP3    H242995   6.034   1.548  13.581  1.8468  0.3032 -0.3767
 7194TIP3   OH242996   4.529   4.301  16.943 -0.1565  0.1776 -0.0586
 7194TIP3    H142997   4.478   4.250  16.878 -0.1822 -1.2840  1.0489
 7194TIP3    H242998   4.608   4.248  16.957 -1.0888 -0.6548  2.6005
 7195TIP3   OH242999   6.360   6.728  15.057 -0.3445 -0.1965  0.0590
 7195TIP3    H143000   6.341   6.820  15.072 -0.8230  0.0052 -1.6393
 7195TIP3    H243001   6.360   6.689  15.145  0.3712  1.4948  0.8383
 7196TIP3   OH243002   0.697   5.679  14.250  0.6993 -0.0017  0.5240
 7196TIP3    H143003   0.673   5.740  14.180 -0.6124 -0.9473  0.1013
 7196TIP3    H243004   0.629   5.612  14.247  0.6035 -0.0722  2.7285
 7197TIP3   OH243005   3.553   6.497   2.940  0.0316  0.3392  0.3544
 7197TIP3    H143006   3.586   6.562   2.878  0.7012  0.3267  0.6872
 7197TIP3    H243007   3.461   6.488   2.918  0.8064 -1.8305 -2.5680
 7198TIP3   OH243008   0.688   1.252  14.885  0.2942  0.4122  0.5721
 7198TIP3    H143009   0.599   1.220  14.869  0.5884  0.7433 -2.2157
 7198TIP3    H243010   0.677   1.320  14.952 -1.2128 -0.9054  1.7566
 7199TIP3   OH243011   4.647   0.538  14.487  0.3978 -0.6169  0.5118
 7199TIP3    H143012   4.568   0.485  14.473 -0.1213  0.3104 -0.1246
 7199TIP3    H243013   4.636   0.574  14.575 -1.5968  2.2414 -0.7567
 7200TIP3   OH243014   5.655   2.696   3.450  0.0851  0.0404  0.5414
 7200TIP3    H143015   5.629   2.610   3.416  0.2421  0.2478 -0.1188
 7200TIP3    H243016   5.750   2.690   3.462  0.4134  0.7311 -1.3732
 7201TIP3   OH243017   6.398   1.586  14.460 -0.2698 -0.5183 -0.1795
 7201TIP3    H143018   6.428   1.515  14.404  1.7045 -0.5659  0.8389
 7201TIP3    H243019   6.355   1.648  14.401 -0.3671 -1.6624 -1.3506
 7202TIP3   OH243020   6.407   2.282  10.366  0.1073 -0.4106 -0.4140
 7202TIP3    H143021   6.354   2.259  10.442  2.0036 -1.5556  0.6571
 7202TIP3    H243022   6.386   2.373  10.347 -0.7190 -0.2424  1.2288
 7203TIP3   OH243023   0.520   3.885   3.607  0.5205 -0.6498  0.9538
 7203TIP3    H143024   0.488   3.878   3.517  1.6077 -0.8769  0.5779
 7203TIP3    H243025   0.513   3.797   3.642 -0.8436 -0.3759  1.4399
 7204TIP3   OH243026   4.530   5.383   2.290 -0.4997  1.2064 -0.4461
 7204TIP3    H143027   4.560   5.391   2.199  1.8848  1.3072  0.2735
 7204TIP3    H243028   4.528   5.473   2.323  2.6325  0.9712  0.6902
 7205TIP3   OH243029   2.456   5.107  15.326 -0.5534  0.3746 -0.0734
 7205TIP3    H143030   2.474   5.150  15.410  1.1235 -1.7220  0.7171
 7205TIP3    H243031   2.410   5.026  15.350 -0.5632  0.0268 -1.2304
 7206TIP3   OH243032   6.050   0.610  12.656  0.1505 -0.0061  0.0331
 7206TIP3    H143033   5.980   0.657  12.701  0.6542 -1.5815  2.7243
 7206TIP3    H243034   6.059   0.654  12.572 -4.3241  0.0393 -0.6685
 7207TIP3   OH243035   0.017   4.829  12.621 -0.3208  0.6946 -0.1606
 7207TIP3    H143036   0.106   4.794  12.632 -0.3110  0.6778 -0.2971
 7207TIP3    H243037   0.029   4.907  12.567 -0.3139  1.0381  0.3274
 7208TIP3   OH243038   3.628   1.209  13.419 -0.0585 -0.2379 -0.1974
 7208TIP3    H143039   3.583   1.146  13.474 -0.6462  0.2571 -0.1061
 7208TIP3    H243040   3.685   1.156  13.364 -0.0761 -0.7965  0.3161
 7209TIP3   OH243041   0.896   0.095   1.637  0.0255 -0.2398  0.3784
 7209TIP3    H143042   0.860   0.177   1.603 -1.2501 -1.9029 -2.6525
 7209TIP3    H243043   0.991   0.108   1.633 -0.1430  1.1857  0.3181
 7210TIP3   OH243044   0.642   6.573  13.974  0.5434  0.0754  0.1979
 7210TIP3    H143045   0.609   6.589  14.062 -0.2170  2.0653 -0.3912
 7210TIP3    H243046   0.668   6.660  13.942 -0.6174 -0.3487 -2.0771
 7211TIP3   OH243047   3.753   6.420   3.099  0.3691  0.4456  0.4598
 7211TIP3    H143048   3.835   6.453   3.063  1.4543 -1.0685  1.4181
 7211TIP3    H243049   3.685   6.459   3.044  1.8139  0.1999 -1.6106
 7212TIP3   OH243050   1.550   1.086   4.527  0.6567  0.3103  0.4183
 7212TIP3    H143051   1.564   1.082   4.622  0.5002 -1.1164  0.4091
 7212TIP3    H243052   1.600   1.162   4.498 -0.9470  2.0588  1.9157
 7213TIP3   OH243053   1.494   3.756  14.722  0.2609 -0.1008  0.0987
 7213TIP3    H143054   1.432   3.692  14.686  1.7766 -1.0110 -1.0629
 7213TIP3    H243055   1.514   3.723  14.810 -1.1374  0.4046  0.6233
 7214TIP3   OH243056   6.729   1.093  13.646  0.8747  0.0311  0.1346
 7214TIP3    H143057   6.668   1.021  13.631  0.6890  0.3339 -0.6058
 7214TIP3    H243058   6.681   1.171  13.619  1.1766  0.4031  0.6607
 7215TIP3   OH243059   3.908   2.187  10.845  0.4392  0.2000 -0.1418
 7215TIP3    H143060   3.817   2.190  10.875  0.7551 -0.1645  0.8786
 7215TIP3    H243061   3.919   2.267  10.793 -0.9314 -0.5356 -1.6728
 7216TIP3   OH243062   2.049   4.855   2.382  0.0062  0.0330  0.3412
 7216TIP3    H143063   1.979   4.800   2.417 -0.1640 -0.8838 -1.3298
 7216TIP3    H243064   2.006   4.908   2.315  0.1336  2.4133  2.0378
 7217TIP3   OH243065   3.457   5.403   1.622 -0.2188 -0.1824 -0.3595
 7217TIP3    H143066   3.506   5.364   1.549  0.9090  0.0104  0.2755
 7217TIP3    H243067   3.371   5.422   1.585 -0.2364 -1.6556 -1.1709
 7218TIP3   OH243068   2.236   0.395   3.088 -0.5522 -0.3349  0.5023
 7218TIP3    H143069   2.211   0.473   3.139 -0.9807  0.0073 -0.2048
 7218TIP3    H243070   2.330   0.388   3.099 -0.5497  0.1224  0.8097
 7219TIP3   OH243071   5.549   3.452   0.932 -0.1669  0.0249  0.2010
 7219TIP3    H143072   5.488   3.517   0.968  0.5319  0.5601  0.4382
 7219TIP3    H243073   5.572   3.397   1.007 -2.3816 -1.8621 -0.3955
 7220TIP3   OH243074   2.347   0.567   6.349  0.1850  0.0629 -0.2538
 7220TIP3    H143075   2.322   0.657   6.370  0.3015 -0.2445  1.3588
 7220TIP3    H243076   2.290   0.542   6.276 -1.0294  0.8764  0.3848
 7221TIP3   OH243077   5.466   3.014   1.684 -0.5494 -0.8643 -0.1749
 7221TIP3    H143078   5.409   3.090   1.672  1.9666  1.2342  0.3998
 7221TIP3    H243079   5.518   3.010   1.604 -0.3314 -1.7385 -0.0058
 7222TIP3   OH243080   0.048   6.044   3.929 -0.0202  0.0331 -0.9287
 7222TIP3    H143081  -0.014   6.063   3.859 -1.0732  0.1904  0.0213
 7222TIP3    H243082   0.084   5.958   3.906 -0.6235 -0.0821 -1.4820
 7223TIP3   OH243083   4.952   2.474  14.408 -0.4872 -0.2963 -0.3210
 7223TIP3    H143084   5.007   2.527  14.351 -0.5890  0.6166  0.3948
 7223TIP3    H243085   4.925   2.534  14.478  0.4297 -1.5844  1.2269
 7224TIP3   OH243086   1.970   1.675   1.834  0.3308 -0.3246 -0.2327
 7224TIP3    H143087   1.951   1.594   1.881 -0.0885  0.6082  1.2785
 7224TIP3    H243088   1.890   1.727   1.844  1.3093  1.0768  0.6162
 7225TIP3   OH243089   4.613   0.701   5.232  0.1690 -0.0244  0.2821
 7225TIP3    H143090   4.638   0.793   5.245  1.3015 -0.5644  2.3800
 7225TIP3    H243091   4.631   0.659   5.316 -1.3465 -1.9723 -0.2857
 7226TIP3   OH243092   0.629   2.091   2.514  0.3292 -0.8798  0.3118
 7226TIP3    H143093   0.624   2.175   2.469 -1.2354 -1.1219 -0.0172
 7226TIP3    H243094   0.594   2.028   2.452  3.1115 -2.1472 -0.1564
 7227TIP3   OH243095   6.734   2.158  12.487 -0.1052 -0.0367 -0.1639
 7227TIP3    H143096   6.799   2.206  12.539 -1.4369  1.9896 -0.2863
 7227TIP3    H243097   6.660   2.217  12.480 -0.8445 -1.1160 -2.5182
 7228TIP3   OH243098   5.980   6.748   3.961  0.2172  0.4085 -0.4150
 7228TIP3    H143099   6.023   6.687   3.902  1.3686  1.4459 -0.6829
 7228TIP3    H243100   5.989   6.708   4.048  0.7063  0.0617 -0.6202
 7229TIP3   OH243101   3.123   2.581  14.613  0.1107 -0.0974  0.4942
 7229TIP3    H143102   3.142   2.529  14.692  1.5634  0.6637  0.6784
 7229TIP3    H243103   3.152   2.669  14.635 -0.1078  0.2696 -0.6554
 7230TIP3   OH243104   3.585   5.074  11.383  0.4264  0.1721  0.0559
 7230TIP3    H143105   3.502   5.069  11.335 -0.4053 -3.4601  1.5305
 7230TIP3    H243106   3.652   5.070  11.316 -0.6632 -0.4214 -1.0400
 7231TIP3   OH243107   1.899   2.017   5.501 -1.0142  0.2415 -0.6321
 7231TIP3    H143108   1.928   2.012   5.592  1.8604 -0.3881 -1.4761
 7231TIP3    H243109   1.860   2.104   5.493 -1.8908  0.0870  1.3180
 7232TIP3   OH243110   1.447   3.480  11.272 -0.1929 -0.1701 -0.2266
 7232TIP3    H143111   1.500   3.504  11.196  0.2730 -0.8560 -0.1200
 7232TIP3    H243112   1.459   3.553  11.333  0.7304 -0.3756 -0.1525
 7233TIP3   OH243113   3.009   3.561  13.470 -0.3242 -0.2745 -0.5757
 7233TIP3    H143114   3.054   3.523  13.395  0.2443 -0.7980  0.0087
 7233TIP3    H243115   3.033   3.504  13.543 -0.8305  0.2448  0.0086
 7234TIP3   OH243116   6.316   0.856   1.434  0.5493  0.8303  0.2724
 7234TIP3    H143117   6.246   0.918   1.455  0.2856  0.9842 -0.9645
 7234TIP3    H243118   6.286   0.773   1.472 -0.1411  0.9775  0.0725
 7235TIP3   OH243119   2.351   1.565   1.084  0.0739 -0.5348  0.4683
 7235TIP3    H143120   2.440   1.583   1.114  0.4257 -0.5253 -0.5248
 7235TIP3    H243121   2.348   1.602   0.996 -0.4698 -1.7289 -0.0456
 7236TIP3   OH243122   1.442   1.992   6.504  0.2644 -0.2653  0.0636
 7236TIP3    H143123   1.447   2.073   6.554  0.9228 -0.4717  0.3455
 7236TIP3    H243124   1.367   2.004   6.446  0.5760  0.6973 -0.1640
 7237TIP3   OH243125   0.626   6.522  15.911 -0.2601  0.1522  0.0137
 7237TIP3    H143126   0.613   6.578  15.834  2.2413  0.0790 -0.5541
 7237TIP3    H243127   0.584   6.439  15.887 -2.7348  1.2530  0.2829
 7238TIP3   OH243128   6.501   5.599   5.505  0.2122 -0.4267  0.9359
 7238TIP3    H143129   6.540   5.636   5.426  2.7884  1.0130  2.7314
 7238TIP3    H243130   6.474   5.511   5.480  3.6677 -1.1441 -0.8267
 7239TIP3   OH243131   5.500   1.496  13.537  0.2000 -0.1536  0.2967
 7239TIP3    H143132   5.571   1.452  13.585 -1.8533 -1.5861  2.2031
 7239TIP3    H243133   5.441   1.425  13.511 -0.4994  0.9836 -1.3902
 7240TIP3   OH243134   4.916   0.191   2.623  0.4196  0.0148  0.2163
 7240TIP3    H143135   4.913   0.167   2.530  1.3783  0.4940  0.0468
 7240TIP3    H243136   5.002   0.231   2.634 -0.0996  0.9335  1.0740
 7241TIP3   OH243137   6.635   5.860   3.442 -0.1703 -0.0128 -0.6025
 7241TIP3    H143138   6.567   5.817   3.391 -0.8632  1.1448 -0.6842
 7241TIP3    H243139   6.717   5.831   3.402 -0.5699 -1.8342 -0.1707
 7242TIP3   OH243140   2.275   6.205  16.913  0.1446 -0.0267 -0.1222
 7242TIP3    H143141   2.298   6.112  16.922 -0.8450 -0.3804 -1.0499
 7242TIP3    H243142   2.235   6.228  16.997 -1.6454 -1.0716 -0.6456
 7243TIP3   OH243143   4.738   3.938   3.610 -0.1563  0.2272 -0.1857
 7243TIP3    H143144   4.666   3.967   3.554  0.4305  0.2511 -0.9443
 7243TIP3    H243145   4.726   3.844   3.618 -1.1908  0.4375  1.0299
 7244TIP3   OH243146   1.091   6.569   2.203  0.5265  0.2819 -0.3548
 7244TIP3    H143147   0.997   6.577   2.190  0.5905  0.3852 -0.7769
 7244TIP3    H243148   1.117   6.651   2.245  0.4686  0.3703 -0.4895
 7245TIP3   OH243149   3.181   5.806   1.621 -0.1305  0.0829  0.2084
 7245TIP3    H143150   3.162   5.718   1.590 -1.5852 -0.0851  1.4638
 7245TIP3    H243151   3.132   5.863   1.561 -0.6915 -0.0821  0.5000
 7246TIP3   OH243152   0.652   2.868  16.161  0.0570  0.2601  0.6611
 7246TIP3    H143153   0.657   2.804  16.090  0.3696 -0.2452  1.1357
 7246TIP3    H243154   0.739   2.908  16.163 -0.3949  1.3276 -0.2032
 7247TIP3   OH243155   1.086   0.240   0.165 -0.2182 -0.1769 -0.1035
 7247TIP3    H143156   1.052   0.153   0.146  0.1445 -0.9497  2.4522
 7247TIP3    H243157   1.175   0.226   0.196  0.4398  1.2955 -1.1568
 7248TIP3   OH243158   4.292   6.076  10.889 -0.0032  0.5159 -0.4689
 7248TIP3    H143159   4.214   6.023  10.906  0.9227  0.0131  2.8477
 7248TIP3    H243160   4.332   6.035  10.813 -2.0365 -0.2831 -1.1862
 7249TIP3   OH243161   4.919   4.055   3.810  0.5208 -0.9080 -0.7149
 7249TIP3    H143162   4.905   3.972   3.856 -0.9822 -0.0725  0.4256
 7249TIP3    H243163   4.858   4.052   3.737 -2.2475  0.5883  1.3449
 7250TIP3   OH243164   0.476   5.518  11.353 -0.0237 -0.4691  0.1140
 7250TIP3    H143165   0.419   5.463  11.405 -0.5541 -0.0552 -0.0195
 7250TIP3    H243166   0.490   5.469  11.272 -0.1202 -0.6105  0.1827
 7251TIP3   OH243167   2.659   3.833  15.830  0.1727 -0.5420  0.3103
 7251TIP3    H143168   2.742   3.799  15.796  0.4211  0.1205  0.2527
 7251TIP3    H243169   2.632   3.767  15.895  0.5861 -0.9134  0.1157
 7252TIP3   OH243170   0.091   1.875  11.577  0.0864 -0.2448  0.5622
 7252TIP3    H143171   0.027   1.843  11.513  1.6181  0.3975 -1.4002
 7252TIP3    H243172   0.058   1.962  11.602  0.0606  0.0009 -0.2788
 7253TIP3   OH243173   2.269   2.882  14.415  0.2390  0.0250  0.4460
 7253TIP3    H143174   2.256   2.921  14.501  0.8627  0.7889  0.2024
 7253TIP3    H243175   2.362   2.859  14.413  0.1822 -0.1830  0.0515
 7254TIP3   OH243176   4.099   3.454  12.534  0.0282  0.1271  0.4807
 7254TIP3    H143177   4.018   3.451  12.483  1.4110  3.4720 -2.2831
 7254TIP3    H243178   4.102   3.543  12.570  1.8357 -0.3701  1.7216
 7255TIP3   OH243179   0.074   3.153   1.129  0.4239 -0.0322  0.0182
 7255TIP3    H143180   0.128   3.091   1.178  0.6634 -0.2495 -0.5139
 7255TIP3    H243181   0.091   3.237   1.171 -0.4919 -0.4367  1.2364
 7256TIP3   OH243182   4.008   3.240  13.616  1.0189  0.0737  0.1564
 7256TIP3    H143183   3.983   3.173  13.679 -0.9415  0.0451 -0.5788
 7256TIP3    H243184   4.045   3.310  13.669  2.4889 -1.2705  0.9986
 7257TIP3   OH243185   3.534   3.975   4.086  0.0308  0.0910  0.7038
 7257TIP3    H143186   3.449   3.995   4.048 -0.3474 -0.0282  1.4722
 7257TIP3    H243187   3.550   3.884   4.063 -0.6868 -0.3006  1.7306
 7258TIP3   OH243188   6.049   2.763  14.903  0.6609 -0.4051 -0.2607
 7258TIP3    H143189   6.054   2.847  14.856  1.3474  0.7378  1.7363
 7258TIP3    H243190   5.980   2.715  14.858  0.2913  1.2019 -1.5203
 7259TIP3   OH243191   2.322   2.349  14.844 -0.0393  0.3058 -0.0050
 7259TIP3    H143192   2.294   2.313  14.761  0.9097  0.0087 -0.2050
 7259TIP3    H243193   2.296   2.441  14.840 -0.1916  0.2424 -0.5388
 7260TIP3   OH243194   1.651   6.552   4.206  0.4592  0.1130  0.1086
 7260TIP3    H143195   1.665   6.634   4.159 -1.2447  1.1398  1.2595
 7260TIP3    H243196   1.604   6.497   4.144  0.7401  0.3836 -0.3472
 7261TIP3   OH243197   1.075   0.080  15.478  0.2419 -0.0472 -0.6732
 7261TIP3    H143198   1.119   0.028  15.545 -1.0266  0.5065  0.6543
 7261TIP3    H243199   0.991   0.035  15.465 -0.4650  1.0920 -0.2130
 7262TIP3   OH243200   4.498   6.364   4.170 -0.6545 -0.2991 -0.0561
 7262TIP3    H143201   4.450   6.298   4.220 -1.1422  0.7531  0.9023
 7262TIP3    H243202   4.491   6.444   4.222  1.2215  0.1535 -0.4242
 7263TIP3   OH243203   4.069   5.538  17.231 -0.3148 -0.1119 -0.0071
 7263TIP3    H143204   4.002   5.596  17.269 -1.1994 -1.6003  0.8095
 7263TIP3    H243205   4.073   5.563  17.139 -1.4242  0.5590  0.1090
 7264TIP3   OH243206   4.420   5.330   0.903  1.1710 -0.4016 -0.3679
 7264TIP3    H143207   4.506   5.363   0.877  1.6275  0.3694  1.9276
 7264TIP3    H243208   4.360   5.366   0.837  2.2477  1.4037 -0.4376
 7265TIP3   OH243209   5.367   2.975   0.954 -0.0137 -0.5638 -0.1771
 7265TIP3    H143210   5.336   2.904   0.898 -0.3758 -0.7486  0.2465
 7265TIP3    H243211   5.376   3.050   0.896  1.7970 -1.3064 -0.9560
 7266TIP3   OH243212   0.437   0.216   5.836  0.3503  0.2970 -0.0194
 7266TIP3    H143213   0.406   0.130   5.808  0.6537  0.3840 -0.6477
 7266TIP3    H243214   0.482   0.199   5.919 -2.3910  0.3633  1.5985
 7267TIP3   OH243215   2.720   4.501  15.637 -0.2302  0.7950  0.0136
 7267TIP3    H143216   2.648   4.550  15.597  0.5232  0.7089 -1.5049
 7267TIP3    H243217   2.704   4.508  15.731 -2.1116  0.9438 -0.2773
 7268TIP3   OH243218   1.900   1.489   2.000 -0.1154  0.1742 -0.6258
 7268TIP3    H143219   1.811   1.471   2.030  0.2938  2.9227  2.8097
 7268TIP3    H243220   1.940   1.402   1.992 -2.5484 -1.0455 -0.5446
 7269TIP3   OH243221   0.708   3.918   1.822 -0.0159 -0.4290 -0.3612
 7269TIP3    H143222   0.687   3.976   1.749  0.0799  1.8195  1.3105
 7269TIP3    H243223   0.800   3.935   1.841 -0.1855 -0.5505  0.6240
 7270TIP3   OH243224   5.063   2.879   1.873  0.2051 -0.0863  0.6303
 7270TIP3    H143225   5.097   2.867   1.785 -1.5920 -0.4237 -0.0585
 7270TIP3    H243226   5.025   2.966   1.873 -1.1563 -0.6573  0.5719
 7271TIP3   OH243227   0.141   2.343  10.697  0.6063 -0.1977 -0.5946
 7271TIP3    H143228   0.126   2.298  10.781 -0.1149 -0.6870 -0.9758
 7271TIP3    H243229   0.150   2.435  10.721  0.9471 -0.3959  0.0801
 7272TIP3   OH243230   4.169   3.665  11.380 -0.1829 -0.2617 -0.4052
 7272TIP3    H143231   4.254   3.639  11.344  0.0956  0.6456 -0.4437
 7272TIP3    H243232   4.157   3.607  11.455  1.3934  0.8034  0.7573
 7273TIP3   OH243233   4.530   5.797   1.366 -0.3491 -0.2261  0.0790
 7273TIP3    H143234   4.587   5.732   1.325 -0.0621  0.2073 -0.2306
 7273TIP3    H243235   4.499   5.850   1.293 -0.4498  0.0806  0.3427
 7274TIP3   OH243236   4.590   5.842   4.995  0.1806 -0.2431  0.6242
 7274TIP3    H143237   4.681   5.865   5.013  0.7704 -1.7111 -0.3459
 7274TIP3    H243238   4.552   5.827   5.082  0.4984  1.5325  1.1207
 7275TIP3   OH243239   2.808   3.650   0.283 -0.0941 -0.3916 -0.1671
 7275TIP3    H143240   2.739   3.674   0.344  0.0629 -0.0991 -0.1030
 7275TIP3    H243241   2.849   3.733   0.258  1.6842 -0.6921  1.4953
 7276TIP3   OH243242   3.589   3.951  16.808  0.1112  0.7368 -0.6445
 7276TIP3    H143243   3.675   3.991  16.797 -0.2598  1.6202 -0.4164
 7276TIP3    H243244   3.573   3.955  16.902 -0.7266  1.7618 -0.8205
 7277TIP3   OH243245   2.728   2.800  14.755 -0.6872 -0.0291 -0.3007
 7277TIP3    H143246   2.675   2.851  14.817  0.4657 -0.5688  1.2163
 7277TIP3    H243247   2.818   2.811  14.787 -0.3816 -3.0569  0.1535
 7278TIP3   OH243248   2.579   4.555   6.710 -0.0618 -0.1328 -0.2770
 7278TIP3    H143249   2.515   4.568   6.780 -1.6252 -0.6894 -1.5549
 7278TIP3    H243250   2.558   4.470   6.673  1.2510 -0.2029 -0.9225
 7279TIP3   OH243251   3.900   5.076  10.965 -0.4260 -0.0356 -0.0787
 7279TIP3    H143252   3.898   5.052  10.872 -2.4375 -2.3260  0.4458
 7279TIP3    H243253   3.853   5.160  10.969 -1.3331 -0.4674 -1.0379
 7280TIP3   OH243254   6.260   5.161   2.935  0.1518  0.3591  0.0550
 7280TIP3    H143255   6.304   5.090   2.982  0.6534 -0.1253 -1.1148
 7280TIP3    H243256   6.291   5.153   2.845 -0.6863  1.3524 -0.3381
 7281TIP3   OH243257   3.115   1.229  16.866 -0.0155 -0.6991 -0.1021
 7281TIP3    H143258   3.045   1.195  16.922 -1.3411 -1.3548 -2.0447
 7281TIP3    H243259   3.154   1.151  16.827  0.1992 -0.2186 -0.8656
 7282TIP3   OH243260   5.685   5.200   6.542 -0.7807  0.0249  0.4551
 7282TIP3    H143261   5.617   5.260   6.573 -1.8301 -1.3286  0.8843
 7282TIP3    H243262   5.747   5.194   6.614 -0.9149  0.2413  0.5892
 7283TIP3   OH243263   1.240   1.051   4.113  0.5392  0.5400 -0.2456
 7283TIP3    H143264   1.201   1.037   4.200 -0.8453 -1.4242 -1.1264
 7283TIP3    H243265   1.264   0.964   4.083 -0.0609  1.0445 -2.3147
 7284TIP3   OH243266   1.833   4.750  15.878 -0.2654  0.1611 -0.5231
 7284TIP3    H143267   1.864   4.714  15.794 -1.5820 -2.2137 -0.0723
 7284TIP3    H243268   1.913   4.769  15.927  0.5094  0.6813 -1.9329
 7285TIP3   OH243269   4.425   1.089  14.768 -0.2691 -0.0538  0.5732
 7285TIP3    H143270   4.341   1.107  14.726 -0.3216  0.5172  0.9160
 7285TIP3    H243271   4.490   1.126  14.708 -0.3404  0.6986  0.9453
 7286TIP3   OH243272   6.472   6.387   1.556 -0.2587  0.0386 -1.0358
 7286TIP3    H143273   6.557   6.423   1.581 -0.0448 -1.0097 -0.1419
 7286TIP3    H243274   6.417   6.464   1.539 -0.1369  0.9014  1.8489
 7287TIP3   OH243275   5.296   1.791   4.048 -0.0998  0.4295 -0.3184
 7287TIP3    H143276   5.266   1.792   3.957 -1.0946 -2.2523 -0.0888
 7287TIP3    H243277   5.227   1.747   4.096  0.9965  0.6330  1.5439
 7288TIP3   OH243278   2.512   2.952  13.335 -0.1271  0.4111  0.4377
 7288TIP3    H143279   2.514   2.865  13.376 -2.2519 -0.0482 -0.3220
 7288TIP3    H243280   2.556   2.941  13.251  1.4399  0.6075  1.1944
 7289TIP3   OH243281   3.682   4.718   0.577  0.4462 -0.1076  0.1227
 7289TIP3    H143282   3.621   4.792   0.575  0.3396 -0.1841  0.5313
 7289TIP3    H243283   3.768   4.758   0.568  0.2750 -0.1188 -2.4387
 7290TIP3   OH243284   1.869   5.539   3.041 -0.0524 -0.2526 -0.0973
 7290TIP3    H143285   1.919   5.464   3.008 -0.9925 -0.8689 -0.1298
 7290TIP3    H243286   1.913   5.562   3.124  0.9426 -0.0973 -0.6528
 7291TIP3   OH243287   1.267   4.250  17.302 -0.6368  0.0522 -0.4234
 7291TIP3    H143288   1.195   4.222  17.357 -0.1637  2.8862  1.8943
 7291TIP3    H243289   1.226   4.302  17.233 -1.0099 -0.9433 -0.9643
 7292TIP3   OH243290   2.158   3.832  12.607 -0.2253  0.2392  0.4674
 7292TIP3    H143291   2.233   3.827  12.547 -2.7334 -1.4672 -2.9018
 7292TIP3    H243292   2.180   3.771  12.677  1.5191 -0.2778 -0.4519
 7293TIP3   OH243293   1.332   3.016   3.644  0.3326 -0.8379 -0.0670
 7293TIP3    H143294   1.258   3.011   3.583  0.6185 -1.9953 -0.3447
 7293TIP3    H243295   1.409   3.001   3.590  0.5740 -2.0718  0.5883
 7294TIP3   OH243296   1.239   5.227   1.455 -0.4750  0.1632 -0.6708
 7294TIP3    H143297   1.329   5.259   1.467 -0.8283  0.7287  0.6685
 7294TIP3    H243298   1.207   5.274   1.378  0.1561  0.4341 -0.7791
 7295TIP3   OH243299   1.778   1.528   6.311  0.4836  0.0979  0.1444
 7295TIP3    H143300   1.784   1.487   6.397 -0.9010  0.2198  0.3281
 7295TIP3    H243301   1.781   1.622   6.328  0.9948  0.1204 -0.0300
 7296TIP3   OH243302   1.811   4.049   2.086  0.1694  0.1462  0.3871
 7296TIP3    H143303   1.761   4.122   2.122  1.4855  0.8957  0.7963
 7296TIP3    H243304   1.815   3.985   2.157 -2.6407 -1.2682 -0.5994
 7297TIP3   OH243305   2.369   1.018  14.765 -0.5146  0.0010 -0.3230
 7297TIP3    H143306   2.328   1.104  14.767 -1.3646 -0.3867  0.7568
 7297TIP3    H243307   2.299   0.959  14.736 -0.6450 -0.6144  1.1130
 7298TIP3   OH243308   2.113   3.644  12.141  0.0008  0.3009  0.2691
 7298TIP3    H143309   2.110   3.602  12.055  0.1393  0.0831  0.3695
 7298TIP3    H243310   2.065   3.726  12.129 -1.0010 -0.2728  0.2843
 7299TIP3   OH243311   4.543   6.014   6.073 -0.5677 -0.3337  0.1902
 7299TIP3    H143312   4.628   6.040   6.038 -0.1086  0.0180  1.5328
 7299TIP3    H243313   4.532   6.066   6.152 -2.1339 -0.2359 -0.0653
 7300TIP3   OH243314   5.278   6.145  11.920 -0.6479  0.1962 -0.2301
 7300TIP3    H143315   5.204   6.205  11.922 -1.2033 -0.3891 -1.8963
 7300TIP3    H243316   5.355   6.201  11.919 -1.1682  1.0531 -3.9470
 7301TIP3   OH243317   5.686   0.144  11.702  0.2408 -0.0398  0.5201
 7301TIP3    H143318   5.759   0.203  11.687  0.5139 -0.4952  0.0383
 7301TIP3    H243319   5.619   0.198  11.744  0.1961  0.7964 -0.5875
 7302TIP3   OH243320   0.064   0.049   2.525 -0.4160  0.2394 -0.3972
 7302TIP3    H143321   0.159   0.057   2.514 -0.4346 -0.9559 -1.8625
 7302TIP3    H243322   0.050   0.054   2.619  1.1204  0.3538 -0.1471
 7303TIP3   OH243323   3.124   6.119   5.009 -0.2343  0.1590  0.0307
 7303TIP3    H143324   3.201   6.066   4.985  1.2775  3.8577 -4.9155
 7303TIP3    H243325   3.154   6.170   5.084  1.2390 -0.2577 -0.2246
 7304TIP3   OH243326   0.890   6.339  16.609 -0.5482  0.6529  0.9955
 7304TIP3    H143327   0.922   6.341  16.519  0.0309 -2.2710  1.0131
 7304TIP3    H243328   0.801   6.304  16.602 -0.3864  0.1000  1.5425
 7305TIP3   OH243329   2.271   3.823   5.862  0.6759 -0.2942 -0.2334
 7305TIP3    H143330   2.278   3.817   5.767 -1.0215  3.7500 -0.8555
 7305TIP3    H243331   2.354   3.862   5.890  0.9923 -1.0533 -0.0972
 7306TIP3   OH243332   3.798   1.943  11.044 -0.5749  0.1299  0.0944
 7306TIP3    H143333   3.847   2.000  11.103 -0.2179  1.7929 -1.7256
 7306TIP3    H243334   3.738   2.001  10.998 -0.6549 -1.0597 -1.3740
 7307TIP3   OH243335   4.469   1.152   5.536 -0.0485  1.1357  0.3529
 7307TIP3    H143336   4.428   1.207   5.603  0.2532  0.0295  1.4938
 7307TIP3    H243337   4.420   1.171   5.456 -1.9965  0.7808  1.3920
 7308TIP3   OH243338   4.970   1.614  14.609 -0.1342 -0.0167  0.2196
 7308TIP3    H143339   4.968   1.676  14.683 -0.5624 -1.5720  1.5673
 7308TIP3    H243340   4.987   1.529  14.650 -3.4205 -1.4592 -1.0444
 7309TIP3   OH243341   3.785   1.595  14.640  0.1180  0.3676 -0.1769
 7309TIP3    H143342   3.737   1.664  14.685  0.2461  0.6376 -0.4519
 7309TIP3    H243343   3.724   1.521  14.638 -0.2443  0.6675 -0.4151
 7310TIP3   OH243344   0.289   5.955  13.052  0.3515 -0.0177 -0.1220
 7310TIP3    H143345   0.299   5.897  13.128  1.8023  0.7761  0.3162
 7310TIP3    H243346   0.234   6.027  13.084  1.8561  0.8848  0.5508
 7311TIP3   OH243347   0.464   0.126   1.257  0.7969  0.3064 -0.5343
 7311TIP3    H143348   0.491   0.176   1.334  2.2630 -0.9676 -0.1571
 7311TIP3    H243349   0.447   0.192   1.190 -1.3638  1.5137  1.0735
 7312TIP3   OH243350   0.106   2.390   6.657 -0.2475  0.5542  0.3771
 7312TIP3    H143351   0.176   2.454   6.669  0.3229  0.9029 -3.4729
 7312TIP3    H243352   0.025   2.442   6.660  0.0166  0.9910 -0.0198
 7313TIP3   OH243353   1.933   6.403   4.838  0.3405 -0.8986  0.1918
 7313TIP3    H143354   1.987   6.367   4.768  0.5168  1.3024 -0.9015
 7313TIP3    H243355   1.996   6.438   4.901  0.2667  1.0847 -0.7660
 7314TIP3   OH243356   6.315   6.569  15.300 -0.4123 -0.1201  0.5110
 7314TIP3    H143357   6.232   6.521  15.303 -1.4585  1.6734  1.7969
 7314TIP3    H243358   6.321   6.613  15.385  1.5393  0.3414  0.1808
 7315TIP3   OH243359   5.150   0.548  10.815 -0.0529 -0.0583  0.5668
 7315TIP3    H143360   5.057   0.570  10.810  0.1594  1.0283  1.2404
 7315TIP3    H243361   5.195   0.625  10.780  0.6093 -0.5154  0.3901
 7316TIP3   OH243362   0.863   0.021   1.903 -0.0129  0.4415 -0.1545
 7316TIP3    H143363   0.852   0.053   1.814 -1.3562  3.3407  0.9209
 7316TIP3    H243364   0.957   0.004   1.912  0.2221  0.6562 -1.9280
 7317TIP3   OH243365   2.024   1.340  13.877  0.1960  0.2558 -0.0594
 7317TIP3    H143366   2.056   1.383  13.956 -2.1666 -0.2115  1.2649
 7317TIP3    H243367   1.929   1.339  13.887 -0.0913 -1.3363 -2.1193
 7318TIP3   OH243368   3.736   5.571   5.360  0.0540  0.2727  0.0822
 7318TIP3    H143369   3.657   5.518   5.370 -1.1607  2.3367  2.3285
 7318TIP3    H243370   3.774   5.575   5.447  1.1252  1.5673 -0.4058
 7319TIP3   OH243371   1.740   2.605  11.590 -0.1885  0.0800 -0.5480
 7319TIP3    H143372   1.777   2.546  11.656  1.5582 -0.6977 -2.1583
 7319TIP3    H243373   1.645   2.592  11.598 -0.3925  2.3275  3.8891
 7320TIP3   OH243374   0.686   3.044  12.930  0.0489  0.0569 -0.3647
 7320TIP3    H143375   0.607   3.082  12.969  0.8754  2.5267 -0.9507
 7320TIP3    H243376   0.735   3.119  12.896  3.6410 -1.0825  1.6889
 7321TIP3   OH243377   3.276   2.796  12.520 -0.1092 -0.5235  0.5593
 7321TIP3    H143378   3.263   2.848  12.600 -0.5317 -1.0508  0.8388
 7321TIP3    H243379   3.254   2.706  12.546  2.1139 -1.1393  0.5277
 7322TIP3   OH243380   1.269   5.340   2.713  0.0019 -0.4538 -0.3357
 7322TIP3    H143381   1.199   5.345   2.648 -1.9769  1.0790  1.7394
 7322TIP3    H243382   1.237   5.276   2.778  1.4765 -1.2397 -0.3521
 7323TIP3   OH243383   4.982   1.370  15.495  0.1307 -0.3610  0.1439
 7323TIP3    H143384   4.953   1.426  15.423  0.6905 -0.2720 -0.0114
 7323TIP3    H243385   4.993   1.429  15.569  0.0232 -0.3796  0.1749
 7324TIP3   OH243386   0.653   1.102  13.722 -0.4818 -0.4776  0.4170
 7324TIP3    H143387   0.722   1.067  13.666 -1.8807  1.2205 -2.6432
 7324TIP3    H243388   0.699   1.160  13.783  0.8382  1.6544 -2.3808
 7325TIP3   OH243389   2.608   6.044   3.749 -0.1034 -0.0504  0.0423
 7325TIP3    H143390   2.654   5.969   3.712  0.0958 -0.5651  1.2902
 7325TIP3    H243391   2.677   6.096   3.790  0.1641  2.1881 -2.8980
 7326TIP3   OH243392   4.226   3.844   4.368 -0.3810 -0.0399  0.1156
 7326TIP3    H143393   4.252   3.765   4.320 -0.8787 -0.7784  1.0374
 7326TIP3    H243394   4.143   3.869   4.328 -1.5779 -1.5267  1.5024
 7327TIP3   OH243395   3.799   2.855  13.111  0.1979 -0.6441 -0.3188
 7327TIP3    H143396   3.705   2.845  13.095 -0.3351  0.6736  1.7037
 7327TIP3    H243397   3.839   2.783  13.061 -1.8606 -1.2989 -1.1485
 7328TIP3   OH243398   2.796   2.207  10.916 -0.1905 -0.3898  0.4157
 7328TIP3    H143399   2.741   2.135  10.947 -0.2314  0.2025  1.7592
 7328TIP3    H243400   2.822   2.180  10.828  0.0705 -2.2289  0.9956
 7329TIP3   OH243401   5.049   1.653   2.749 -0.0337  0.2824 -0.8048
 7329TIP3    H143402   4.995   1.723   2.714 -0.2816  1.8095  2.2569
 7329TIP3    H243403   4.987   1.596   2.795  0.6065  0.4092  0.2453
 7330TIP3   OH243404   2.078   4.768   3.490 -0.4403 -0.3773 -0.4215
 7330TIP3    H143405   2.144   4.821   3.534 -0.3617 -1.4940  0.8887
 7330TIP3    H243406   2.040   4.714   3.560  0.1564 -2.7353 -1.8026
 7331TIP3   OH243407   4.327   2.416  16.584  0.2602  0.1008  0.0602
 7331TIP3    H143408   4.235   2.394  16.600  0.3829  0.1143  0.8053
 7331TIP3    H243409   4.324   2.481  16.514 -0.2704 -0.1914 -0.1972
 7332TIP3   OH243410   6.068   3.892   4.151  0.5201  0.4672 -0.3794
 7332TIP3    H143411   6.100   3.947   4.222 -0.0334  1.4888 -0.8918
 7332TIP3    H243412   6.146   3.873   4.098  0.5439  1.6906 -0.8039
 7333TIP3   OH243413   0.332   1.339   1.155 -0.1579 -0.7292  0.3751
 7333TIP3    H143414   0.284   1.373   1.079 -0.1977 -1.3310  0.1262
 7333TIP3    H243415   0.292   1.384   1.230 -0.3632 -0.3986  0.0738
 7334TIP3   OH243416   5.456   5.666  11.690  0.5264  0.0596 -0.1421
 7334TIP3    H143417   5.496   5.626  11.612 -0.5766 -1.3420 -0.0254
 7334TIP3    H243418   5.432   5.754  11.662  0.2685 -0.3820 -1.3602
 7335TIP3   OH243419   6.355   2.730   1.087 -0.6226 -0.1588  0.8193
 7335TIP3    H143420   6.439   2.705   1.050 -1.2638 -0.8660 -0.2068
 7335TIP3    H243421   6.293   2.668   1.051 -1.8055  1.1363  0.5267
 7336TIP3   OH243422   4.453   2.248   5.818  0.1834  0.0649  0.3255
 7336TIP3    H143423   4.381   2.293   5.862 -0.1782  0.8513 -1.0257
 7336TIP3    H243424   4.434   2.155   5.829 -2.2921  0.1963 -1.8894
 7337TIP3   OH243425   2.242   6.764   0.231  0.1877 -0.1367 -0.8481
 7337TIP3    H143426   2.201   6.826   0.291  1.6889  0.6146 -0.5322
 7337TIP3    H243427   2.272   6.818   0.158  0.7843 -0.6056 -0.9561
 7338TIP3   OH243428   0.974   2.920   5.764  0.6187 -0.3518 -0.3664
 7338TIP3    H143429   1.029   2.844   5.785  0.2530 -0.9550 -1.4990
 7338TIP3    H243430   0.941   2.902   5.676  0.3734  1.0477 -0.5823
 7339TIP3   OH243431   5.440   4.093   2.767  0.7207 -0.9203 -0.1765
 7339TIP3    H143432   5.497   4.155   2.723  0.1033 -0.5656 -0.4871
 7339TIP3    H243433   5.465   4.098   2.859  1.6916 -1.3156 -0.4084
 7340TIP3   OH243434   5.620   4.898   6.566 -1.2509 -0.2162  0.3936
 7340TIP3    H143435   5.624   4.992   6.547 -2.0201 -0.5604 -1.7353
 7340TIP3    H243436   5.703   4.879   6.609 -0.1335  1.0572 -1.0851
 7341TIP3   OH243437   1.304   0.050   4.441 -0.2650 -0.1698 -0.1094
 7341TIP3    H143438   1.231   0.108   4.463  2.1170  1.9392  3.2036
 7341TIP3    H243439   1.296  -0.023   4.503  0.1413 -0.2190 -0.1131
 7342TIP3   OH243440   6.053   5.246  15.590  0.2608 -0.7285 -1.0687
 7342TIP3    H143441   6.115   5.318  15.606  0.3752 -1.0599  0.0443
 7342TIP3    H243442   5.971   5.290  15.569  1.0100 -0.2660 -3.3519
 7343TIP3   OH243443   5.714   6.455   2.156  0.4093  0.0734 -0.4486
 7343TIP3    H143444   5.680   6.477   2.070 -2.1523  1.0818  0.7115
 7343TIP3    H243445   5.788   6.514   2.168 -2.0620  3.4211 -0.2217
 7344TIP3   OH243446   3.367   5.609   6.302  1.0275 -0.3040 -0.5343
 7344TIP3    H143447   3.334   5.549   6.235 -1.7347 -1.1943  1.4712
 7344TIP3    H243448   3.404   5.551   6.369 -0.8048  0.2107  0.9798
 7345TIP3   OH243449   1.017   3.677  15.982  0.3133 -0.4294  0.0045
 7345TIP3    H143450   1.096   3.640  16.023  0.7000  1.2076  0.7949
 7345TIP3    H243451   0.956   3.603  15.977  0.6826 -0.9713  2.4531
 7346TIP3   OH243452   5.492   1.909  11.431  0.0837  0.1907  0.2367
 7346TIP3    H143453   5.423   1.953  11.382 -0.4200 -0.7711  0.0555
 7346TIP3    H243454   5.462   1.818  11.437  1.2620 -0.2026  0.2946
 7347TIP3   OH243455   1.072   3.813   2.414  0.3950 -0.2384  0.1017
 7347TIP3    H143456   1.129   3.772   2.479  0.0749 -0.5788  0.1650
 7347TIP3    H243457   1.056   3.901   2.449  0.5558 -0.2775  0.2776
 7348TIP3   OH243458   6.025   5.209   1.414  0.4727 -0.3145  0.4700
 7348TIP3    H143459   5.938   5.170   1.417  1.1100 -1.7705  0.6639
 7348TIP3    H243460   6.085   5.135   1.419  1.7327  0.7015  1.0055
 7349TIP3   OH243461   6.168   1.694  14.922 -0.2123 -0.0456  0.1446
 7349TIP3    H143462   6.254   1.708  14.960 -0.2512 -1.1148  0.6344
 7349TIP3    H243463   6.186   1.648  14.840 -0.1714  1.7463 -0.9214
 7350TIP3   OH243464   1.063   2.771   1.415  0.4509 -0.2937  0.5705
 7350TIP3    H143465   0.975   2.756   1.451 -0.1727  1.5872 -0.0234
 7350TIP3    H243466   1.116   2.798   1.490  0.2314 -0.3692  0.7530
 7351TIP3   OH243467   3.432   6.255  13.012 -0.0429 -0.4254  0.7056
 7351TIP3    H143468   3.476   6.172  13.032  0.5841  0.1424  1.7215
 7351TIP3    H243469   3.339   6.233  13.017  0.1081 -0.8299  2.0667
 7352TIP3   OH243470   6.489   3.810   2.336 -0.2821  0.0462 -0.1980
 7352TIP3    H143471   6.421   3.748   2.311  0.3860 -1.1168  0.7485
 7352TIP3    H243472   6.486   3.812   2.432  1.6256 -0.8348 -0.0512
 7353TIP3   OH243473   5.359   4.922   0.521 -0.3097  0.1259 -0.4733
 7353TIP3    H143474   5.413   4.987   0.566  1.7433 -1.4432 -0.5027
 7353TIP3    H243475   5.275   4.965   0.507  0.4665  2.2002  0.8648
 7354TIP3   OH243476   3.798   2.572  15.348  0.0423  0.5329  0.0619
 7354TIP3    H143477   3.758   2.487  15.332 -0.5422 -0.1709  4.2314
 7354TIP3    H243478   3.739   2.634  15.304  0.2042 -1.0444 -2.6333
 7355TIP3   OH243479   0.637   2.104   0.048  0.0294 -0.0617  0.1106
 7355TIP3    H143480   0.638   2.068  -0.041 -0.0804 -0.3592  0.2312
 7355TIP3    H243481   0.546   2.130   0.062  0.2542  0.9703 -0.2595
 7356TIP3   OH243482   1.244   5.984  11.341  0.4054 -0.2501 -0.6104
 7356TIP3    H143483   1.280   5.895  11.343 -0.4329 -0.5943  0.9870
 7356TIP3    H243484   1.310   6.038  11.383  0.9344 -0.0856 -1.6205
 7357TIP3   OH243485   4.262   4.779   3.551  0.3862  0.3961 -0.1538
 7357TIP3    H143486   4.288   4.692   3.522  0.6520  0.7062 -0.8731
 7357TIP3    H243487   4.295   4.838   3.482 -0.4029  0.9919 -0.0309
 7358TIP3   OH243488   5.732   2.733  14.075 -0.4602 -0.1438 -0.0096
 7358TIP3    H143489   5.722   2.828  14.069  0.8157  0.2055  2.4164
 7358TIP3    H243490   5.657   2.698  14.026 -1.0138  2.0870 -0.8695
 7359TIP3   OH243491   6.677   4.354  12.048  0.5246  0.6165  0.4128
 7359TIP3    H143492   6.748   4.413  12.071 -0.3649  1.1348  2.0068
 7359TIP3    H243493   6.666   4.299  12.126  1.3507 -1.7191 -1.0448
 7360TIP3   OH243494   0.491   5.857   1.387 -0.4215  0.2141 -0.3096
 7360TIP3    H143495   0.520   5.766   1.385  1.0198  0.5363  2.2955
 7360TIP3    H243496   0.568   5.908   1.362 -0.9761  0.8022 -0.8846
 7361TIP3   OH243497   4.310   4.918  15.437 -0.1028  0.3841  0.6472
 7361TIP3    H143498   4.344   4.889  15.522 -1.0360  0.7341  1.1521
 7361TIP3    H243499   4.385   4.909  15.377  0.6485  0.3988  1.5574
 7362TIP3   OH243500   3.134   6.479   4.133 -0.4479  0.3740 -0.0868
 7362TIP3    H143501   3.085   6.397   4.133 -1.0578  0.7177 -1.2883
 7362TIP3    H243502   3.146   6.500   4.041  1.3553  0.6760  0.1754
 7363TIP3   OH243503   2.872   0.908  13.916 -0.6589  0.0147 -0.3543
 7363TIP3    H143504   2.838   0.851  13.985  1.7176 -0.0316  0.8923
 7363TIP3    H243505   2.844   0.996  13.942 -1.1716 -0.1906 -0.2135
 7364TIP3   OH243506   5.882   1.236  12.926  0.0481  0.0469  0.6974
 7364TIP3    H143507   5.806   1.197  12.884  0.8601  0.1093 -0.8817
 7364TIP3    H243508   5.850   1.263  13.013 -2.1302  1.3730 -0.4173
 7365TIP3   OH243509   4.196   1.517   4.807  0.0394  0.1851  0.4294
 7365TIP3    H143510   4.177   1.559   4.723  2.4676 -0.7701 -0.7051
 7365TIP3    H243511   4.177   1.424   4.793  1.2520 -0.1133  0.6075
 7366TIP3   OH243512   4.698   0.484  15.517  0.2958  0.4056  0.3748
 7366TIP3    H143513   4.734   0.454  15.434  2.2895  1.0420  0.9608
 7366TIP3    H243514   4.627   0.422  15.536  0.7119 -0.5763 -1.1028
 7367TIP3   OH243515   0.867   4.907   2.500 -0.6098 -0.3082  0.0852
 7367TIP3    H143516   0.891   4.928   2.410  1.3553  1.1952  0.8833
 7367TIP3    H243517   0.949   4.880   2.541 -1.4607 -0.9206  1.4389
 7368TIP3   OH243518   0.272   4.191  12.898 -0.2034 -0.1387 -0.1399
 7368TIP3    H143519   0.195   4.135  12.890 -0.9489  0.9587 -0.8528
 7368TIP3    H243520   0.244   4.277  12.867  1.3660  0.2443 -0.6319
 7369TIP3   OH243521   0.060   3.193   5.730 -0.1886  0.9171  0.7289
 7369TIP3    H143522  -0.034   3.177   5.741 -0.4451 -0.1769 -2.2277
 7369TIP3    H243523   0.100   3.108   5.744  0.0238  0.7469 -0.7702
 7370TIP3   OH243524   1.851   5.081   0.670  0.0680  0.3201  0.3331
 7370TIP3    H143525   1.868   5.136   0.593  0.2887  0.3284  0.3854
 7370TIP3    H243526   1.793   5.133   0.725 -1.5201 -0.3718 -0.6192
 7371TIP3   OH243527   6.084   4.772   2.465 -0.3803  0.0066  0.4567
 7371TIP3    H143528   6.159   4.793   2.520  0.6960  1.8413 -1.5926
 7371TIP3    H243529   6.012   4.823   2.502  0.0906  0.4900  0.7185
 7372TIP3   OH243530   4.178   1.111  14.253  0.2842 -0.1259 -0.2060
 7372TIP3    H143531   4.222   1.196  14.265  0.8782 -0.5637  0.7657
 7372TIP3    H243532   4.249   1.049  14.239  0.0392 -0.9373  1.9255
 7373TIP3   OH243533   5.090   2.682  12.405  0.2631  0.3781 -0.4874
 7373TIP3    H143534   5.000   2.658  12.428 -0.3683  3.0447  0.1311
 7373TIP3    H243535   5.136   2.684  12.489  0.5107  0.4753 -0.6255
 7374TIP3   OH243536   1.966   5.028   5.059  0.4308  0.5401 -0.1244
 7374TIP3    H143537   1.997   4.968   4.991  0.4145  0.7004 -0.2727
 7374TIP3    H243538   1.912   5.091   5.012 -0.1226  0.2633  0.1262
 7375TIP3   OH243539   5.891   2.920  11.100  0.0271  0.1509  0.1981
 7375TIP3    H143540   5.957   2.863  11.060  1.1845  1.2925  0.4291
 7375TIP3    H243541   5.822   2.928  11.034  0.7138 -0.0443 -0.5484
 7376TIP3   OH243542   4.018   3.241  12.000  0.2484 -0.1940 -0.7443
 7376TIP3    H143543   3.953   3.233  12.070  1.2148 -0.7333  0.1219
 7376TIP3    H243544   3.971   3.285  11.929 -1.5970 -2.1541 -0.8399
 7377TIP3   OH243545   5.658   2.458  15.332 -0.0158  0.2307 -0.2683
 7377TIP3    H143546   5.581   2.508  15.359 -0.4627 -1.0026  0.8627
 7377TIP3    H243547   5.724   2.477  15.398 -0.5139 -1.3831  0.7529
 7378TIP3   OH243548   1.569   1.741   6.537  0.0481  0.2743 -0.3093
 7378TIP3    H143549   1.517   1.822   6.539  1.2377  1.0597  0.3114
 7378TIP3    H243550   1.638   1.760   6.473  0.2231 -0.3292 -0.2993
 7379TIP3   OH243551   6.320   2.231  12.471  0.3113 -0.0531 -0.0017
 7379TIP3    H143552   6.402   2.274  12.447 -0.4109 -0.0118 -2.7265
 7379TIP3    H243553   6.289   2.279  12.548  0.8973  2.5892 -1.2925
 7380TIP3   OH243554   3.319   5.344  16.259  0.2621  0.0063 -0.2917
 7380TIP3    H143555   3.254   5.412  16.271 -0.3097 -0.5976  0.0638
 7380TIP3    H243556   3.374   5.348  16.337 -0.4706 -0.6794  0.2825
 7381TIP3   OH243557   5.918   1.100  16.510  0.1212  0.0535 -0.0922
 7381TIP3    H143558   5.839   1.063  16.470 -0.1572 -1.0799  1.4054
 7381TIP3    H243559   5.896   1.109  16.603  1.0852  1.6293  0.0192
 7382TIP3   OH243560   5.221   1.934  13.027  0.1074  0.1452 -0.4697
 7382TIP3    H143561   5.189   2.022  13.008  2.2674  0.9421 -0.6757
 7382TIP3    H243562   5.228   1.892  12.942  1.3632  0.6460 -0.6366
 7383TIP3   OH243563   2.598   0.768   3.884 -0.4475  1.1267 -0.3063
 7383TIP3    H143564   2.634   0.711   3.817 -0.0445  0.6463  0.3049
 7383TIP3    H243565   2.646   0.850   3.874  0.7747  0.5291  0.4247
 7384TIP3   OH243566   1.765   1.574   4.459  0.7285  0.0588 -0.2059
 7384TIP3    H143567   1.799   1.637   4.522 -0.9041  1.0274 -0.2340
 7384TIP3    H243568   1.672   1.595   4.452  1.1424  1.5225 -4.6358
 7385TIP3   OH243569   0.286   0.955  13.112 -0.6062 -0.2606 -0.7039
 7385TIP3    H143570   0.268   0.895  13.185 -1.7119 -0.2295 -0.9223
 7385TIP3    H243571   0.251   0.909  13.036  0.2024 -0.1265 -1.1628
 7386TIP3   OH243572   4.618   5.774  16.102  0.6352  0.1955  0.5627
 7386TIP3    H143573   4.562   5.741  16.173 -1.5655  0.3403 -1.0093
 7386TIP3    H243574   4.645   5.696  16.054  0.4411  0.2413  0.3789
 7387TIP3   OH243575   2.220   5.367   1.022 -0.5915  0.2284  0.3553
 7387TIP3    H143576   2.223   5.287   1.075  1.1412 -0.0730 -0.1306
 7387TIP3    H243577   2.147   5.354   0.962  0.3054 -1.4941 -0.4240
 7388TIP3   OH243578   6.487   6.334   6.417 -0.4754 -0.4556 -0.3450
 7388TIP3    H143579   6.448   6.271   6.357 -0.5537  0.1618 -0.9528
 7388TIP3    H243580   6.415   6.359   6.476 -0.9979  0.5985 -1.3933
 7389TIP3   OH243581   4.895   2.435  16.317 -0.1576 -0.1280 -0.4423
 7389TIP3    H143582   4.962   2.370  16.294  0.1680  0.5154 -1.3729
 7389TIP3    H243583   4.829   2.426  16.248  0.6068  1.5234 -1.4467
 7390TIP3   OH243584   1.470   5.967  14.850  0.1046  0.2474  0.4758
 7390TIP3    H143585   1.454   6.010  14.935 -1.0714  0.1452  0.3285
 7390TIP3    H243586   1.405   5.897  14.846  0.3171  0.0878 -0.4037
 7391TIP3   OH243587   0.166   3.393  13.035  0.4723 -0.5078 -0.1355
 7391TIP3    H143588   0.152   3.308  13.077  2.1264 -0.0505  1.4521
 7391TIP3    H243589   0.131   3.456  13.097  0.1691  0.0494 -0.8548
 7392TIP3   OH243590   4.810   4.440   2.331 -0.5666 -0.2666 -0.0145
 7392TIP3    H143591   4.862   4.359   2.327  0.3613  0.3300 -0.2980
 7392TIP3    H243592   4.742   4.421   2.396 -0.8242 -1.5288 -0.6192
 7393TIP3   OH243593   0.150   1.830   5.834 -0.3368 -0.1168  0.1204
 7393TIP3    H143594   0.137   1.764   5.766 -1.4702 -1.1471  1.2798
 7393TIP3    H243595   0.192   1.903   5.789 -0.4741 -1.0113 -1.5386
 7394TIP3   OH243596   2.537   0.029  11.382  0.0877  0.1545  0.1510
 7394TIP3    H143597   2.515   0.012  11.290  1.1876  0.6362 -0.2208
 7394TIP3    H243598   2.615  -0.024  11.397 -0.4319 -0.3929  1.0007
 7395TIP3   OH243599   4.330   4.591   2.863  0.2941  0.6237  0.4770
 7395TIP3    H143600   4.254   4.533   2.866 -0.2484  1.2157 -1.2156
 7395TIP3    H243601   4.398   4.543   2.911 -0.3393 -1.1278 -0.2936
 7396TIP3   OH243602   4.717   0.805   3.161  0.2010 -0.7126  0.8871
 7396TIP3    H143603   4.710   0.710   3.153  1.1781 -0.7663  0.5383
 7396TIP3    H243604   4.664   0.839   3.088  2.8895 -1.0880 -1.4244
 7397TIP3   OH243605   4.588   6.762  12.292  0.0969 -0.3375 -0.6453
 7397TIP3    H143606   4.566   6.770  12.385  1.7582  0.5868 -0.2750
 7397TIP3    H243607   4.610   6.670  12.281 -2.5000 -1.0146 -0.7545
 7398TIP3   OH243608   1.769   3.202   0.693  0.1824 -0.2684  0.6492
 7398TIP3    H143609   1.805   3.145   0.625 -1.2678  0.3259 -0.6787
 7398TIP3    H243610   1.846   3.240   0.735  1.1806  0.6950 -1.8440
 7399TIP3   OH243611   6.280   1.970   5.751  0.3182  1.0820 -0.2768
 7399TIP3    H143612   6.197   1.929   5.775  1.5680 -1.3489  0.2089
 7399TIP3    H243613   6.295   2.036   5.819  0.6607 -1.2235  2.0262
 7400TIP3   OH243614   5.048   5.634   1.116 -0.1436 -0.1561  0.2661
 7400TIP3    H143615   5.022   5.666   1.029  0.0556 -1.0773 -0.1489
 7400TIP3    H243616   5.067   5.713   1.166  0.5934  0.3765 -0.8014
 7401TIP3   OH243617   0.028   5.744   1.623  0.3666  0.3459 -0.4862
 7401TIP3    H143618   0.099   5.785   1.672  0.0664  0.1130  0.1625
 7401TIP3    H243619   0.069   5.710   1.544  0.9877  0.1668 -0.0916
 7402TIP3   OH243620   1.193   2.258  14.838 -0.0626 -0.1123  0.9315
 7402TIP3    H143621   1.135   2.219  14.903 -1.7672 -0.3583 -0.6756
 7402TIP3    H243622   1.144   2.333  14.803  0.8373  0.0565 -0.0423
 7403TIP3   OH243623   5.268   3.681   6.001 -1.1357  0.1107 -0.1099
 7403TIP3    H143624   5.209   3.633   5.943 -1.4581  0.9859 -0.5310
 7403TIP3    H243625   5.212   3.746   6.043 -1.0135 -0.8461  1.6004
 7404TIP3   OH243626   1.847   5.485   1.054 -0.2447 -0.3611  0.0146
 7404TIP3    H143627   1.816   5.520   0.970 -0.6795 -1.2208 -0.2045
 7404TIP3    H243628   1.908   5.415   1.029 -0.6499 -0.8582  0.4090
 7405TIP3   OH243629   4.839   1.008   1.006  0.2196  0.4415 -0.2875
 7405TIP3    H143630   4.785   1.027   0.930 -0.1530  1.4391  0.2094
 7405TIP3    H243631   4.778   0.969   1.069  0.3103  0.5356 -0.1403
 7406TIP3   OH243632   1.979   2.205  15.655 -0.2473 -0.1356 -0.0120
 7406TIP3    H143633   2.051   2.160  15.699  0.9585  0.0856 -1.6816
 7406TIP3    H243634   1.980   2.171  15.566 -1.4377  0.7917 -0.4034
 7407TIP3   OH243635   6.166   3.585  15.397  0.0145 -0.1711  0.0479
 7407TIP3    H143636   6.160   3.592  15.302 -1.3395 -1.3868  0.0098
 7407TIP3    H243637   6.130   3.668  15.429 -2.2760 -0.8531 -0.5122
 7408TIP3   OH243638   2.373   4.391   4.611 -0.7125  0.1935  0.3473
 7408TIP3    H143639   2.340   4.356   4.694  0.3006 -0.0095  0.6845
 7408TIP3    H243640   2.360   4.485   4.618  1.2641  0.4306  1.6592
 7409TIP3   OH243641   4.555   4.589  11.077  0.3679 -0.4127 -0.0365
 7409TIP3    H143642   4.536   4.573  10.984  1.8717 -2.0141 -0.1191
 7409TIP3    H243643   4.491   4.536  11.124 -0.1991  0.1645 -0.1309
 7410TIP3   OH243644   3.272   2.939   6.002  0.3580 -0.0571 -0.3730
 7410TIP3    H143645   3.268   3.009   6.067  0.2152  1.2926 -1.7777
 7410TIP3    H243646   3.365   2.919   5.993  0.3127 -1.0010  0.9693
 7411TIP3   OH243647   3.322   2.002   1.118 -0.5511 -0.2458 -0.7067
 7411TIP3    H143648   3.365   1.978   1.200 -0.9607 -0.3156 -0.5101
 7411TIP3    H243649   3.238   2.037   1.145 -0.6240 -0.1224 -1.0921
 7412TIP3   OH243650   5.770   0.095  15.379 -0.2399  0.2087 -0.1333
 7412TIP3    H143651   5.845   0.148  15.405  0.0075 -0.1383 -0.1372
 7412TIP3    H243652   5.797   0.005  15.396 -0.1664 -0.0111 -1.3365
 7413TIP3   OH243653   2.628   2.638  15.552 -0.3027  0.0718 -0.1119
 7413TIP3    H143654   2.593   2.668  15.635  1.4007 -1.6398  1.3233
 7413TIP3    H243655   2.668   2.716  15.513  3.0982  0.1365  2.9940
 7414TIP3   OH243656   4.175   1.231   4.092 -0.0246  0.2897  0.0032
 7414TIP3    H143657   4.093   1.243   4.046 -0.2183  0.7942  0.4708
 7414TIP3    H243658   4.234   1.193   4.027 -1.1172 -1.7565  0.1250
 7415TIP3   OH243659   1.262   4.339  14.937 -0.0122  0.4006 -0.7262
 7415TIP3    H143660   1.328   4.285  14.892  0.8549  0.9562 -0.1417
 7415TIP3    H243661   1.181   4.287  14.931  1.0814 -1.6764  1.0670
 7416TIP3   OH243662   6.572   2.473   1.537  0.0035  0.2916 -0.1840
 7416TIP3    H143663   6.552   2.565   1.520 -1.7694  0.1267  0.7591
 7416TIP3    H243664   6.618   2.474   1.621  0.8685  0.3752 -0.6461
 7417TIP3   OH243665   1.499   2.186  12.110 -0.2814 -0.6389 -0.2867
 7417TIP3    H143666   1.585   2.197  12.152 -0.8454 -0.1800  0.7763
 7417TIP3    H243667   1.518   2.136  12.030  1.1463  0.4665 -0.6956
 7418TIP3   OH243668   6.105   0.822  11.801  0.1583  0.2768 -0.5263
 7418TIP3    H143669   6.048   0.794  11.872  2.7026 -1.8924  0.8233
 7418TIP3    H243670   6.092   0.756  11.733  0.5556  0.1407 -0.4734
 7419TIP3   OH243671   0.749   0.233  14.398 -0.4681 -0.3164 -0.6384
 7419TIP3    H143672   0.737   0.240  14.493  0.0885 -0.4319 -0.5577
 7419TIP3    H243673   0.765   0.140  14.383 -1.5408 -0.4678 -0.9696
 7420TIP3   OH243674   6.063   5.547   4.929 -0.2627  0.5823 -0.0424
 7420TIP3    H143675   6.091   5.469   4.881 -0.0545  0.3835  0.3983
 7420TIP3    H243676   6.000   5.514   4.994  1.5235  0.4078  1.7006
 7421TIP3   OH243677   4.322   1.355   2.205  0.4065  0.2979  0.2781
 7421TIP3    H143678   4.404   1.358   2.156  0.2313  0.2970 -0.0159
 7421TIP3    H243679   4.303   1.446   2.226  0.5784  0.2821  0.5102
 7422TIP3   OH243680   2.757   6.636   0.108  0.0911  0.3075  0.2342
 7422TIP3    H143681   2.742   6.730   0.100  0.7432  0.3566 -0.4518
 7422TIP3    H243682   2.793   6.610   0.024 -1.6414 -0.8677 -0.1872
 7423TIP3   OH243683   1.636   5.242  12.959 -0.2160 -0.6002 -0.3021
 7423TIP3    H143684   1.686   5.188  13.020 -0.0865 -0.7161 -0.5131
 7423TIP3    H243685   1.656   5.207  12.873  1.5059  1.0554 -0.6497
 7424TIP3   OH243686   0.888   5.839  11.954 -0.1247 -0.3377  0.3273
 7424TIP3    H143687   0.941   5.839  12.034 -2.9913 -0.4556  2.3814
 7424TIP3    H243688   0.900   5.751  11.917  0.1975 -0.7631  1.4110
 7425TIP3   OH243689   2.973   6.506  14.103  0.6314 -0.1327  0.3621
 7425TIP3    H143690   2.932   6.434  14.151 -1.4503  0.4457 -0.4633
 7425TIP3    H243691   3.030   6.548  14.168  1.2647 -1.9654  1.0901
 7426TIP3   OH243692   3.312   0.492   3.626  0.2652 -0.3510  0.6332
 7426TIP3    H143693   3.229   0.505   3.580  0.8356 -0.9440 -0.6160
 7426TIP3    H243694   3.323   0.397   3.628  0.4793 -0.3163  1.6137
 7427TIP3   OH243695   4.812   5.515  17.117  0.2593  0.2843  0.2005
 7427TIP3    H143696   4.822   5.459  17.040 -0.2505 -0.8365  0.9299
 7427TIP3    H243697   4.890   5.570  17.116  1.0988 -0.8640 -0.1989
 7428TIP3   OH243698   4.191   2.004  14.285 -0.0912 -0.0079 -0.1514
 7428TIP3    H143699   4.108   1.961  14.307 -0.4003 -0.3009 -1.7902
 7428TIP3    H243700   4.170   2.057  14.208  0.6994  1.7612  0.7908
 7429TIP3   OH243701   5.535   6.545   1.933  0.2773 -0.2977 -0.1412
 7429TIP3    H143702   5.454   6.577   1.893 -0.0927 -0.4356  0.4931
 7429TIP3    H243703   5.604   6.591   1.886 -0.2452  1.5890  0.8506
 7430TIP3   OH243704   6.704   1.477  14.242 -0.1026  0.4229 -0.1901
 7430TIP3    H143705   6.734   1.469  14.151  1.0008 -1.2711  0.2633
 7430TIP3    H243706   6.609   1.472  14.237 -0.0213 -0.8293 -1.2011
 7431TIP3   OH243707   5.867   2.250   0.924 -0.5876  0.2815  0.7629
 7431TIP3    H143708   5.862   2.346   0.927  2.4243  0.5503  0.3815
 7431TIP3    H243709   5.847   2.222   1.014 -1.0155  1.3078  0.9991
 7432TIP3   OH243710   3.906   1.938   1.813  0.1005 -0.2614 -0.3139
 7432TIP3    H143711   3.992   1.965   1.844 -0.6282 -0.1835  1.8699
 7432TIP3    H243712   3.884   1.862   1.868 -1.3340 -0.0856 -0.6013
 7433TIP3   OH243713   1.525   2.825  17.163 -0.3146  0.2525  0.1079
 7433TIP3    H143714   1.515   2.920  17.169  0.5769  0.3025  1.0939
 7433TIP3    H243715   1.556   2.810  17.073  2.5925  1.2312  0.8377
 7434TIP3   OH243716   3.357   6.319  11.126 -1.1085  0.3730 -0.0112
 7434TIP3    H143717   3.358   6.368  11.043 -1.3134  2.9662  1.3941
 7434TIP3    H243718   3.264   6.303  11.143 -0.9843 -2.5409 -1.4618
 7435TIP3   OH243719   0.169   4.887   4.093 -0.2112  0.3635  0.0854
 7435TIP3    H143720   0.123   4.969   4.078  2.1945  1.8478  0.3776
 7435TIP3    H243721   0.247   4.892   4.038  0.8060 -1.0154  1.3101
 7436TIP3   OH243722   0.332   1.968   3.564  0.0572  0.2879 -0.3073
 7436TIP3    H143723   0.419   1.948   3.600 -0.2600 -1.3970 -0.3843
 7436TIP3    H243724   0.349   2.033   3.496  1.1600  0.5729  0.2199
 7437TIP3   OH243725   1.056   4.720   0.224  0.0669  0.3054  0.4273
 7437TIP3    H143726   1.084   4.730   0.315  0.6294 -1.3193  0.4541
 7437TIP3    H243727   1.075   4.629   0.202 -0.9523  0.4002 -1.0223
 7438TIP3   OH243728   1.685   3.149  14.749  0.0984 -0.0031 -0.2146
 7438TIP3    H143729   1.662   3.193  14.831 -1.2248 -1.2405  0.1372
 7438TIP3    H243730   1.689   3.218  14.684 -0.0363  0.8511  0.6639
 7439TIP3   OH243731   2.502   0.059   3.814 -0.4119 -0.7272 -0.1429
 7439TIP3    H143732   2.509  -0.031   3.845  0.3916 -0.5544  0.2188
 7439TIP3    H243733   2.573   0.068   3.750 -0.4597 -0.3466 -0.1471
 7440TIP3   OH243734   1.881   2.624   1.617 -0.3384 -0.4267 -0.1643
 7440TIP3    H143735   1.805   2.604   1.562 -0.5884  0.9571 -0.3455
 7440TIP3    H243736   1.902   2.715   1.597  2.1224 -1.1037 -1.0278
 7441TIP3   OH243737   4.936   4.213  12.721  0.2465  0.1397 -0.3488
 7441TIP3    H143738   4.895   4.228  12.806 -0.7002 -0.7195 -0.6246
 7441TIP3    H243739   5.021   4.174  12.741  0.0048 -0.1076  0.2051
 7442TIP3   OH243740   3.594   3.902   1.716 -0.4360  0.3801 -0.3767
 7442TIP3    H143741   3.645   3.974   1.754 -1.8353  0.9126  0.6108
 7442TIP3    H243742   3.654   3.859   1.655  1.7183 -0.0700  1.8975
 7443TIP3   OH243743   4.488   6.755  12.565 -0.5165  0.2569 -0.3091
 7443TIP3    H143744   4.440   6.823  12.517 -1.2655  1.4881  2.0124
 7443TIP3    H243745   4.506   6.794  12.650 -1.5964 -2.6567  1.4266
 7444TIP3   OH243746   6.167   3.087   5.310 -0.4777 -0.0266 -0.7744
 7444TIP3    H143747   6.173   3.066   5.403 -1.8408  0.5662 -0.5204
 7444TIP3    H243748   6.256   3.110   5.284 -0.0863 -0.1708  0.3994
 7445TIP3   OH243749   0.290   0.522  13.565 -0.1185  0.0256 -0.1205
 7445TIP3    H143750   0.270   0.606  13.523 -0.8156 -1.2173 -2.4351
 7445TIP3    H243751   0.382   0.506  13.545 -0.2192 -0.1663 -0.4310
 7446TIP3   OH243752   4.868   1.324  11.029 -0.7225 -0.0389  0.7910
 7446TIP3    H143753   4.928   1.295  11.097 -0.1343 -0.1428  0.2441
 7446TIP3    H243754   4.824   1.244  11.000 -0.0692 -0.1903  0.2000
 7447TIP3   OH243755   2.356   2.450  13.916 -0.4498  0.5519 -0.0388
 7447TIP3    H143756   2.408   2.431  13.994 -0.5479  2.1111  0.4324
 7447TIP3    H243757   2.373   2.542  13.897 -0.7774  0.3287 -1.6149
 7448TIP3   OH243758   1.025   6.026  13.438 -0.3872 -0.6310 -0.0795
 7448TIP3    H143759   0.979   5.979  13.369  0.3083 -2.7520  0.8173
 7448TIP3    H243760   1.020   5.968  13.514  2.6706 -0.4540  0.3855
 7449TIP3   OH243761   4.283   4.407   4.297  0.3583 -0.2252 -0.2531
 7449TIP3    H143762   4.309   4.484   4.246  0.2242  1.0559  1.4931
 7449TIP3    H243763   4.331   4.334   4.258 -1.3791  0.2162 -3.5676
 7450TIP3   OH243764   5.955   6.536   0.888 -0.5676 -0.2785  0.3831
 7450TIP3    H143765   5.940   6.580   0.971  0.4344 -2.8509  2.0560
 7450TIP3    H243766   5.878   6.480   0.876  0.8583 -2.6675  1.5817
 7451TIP3   OH243767   3.986   4.015  14.458  0.6455 -0.0296 -0.1134
 7451TIP3    H143768   3.996   4.030  14.365  1.4309  0.9625  0.1255
 7451TIP3    H243769   3.894   4.035  14.476  0.7866  0.9768 -0.4644
 7452TIP3   OH243770   5.083   0.611  16.223 -0.5682 -0.0590 -0.1734
 7452TIP3    H143771   5.153   0.597  16.287 -1.9513  0.1607  1.4531
 7452TIP3    H243772   5.020   0.542  16.242  0.1257 -1.6323 -3.0678
 7453TIP3   OH243773   4.947   0.057  17.059 -0.5311 -0.3529 -0.0709
 7453TIP3    H143774   4.969   0.015  17.142 -0.0652 -3.4484 -1.6218
 7453TIP3    H243775   5.032   0.077  17.019 -0.7522  1.2225  0.1735
 7454TIP3   OH243776   5.688   1.357  13.641 -0.9077  0.1260  0.2994
 7454TIP3    H143777   5.769   1.322  13.603 -0.4223  0.8976  0.6149
 7454TIP3    H243778   5.695   1.336  13.735 -1.2592 -0.1496  0.2664
 7455TIP3   OH243779   4.081   4.299  16.655  0.7261  0.0845  0.0120
 7455TIP3    H143780   4.045   4.331  16.572 -0.3908  0.6430  0.6895
 7455TIP3    H243781   4.081   4.203  16.645 -3.4307 -0.2115  0.8474
 7456TIP3   OH243782   4.218   5.830   2.610 -0.0402 -0.8753  0.2410
 7456TIP3    H143783   4.306   5.842   2.646  0.2940 -0.9211 -0.5439
 7456TIP3    H243784   4.162   5.817   2.687  0.0830  2.2634  0.9973
 7457TIP3   OH243785   3.110   5.284  11.975 -0.7408 -0.4168  0.4449
 7457TIP3    H143786   3.121   5.266  12.068  2.4870  0.9231  0.4531
 7457TIP3    H243787   3.190   5.251  11.935 -0.3115  2.4024 -1.2499
 7458TIP3   OH243788   0.797   3.282  12.856 -0.1988  0.8051 -0.6912
 7458TIP3    H143789   0.745   3.349  12.810 -0.4433 -0.0773 -1.7419
 7458TIP3    H243790   0.878   3.327  12.880 -0.8719  1.8215 -0.2636
 7459TIP3   OH243791   4.897   1.773   3.052  0.1837 -0.5517 -0.5985
 7459TIP3    H143792   4.848   1.711   2.998  1.2570  0.0827 -2.3994
 7459TIP3    H243793   4.988   1.748   3.040  0.6300  1.2931 -1.3050
 7460TIP3   OH243794   6.424   2.628  17.024  0.6243  0.0941  0.0585
 7460TIP3    H143795   6.515   2.630  16.995  0.8446 -0.0191  0.7127
 7460TIP3    H243796   6.404   2.718  17.050  0.9115 -0.0914  0.9623
 7461TIP3   OH243797   5.329   5.186   2.809 -0.0860  0.2921  0.2840
 7461TIP3    H143798   5.407   5.236   2.786  0.0251 -0.5688 -1.3118
 7461TIP3    H243799   5.314   5.128   2.735 -1.0891 -0.9821  1.4165
 7462TIP3   OH243800   2.366   3.519  16.160 -0.1800  0.3338 -0.2351
 7462TIP3    H143801   2.285   3.484  16.123 -0.4995  0.6152  0.1908
 7462TIP3    H243802   2.390   3.459  16.230 -0.2973  0.5227 -0.0303
 7463TIP3   OH243803   5.543   6.009  11.343  0.4558  0.5676 -0.0442
 7463TIP3    H143804   5.574   6.095  11.371 -2.2364  1.2962  0.9698
 7463TIP3    H243805   5.556   5.953  11.419 -0.1835  0.7489  0.2056
 7464TIP3   OH243806   6.102   1.168  13.350 -0.4116 -0.5047 -0.5925
 7464TIP3    H143807   6.194   1.187  13.332 -0.2465  0.8168  1.3206
 7464TIP3    H243808   6.089   1.077  13.321  2.1353 -1.5581  1.2862
 7465TIP3   OH243809   6.684   0.581   1.145  0.4119  0.4091  0.4294
 7465TIP3    H143810   6.594   0.602   1.121  0.5302  0.7233  0.2603
 7465TIP3    H243811   6.689   0.599   1.239  1.0134  2.9501 -0.0219
 7466TIP3   OH243812   0.773   0.338  15.689  0.2243  0.1860 -0.1031
 7466TIP3    H143813   0.813   0.319  15.604  0.0062  0.6821 -0.3259
 7466TIP3    H243814   0.684   0.365  15.668 -0.2153 -0.8474  0.3863
 7467TIP3   OH243815   4.463   1.081  16.390 -0.3531  0.4291  0.3900
 7467TIP3    H143816   4.482   1.159  16.337 -0.4331  0.7536  0.8383
 7467TIP3    H243817   4.546   1.062  16.434  0.2145 -0.8523 -1.1420
 7468TIP3   OH243818   4.528   3.037   2.900  0.3370 -1.1197  0.2506
 7468TIP3    H143819   4.506   3.017   2.991 -2.2537 -3.3585 -0.7215
 7468TIP3    H243820   4.538   2.952   2.858  1.3357 -0.1464 -1.6090
 7469TIP3   OH243821   2.161   0.645  12.582  0.1902 -0.5204  0.1869
 7469TIP3    H143822   2.124   0.566  12.620 -2.4621  1.0416  1.1195
 7469TIP3    H243823   2.243   0.658  12.630  0.3581 -2.3232  0.4503
 7470TIP3   OH243824   2.290   1.649  16.717  0.0548  0.6206 -0.2597
 7470TIP3    H143825   2.317   1.563  16.685  1.0359  0.8884 -0.1774
 7470TIP3    H243826   2.201   1.661  16.683 -1.2158 -1.5956  1.9687
 7471TIP3   OH243827   5.474   1.131  13.956  0.0914 -0.5899 -0.3043
 7471TIP3    H143828   5.511   1.088  13.879  1.4449 -2.4050  1.2723
 7471TIP3    H243829   5.519   1.215  13.961  0.3712 -0.6789 -1.1800
 7472TIP3   OH243830   3.498   2.092   4.319 -0.4292  0.0162  0.0768
 7472TIP3    H143831   3.591   2.116   4.313 -0.0658 -1.5304 -0.9988
 7472TIP3    H243832   3.467   2.138   4.397  1.3076  0.3498  0.6196
 7473TIP3   OH243833   0.704   6.217  12.069 -0.0309  0.3266  0.1468
 7473TIP3    H143834   0.752   6.223  12.152 -3.5765 -1.2994  2.6077
 7473TIP3    H243835   0.704   6.123  12.048 -2.2554  0.2105  0.4513
 7474TIP3   OH243836   4.902   2.263  17.340  0.3117 -0.4103  0.3348
 7474TIP3    H143837   4.888   2.273  17.246 -0.8861 -0.9979  0.4218
 7474TIP3    H243838   4.900   2.168  17.354 -1.0108 -0.3060  1.1232
 7475TIP3   OH243839   6.274   4.026   2.766 -0.3792 -0.2352  0.6181
 7475TIP3    H143840   6.212   4.008   2.836 -1.6056 -0.2692 -0.4372
 7475TIP3    H243841   6.342   4.079   2.807 -1.7965  0.9590  1.5092
 7476TIP3   OH243842   4.706   3.820   1.456 -0.2180 -0.4855 -0.0523
 7476TIP3    H143843   4.682   3.879   1.384 -1.0543 -1.9191 -1.0011
 7476TIP3    H243844   4.641   3.837   1.524  1.3852  1.8727  1.0276
 7477TIP3   OH243845   6.648   0.021  13.726 -0.1911 -0.5490  0.2427
 7477TIP3    H143846   6.627   0.078  13.652  0.0337  0.2060  0.7485
 7477TIP3    H243847   6.568  -0.029  13.741 -0.1293 -0.9494 -0.7192
 7478TIP3   OH243848   4.125   3.148  15.746  0.0449 -0.1244  0.2424
 7478TIP3    H143849   4.080   3.064  15.746 -1.5977  0.7108  0.4131
 7478TIP3    H243850   4.152   3.161  15.837 -0.4492 -0.1047  0.3906
 7479TIP3   OH243851   4.634   0.646   5.544 -0.1462  0.1692 -0.0108
 7479TIP3    H143852   4.622   0.732   5.584 -0.1008  0.8882 -1.4982
 7479TIP3    H243853   4.551   0.600   5.560 -0.6145  0.9207 -0.2374
 7480TIP3   OH243854   2.441   6.417   5.110 -0.2415 -0.1526 -0.0768
 7480TIP3    H143855   2.492   6.487   5.070  0.5108 -0.0501  1.0224
 7480TIP3    H243856   2.414   6.453   5.195  0.1741 -1.1991  0.5147
 7481TIP3   OH243857   5.443   5.995   4.312 -0.2004  0.3722 -0.1462
 7481TIP3    H143858   5.498   5.935   4.260  0.2272  0.0855  0.6175
 7481TIP3    H243859   5.397   6.048   4.247  0.3715  0.0617 -0.8163
 7482TIP3   OH243860   0.308   6.307   1.232 -0.5042 -0.0201  0.3733
 7482TIP3    H143861   0.293   6.371   1.300  0.2020 -1.4868  1.9947
 7482TIP3    H243862   0.284   6.351   1.151  2.4663  3.2499  1.0211
 7483TIP3   OH243863   0.073   3.336  15.319  0.7507  0.1036 -0.0335
 7483TIP3    H143864  -0.010   3.300  15.289 -0.1996  1.4231  0.9182
 7483TIP3    H243865   0.116   3.367  15.239 -0.9891  2.0497 -0.3021
 7484TIP3   OH243866   3.026   2.244   0.655  0.2983  0.0772 -0.1897
 7484TIP3    H143867   3.116   2.224   0.680  0.1350  0.1843  0.5064
 7484TIP3    H243868   2.974   2.221   0.732 -0.4430 -1.2808 -1.0496
 7485TIP3   OH243869   2.318   3.235  13.108 -0.3410 -0.4350  0.2027
 7485TIP3    H143870   2.323   3.157  13.052  0.4195 -0.3103  0.0745
 7485TIP3    H243871   2.401   3.234  13.157 -0.4791  0.1053  0.4533
 7486TIP3   OH243872   2.597   0.284  11.476  0.1015  0.3571 -0.4035
 7486TIP3    H143873   2.537   0.212  11.458 -0.3299  0.6165 -0.0419
 7486TIP3    H243874   2.548   0.363  11.450  0.0435  0.6198  0.4684
 7487TIP3   OH243875   5.003   0.589  15.536  0.6089 -0.1738  0.4747
 7487TIP3    H143876   4.908   0.592  15.548  0.5813  4.3414  0.9978
 7487TIP3    H243877   5.017   0.630  15.451  2.0823 -0.9259  0.3364
 7488TIP3   OH243878   2.045   1.605  15.692 -0.7882  0.3257 -0.1901
 7488TIP3    H143879   2.090   1.620  15.775 -2.9360 -0.6270  1.2367
 7488TIP3    H243880   2.035   1.692  15.653  2.2054  0.5795 -0.6371
 7489TIP3   OH243881   4.639   6.745   6.583  0.0779 -0.6778  0.5809
 7489TIP3    H143882   4.597   6.781   6.661 -0.0831 -2.7633  1.5213
 7489TIP3    H243883   4.568   6.703   6.535  0.4458 -0.8108  0.1499
 7490TIP3   OH243884   2.974   5.975   3.470  0.8032  0.2163  0.3128
 7490TIP3    H143885   2.909   5.914   3.503  0.2879  0.9014  0.5793
 7490TIP3    H243886   3.055   5.949   3.514  0.3869  0.3349  1.1754
 7491TIP3   OH243887   1.031   5.942  11.170  0.4024 -0.4475 -0.2623
 7491TIP3    H143888   1.089   5.974  11.239 -0.0827 -0.2439  0.0596
 7491TIP3    H243889   1.073   5.968  11.089  0.6073 -0.0291 -0.0246
 7492TIP3   OH243890   3.924   0.395   4.400  0.5030 -0.3215  0.6532
 7492TIP3    H143891   3.852   0.355   4.351  0.8995 -0.6688  0.3474
 7492TIP3    H243892   3.896   0.486   4.414  0.5112 -0.1438 -0.4556
 7493TIP3   OH243893   5.614   6.333  16.614  0.5829 -0.0683 -0.0103
 7493TIP3    H143894   5.598   6.260  16.674 -0.0755  0.2976  0.2738
 7493TIP3    H243895   5.526   6.360  16.585  0.9085 -0.5846 -1.5716
 7494TIP3   OH243896   4.506   1.153   1.874 -0.3193  0.2296  0.0143
 7494TIP3    H143897   4.521   1.199   1.792 -0.0357  1.5273  0.7599
 7494TIP3    H243898   4.412   1.160   1.889 -0.2942  0.4672  0.0639
 7495TIP3   OH243899   2.948   5.109  14.301 -0.1362 -0.0078  0.1598
 7495TIP3    H143900   2.914   5.128  14.213 -0.8325  0.1951  0.4677
 7495TIP3    H243901   2.916   5.021  14.320  1.7385 -0.9100 -0.6090
 7496TIP3   OH243902   5.684   2.048  15.497 -0.2231 -0.2502 -0.2727
 7496TIP3    H143903   5.730   2.102  15.432 -0.6309  3.2114  2.0779
 7496TIP3    H243904   5.610   2.012  15.449  1.6451 -1.2155 -2.6807
 7497TIP3   OH243905   0.112   4.132   2.379 -0.2929 -0.3203  0.5430
 7497TIP3    H143906   0.049   4.150   2.309  0.5492 -1.0243 -0.4205
 7497TIP3    H243907   0.188   4.095   2.334  1.5085  1.9794  1.4455
 7498TIP3   OH243908   6.194   5.820   0.675  0.1748 -0.1231 -0.4533
 7498TIP3    H143909   6.233   5.737   0.645  2.4137  0.4931  0.4985
 7498TIP3    H243910   6.182   5.870   0.595 -1.2719 -1.3627 -1.0514
 7499TIP3   OH243911   1.269   3.943   4.832 -0.8070 -0.1436  0.2956
 7499TIP3    H143912   1.210   3.879   4.793 -2.6023  0.7812  1.3506
 7499TIP3    H243913   1.324   3.893   4.893 -1.7365 -0.7853  0.6201
 7500TIP3   OH243914   5.815   3.520   1.630  1.0269 -0.1270  0.0500
 7500TIP3    H143915   5.880   3.453   1.610  0.6238 -0.7578  0.7861
 7500TIP3    H243916   5.865   3.592   1.667  1.1684 -1.3250  2.3482
 7501TIP3   OH243917   3.723   2.028  11.630  0.6944  0.3220  0.1698
 7501TIP3    H143918   3.679   2.065  11.707 -1.4131  1.0615 -1.2833
 7501TIP3    H243919   3.728   1.934  11.647 -0.4472  0.3778  0.9108
 7502TIP3   OH243920   5.957   3.600   2.325 -0.3619  0.5565 -0.2828
 7502TIP3    H143921   6.024   3.657   2.363 -1.4937  1.5005  0.3743
 7502TIP3    H243922   5.929   3.544   2.398  1.3539 -1.5265 -1.1265
 7503TIP3   OH243923   6.179   1.359  15.454  0.3697  0.5247 -0.0670
 7503TIP3    H143924   6.272   1.338  15.456  0.1388 -0.5318  0.3599
 7503TIP3    H243925   6.173   1.439  15.402  1.2620 -0.7558 -2.2563
 7504TIP3   OH243926   6.001   3.638   6.595 -0.1520  0.2064  0.6140
 7504TIP3    H143927   6.083   3.675   6.562 -0.7330  1.1834  0.2267
 7504TIP3    H243928   5.934   3.672   6.536 -0.6398 -2.1491 -0.2690
 7505TIP3   OH243929   1.245   0.487   0.273  0.3174  0.0993  0.6698
 7505TIP3    H143930   1.210   0.537   0.346  0.3662 -1.9610  2.2054
 7505TIP3    H243931   1.232   0.395   0.299 -2.3716 -0.8701 -3.1645
 7506TIP3   OH243932   4.773   2.221  13.679  0.0041  0.2283  0.1974
 7506TIP3    H143933   4.766   2.300  13.625 -1.3382 -0.1389 -0.2256
 7506TIP3    H243934   4.816   2.157  13.623  0.1948  0.3665  0.1853
 7507TIP3   OH243935   4.542   3.252   1.627 -0.2760 -0.2320  0.0974
 7507TIP3    H143936   4.531   3.215   1.539  1.6860  0.4929 -0.5011
 7507TIP3    H243937   4.542   3.347   1.613 -0.2070 -0.1059  0.9295
 7508TIP3   OH243938   3.130   6.224  13.020 -0.4670  0.2628  0.1576
 7508TIP3    H143939   3.079   6.219  13.101 -1.6262 -2.2063 -0.6231
 7508TIP3    H243940   3.068   6.204  12.950  1.3154 -2.0980 -0.9043
 7509TIP3   OH243941   1.576   4.017   0.258  0.1119  0.1126 -0.4815
 7509TIP3    H143942   1.606   4.082   0.321 -0.0395 -0.3971  0.1364
 7509TIP3    H243943   1.531   4.067   0.191 -0.0499  0.6439  0.0122
 7510TIP3   OH243944   3.320   0.552  13.283 -0.7218 -0.6453  0.1567
 7510TIP3    H143945   3.341   0.527  13.373 -0.3047 -2.5489 -0.4268
 7510TIP3    H243946   3.332   0.647  13.281  0.4655 -0.7195  1.7913
 7511TIP3   OH243947   1.015   3.981  13.876  0.3264  0.3987 -0.4801
 7511TIP3    H143948   0.946   3.993  13.942  0.7290  0.2412 -0.0234
 7511TIP3    H243949   0.970   3.992  13.793 -0.2127  0.5112 -0.1826
 7512TIP3   OH243950   1.528   1.420   2.751 -0.1422 -0.5692  0.2736
 7512TIP3    H143951   1.555   1.362   2.822  2.3869 -0.6981 -0.6866
 7512TIP3    H243952   1.492   1.360   2.685  1.9310 -1.0996 -0.4717
 7513TIP3   OH243953   1.395   1.938  14.096  0.7763  0.4428 -0.5018
 7513TIP3    H143954   1.363   1.909  14.182  3.6039 -0.7753  0.2494
 7513TIP3    H243955   1.410   2.032  14.107 -0.8571  0.7324 -0.3976
 7514TIP3   OH243956   2.900   1.006  13.439 -0.2747 -0.0899  0.4591
 7514TIP3    H143957   2.967   1.073  13.438  0.7005 -1.0407 -0.1268
 7514TIP3    H243958   2.881   0.991  13.531 -0.1244  0.6049  0.6029
 7515TIP3   OH243959   4.656   6.391   5.647  0.5655  0.3522  0.2761
 7515TIP3    H143960   4.614   6.461   5.697  1.6710  1.2307  0.0161
 7515TIP3    H243961   4.596   6.375   5.574  0.5502  1.4261  0.0363
 7516TIP3   OH243962   6.343   5.036   0.237  0.1202  0.0415 -0.3745
 7516TIP3    H143963   6.407   4.976   0.200 -0.0139 -0.4084  0.1082
 7516TIP3    H243964   6.289   4.981   0.295  1.1918  0.9364  1.5942
 7517TIP3   OH243965   6.399   4.399  13.261  0.5223  0.5841 -0.0898
 7517TIP3    H143966   6.333   4.425  13.197 -0.0037  2.0450  1.0163
 7517TIP3    H243967   6.351   4.386  13.342  1.3387 -0.2446  0.2813
 7518TIP3   OH243968   5.801   4.601   1.284 -0.3083  0.6182  0.6437
 7518TIP3    H143969   5.719   4.635   1.319 -1.2166  0.5935 -1.3365
 7518TIP3    H243970   5.798   4.622   1.191  2.3307  1.3650  0.6475
 7519TIP3   OH243971   0.708   1.679  15.643  0.2425  0.2434  0.6359
 7519TIP3    H143972   0.696   1.745  15.712 -1.4619 -0.1298  0.7386
 7519TIP3    H243973   0.801   1.683  15.622  0.2024  2.7757  0.5588
 7520TIP3   OH243974   1.782   3.824   6.530  0.4270  0.0188  0.4469
 7520TIP3    H143975   1.789   3.824   6.435 -1.6347 -0.0588  0.2671
 7520TIP3    H243976   1.726   3.750   6.551  1.8369 -0.7054  1.8408
 7521TIP3   OH243977   3.254   4.340   4.331  0.2235  0.5517 -0.5117
 7521TIP3    H143978   3.200   4.272   4.371  1.1931  0.2056  0.2492
 7521TIP3    H243979   3.263   4.312   4.240  0.6202 -0.3720 -0.2091
 7522TIP3   OH243980   6.454   0.287  15.800 -0.3856  0.0881  0.0770
 7522TIP3    H143981   6.459   0.382  15.789 -0.2180  0.2609  1.4571
 7522TIP3    H243982   6.537   0.264  15.842 -0.6082 -0.6184  0.1356
 7523TIP3   OH243983   2.765   4.312  13.722 -0.5285  0.2040  0.1266
 7523TIP3    H143984   2.752   4.361  13.641  1.1326  0.4841 -0.0094
 7523TIP3    H243985   2.817   4.371  13.777  1.6171 -1.3726 -0.0798
 7524TIP3   OH243986   0.372   0.862   0.187 -0.0361 -0.2289 -0.1660
 7524TIP3    H143987   0.453   0.828   0.225  0.4489  0.0956 -0.9017
 7524TIP3    H243988   0.395   0.885   0.097 -0.4659  1.5650  0.1467
 7525TIP3   OH243989   0.455   2.252   0.703  0.3528 -0.7477  0.3808
 7525TIP3    H143990   0.548   2.246   0.727  0.1023 -1.1559  1.2889
 7525TIP3    H243991   0.409   2.262   0.786 -0.2166  2.6160 -0.1911
 7526TIP3   OH243992   3.983   2.222  14.709  0.0823  0.1201  0.5010
 7526TIP3    H143993   3.999   2.151  14.646  0.9155 -0.3345  1.2062
 7526TIP3    H243994   4.017   2.300  14.665  0.4017 -0.1431  0.2678
 7527TIP3   OH243995   6.606   5.657  16.140  0.0119 -0.3315  0.4202
 7527TIP3    H143996   6.652   5.736  16.170  0.8073 -0.7650  0.3714
 7527TIP3    H243997   6.668   5.586  16.157 -0.9049 -1.0207  0.9615
 7528TIP3   OH243998   6.727   6.505   2.445  0.7389  0.3468 -0.6755
 7528TIP3    H143999   6.678   6.564   2.387  0.5464 -0.5385 -1.4465
 7528TIP3    H244000   6.815   6.542   2.449 -0.0582  2.2246  1.1017
 7529TIP3   OH244001   6.633   6.172  10.898  0.2790 -0.2588  0.0746
 7529TIP3    H144002   6.565   6.144  10.959 -1.6850  4.2408  0.3637
 7529TIP3    H244003   6.585   6.203  10.821  2.1718  0.8345 -0.7307
 7530TIP3   OH244004   6.049   3.579  14.703  0.5015  0.3230  0.8359
 7530TIP3    H144005   6.125   3.536  14.664 -0.1562  0.2236 -0.3759
 7530TIP3    H244006   5.975   3.522  14.680 -0.0780  0.9257  1.1605
 7531TIP3   OH244007   4.322   1.415  12.178 -0.2048  0.7147  0.3984
 7531TIP3    H144008   4.351   1.390  12.090 -1.1782 -1.8924  0.7319
 7531TIP3    H244009   4.293   1.506  12.169  0.2677  0.6975 -1.8226
 7532TIP3   OH244010   5.683   0.975  10.378  0.0296 -0.4427  0.7471
 7532TIP3    H144011   5.666   1.062  10.414  1.1323 -0.2440  0.8340
 7532TIP3    H244012   5.760   0.944  10.427 -0.3331 -1.4592  0.7048
 7533TIP3   OH244013   4.035   3.850   1.835 -0.3434 -0.1231 -0.1587
 7533TIP3    H144014   4.097   3.794   1.788  2.1364  3.9417 -2.2438
 7533TIP3    H244015   4.069   3.852   1.925  1.6725  0.6914 -0.8727
 7534TIP3   OH244016   5.008   5.248  16.025 -0.1889  0.6508  0.4436
 7534TIP3    H144017   5.009   5.256  15.930 -1.2902  1.1236  0.4561
 7534TIP3    H244018   5.089   5.201  16.046  1.3319  2.7082 -0.5194
 7535TIP3   OH244019   4.931   1.337   0.445  0.6242 -0.6127  0.1342
 7535TIP3    H144020   4.931   1.309   0.353 -0.3706 -0.8659  0.1945
 7535TIP3    H244021   5.000   1.286   0.486  0.7247 -0.8883 -0.3688
 7536TIP3   OH244022   4.889   6.738  15.224  0.2921  0.0099  0.1715
 7536TIP3    H144023   4.861   6.777  15.307  0.2895 -0.7332  0.5228
 7536TIP3    H244024   4.810   6.733  15.171  0.0490 -0.6415  0.5830
 7537TIP3   OH244025   0.788   1.152  16.328 -0.3015  0.3943 -0.0047
 7537TIP3    H144026   0.766   1.211  16.256 -0.8655  0.3263  0.1134
 7537TIP3    H244027   0.706   1.136  16.373 -0.4009 -1.4279 -0.7236
 7538TIP3   OH244028   6.618   3.359   4.074  0.4840 -0.9207  0.6215
 7538TIP3    H144029   6.605   3.264   4.081 -1.2097 -0.7867 -0.1479
 7538TIP3    H244030   6.537   3.391   4.034  0.3851  1.0511  2.2653
 7539TIP3   OH244031   4.876   1.508   2.939  0.5158  0.0076  0.5676
 7539TIP3    H144032   4.944   1.457   2.983 -0.1386 -1.0386  0.3718
 7539TIP3    H244033   4.828   1.445   2.885  1.6003  1.2865 -2.1136
 7540TIP3   OH244034   1.934   3.162   1.503  0.2238  0.0634  0.2576
 7540TIP3    H144035   2.000   3.172   1.434  0.0823  0.7059  0.2149
 7540TIP3    H244036   1.866   3.225   1.480 -0.3463 -0.4950  0.3789
 7541TIP3   OH244037   3.876   2.858  12.142  0.3911  0.3589  0.1755
 7541TIP3    H144038   3.934   2.790  12.176 -0.3562 -0.3330  0.0871
 7541TIP3    H244039   3.927   2.901  12.073  0.0760 -1.6066 -1.3534
 7542TIP3   OH244040   3.216   3.983  17.079 -0.7002 -0.1939  0.5422
 7542TIP3    H144041   3.259   3.916  17.132 -2.3384  0.5205  2.9903
 7542TIP3    H244042   3.272   4.060  17.089  0.8529 -0.9153 -1.7684
 7543TIP3   OH244043   6.291   5.005   2.445  0.0097 -0.4522 -0.4789
 7543TIP3    H144044   6.220   5.003   2.381  0.2713 -2.0805 -0.7508
 7543TIP3    H244045   6.344   4.928   2.426  3.2879  1.8958 -1.8457
 7544TIP3   OH244046   4.971   0.883   5.051 -0.2438 -0.2725  0.0615
 7544TIP3    H144047   5.000   0.810   5.107 -1.5178 -0.0718  1.0335
 7544TIP3    H244048   5.052   0.925   5.022  0.4979 -1.6597  0.0392
 7545TIP3   OH244049   5.709   0.546  12.287 -0.3893 -0.1868 -0.0930
 7545TIP3    H144050   5.720   0.524  12.195  0.2041  0.3393 -0.1583
 7545TIP3    H244051   5.620   0.521  12.308 -0.6634  0.0737 -0.9231
 7546TIP3   OH244052   4.564   4.817  11.615 -0.7263 -0.1431 -0.1439
 7546TIP3    H144053   4.484   4.866  11.635  1.3253  3.0660  1.0273
 7546TIP3    H244054   4.601   4.796  11.701  0.9656  0.8254 -0.5879
 7547TIP3   OH244055   5.937   6.014  11.446  0.0086 -0.5755  0.4345
 7547TIP3    H144056   5.965   5.999  11.356 -0.4279  1.4471 -0.0907
 7547TIP3    H244057   6.013   5.991  11.500  0.9981  0.1483 -0.6126
 7548TIP3   OH244058   2.120   5.037   2.872 -0.4373  0.0712  0.8814
 7548TIP3    H144059   2.112   5.038   2.776  0.3333 -1.5670  0.7730
 7548TIP3    H244060   2.191   4.976   2.889  0.4020  1.4164  2.4641
 7549TIP3   OH244061   3.007   0.346   1.048 -0.1644  0.3033 -0.6042
 7549TIP3    H144062   2.952   0.297   0.987  0.0722 -2.0646  0.9565
 7549TIP3    H244063   3.070   0.282   1.080  1.4581  2.1512  0.1129
 7550TIP3   OH244064   5.980   3.366   4.052  0.2065 -0.0888 -0.1902
 7550TIP3    H144065   5.923   3.318   3.992 -2.0293  2.1523 -0.0153
 7550TIP3    H244066   5.951   3.457   4.045  4.5706  1.4547 -0.9225
 7551TIP3   OH244067   0.182   1.946   4.462  0.3041 -0.0098  0.2629
 7551TIP3    H144068   0.204   1.947   4.555 -1.5133  0.9804  0.7053
 7551TIP3    H244069   0.198   2.035   4.432 -0.2124 -0.0347 -0.1043
 7552TIP3   OH244070   5.281   4.397  12.455  0.0595 -0.1567  0.3977
 7552TIP3    H144071   5.289   4.302  12.444  1.4150 -0.4792  3.4128
 7552TIP3    H244072   5.203   4.408  12.509 -0.1671  0.4959 -0.0510
 7553TIP3   OH244073   6.462   0.874   0.548  0.2779  0.5745  0.0449
 7553TIP3    H144074   6.418   0.873   0.633 -1.6705 -0.9871 -0.9168
 7553TIP3    H244075   6.417   0.942   0.498  0.5333  0.5739 -0.1890
 7554TIP3   OH244076   4.472   5.230   2.650  0.4090  0.4168  0.8569
 7554TIP3    H144077   4.378   5.216   2.643  0.4087 -0.1530  1.8748
 7554TIP3    H244078   4.483   5.289   2.725  0.8841  0.1803  0.9816
 7555TIP3   OH244079   3.540   3.535  16.658  0.3544 -0.5163 -0.5655
 7555TIP3    H144080   3.535   3.615  16.606  0.5242  0.1403  0.3912
 7555TIP3    H244081   3.633   3.510  16.656 -0.0404 -2.0337 -2.7776
 7556TIP3   OH244082   5.960   4.429   3.572  1.0187  0.2012 -0.2275
 7556TIP3    H144083   5.929   4.418   3.482  1.2393  1.0662 -0.4176
 7556TIP3    H244084   5.885   4.467   3.619  0.5313 -1.2648  0.2306
 7557TIP3   OH244085   5.858   3.526   2.070  0.0288  0.2807  0.1206
 7557TIP3    H144086   5.890   3.542   2.159  1.5682  0.2828 -0.3954
 7557TIP3    H244087   5.896   3.597   2.018  2.6169 -1.9027 -1.2428
 7558TIP3   OH244088   4.115   2.577   1.599 -0.1784  0.0676 -0.0656
 7558TIP3    H144089   4.162   2.650   1.559  2.3657 -1.3571  0.0553
 7558TIP3    H244090   4.103   2.603   1.690  3.6315 -0.7434  0.8573
 7559TIP3   OH244091   2.267   6.228   5.201 -0.1934  0.1825 -0.0354
 7559TIP3    H144092   2.252   6.254   5.292  0.0288  0.5455 -0.0991
 7559TIP3    H244093   2.336   6.287   5.171 -2.1159  1.9595 -1.2523
 7560TIP3   OH244094   4.852   5.839   1.823  0.2492 -0.0045  0.1140
 7560TIP3    H144095   4.892   5.813   1.740 -0.2936 -0.6321  0.0410
 7560TIP3    H244096   4.796   5.765   1.847  2.0439 -0.8253  2.1516
 7561TIP3   OH244097   4.774   2.036   3.562  0.3006  0.0262 -0.7065
 7561TIP3    H144098   4.702   2.027   3.625  0.6342 -0.9509 -0.4480
 7561TIP3    H244099   4.839   1.972   3.591  1.6118  1.4181 -0.4903
 7562TIP3   OH244100   4.013   1.294   6.806 -0.2048 -0.0372  0.3667
 7562TIP3    H144101   4.104   1.275   6.785 -0.4891 -0.5142 -0.4791
 7562TIP3    H244102   4.013   1.387   6.829  0.1015  0.6624 -2.1341
 7563TIP3   OH244103   2.391   3.088   5.772  0.0743 -0.6391 -1.2171
 7563TIP3    H144104   2.389   3.155   5.840 -1.5859 -0.8783 -0.9906
 7563TIP3    H244105   2.448   3.020   5.807 -1.8261 -1.3851  0.6117
 7564TIP3   OH244106   2.492   2.690   4.933 -0.1942  0.0786  0.6051
 7564TIP3    H144107   2.529   2.775   4.910 -0.2881 -0.3501 -1.2918
 7564TIP3    H244108   2.493   2.689   5.029 -3.3100  3.6286  0.9304
 7565TIP3   OH244109   1.546   5.879   5.682  0.7300 -0.4723 -0.7082
 7565TIP3    H144110   1.508   5.912   5.764 -1.0534  0.6310 -1.8771
 7565TIP3    H244111   1.634   5.850   5.705  1.8227  3.4616  0.8866
 7566TIP3   OH244112   2.882   5.817  11.422  0.5201  0.3819  0.1864
 7566TIP3    H144113   2.808   5.787  11.370  0.6203  0.1009  0.2066
 7566TIP3    H244114   2.899   5.746  11.484 -0.2087  1.1052  1.2494
 7567TIP3   OH244115   0.085   5.914   2.937  0.6635 -0.0265 -0.7436
 7567TIP3    H144116   0.176   5.890   2.920  1.4597 -0.8166  3.5375
 7567TIP3    H244117   0.045   5.833   2.969  0.0849  1.4747  2.6892
 7568TIP3   OH244118   5.089   2.571   2.372 -0.0666  0.5373  0.3192
 7568TIP3    H144119   5.121   2.540   2.287 -0.1104 -0.4784  0.6608
 7568TIP3    H244120   5.002   2.531   2.381 -0.9541  2.2550 -0.0409
 7569TIP3   OH244121   5.470   4.685  15.175 -0.2701 -0.1977  0.2185
 7569TIP3    H144122   5.465   4.610  15.234  0.1553  0.1215  0.6664
 7569TIP3    H244123   5.526   4.656  15.104 -0.2975 -0.3864  0.2741
 7570TIP3   OH244124   0.903   3.587   2.812 -0.1287 -0.2624 -0.3284
 7570TIP3    H144125   0.922   3.564   2.721 -0.3042 -0.3976 -0.3335
 7570TIP3    H244126   0.813   3.557   2.826  0.2052 -1.0757  0.1581
 7571TIP3   OH244127   6.075   1.991   6.896 -0.0829  0.0958  0.2163
 7571TIP3    H144128   6.151   1.953   6.853  0.6481  0.5199  1.0886
 7571TIP3    H244129   6.016   1.918   6.912  2.3900 -1.3012  4.2287
 7572TIP3   OH244130   0.720   4.699  15.282 -0.3717  0.2565  0.1016
 7572TIP3    H144131   0.737   4.723  15.373 -1.0329  0.6078  0.1389
 7572TIP3    H244132   0.803   4.715  15.237 -0.4186  1.3936  0.3814
 7573TIP3   OH244133   5.341   3.517  15.385 -1.0728  0.3689 -0.3626
 7573TIP3    H144134   5.370   3.430  15.410  1.7778  1.5212  0.7384
 7573TIP3    H244135   5.379   3.532  15.299 -0.4899  0.9454 -0.0189
 7574TIP3   OH244136   6.380   6.049  13.708  0.5314  0.5373 -0.0091
 7574TIP3    H144137   6.375   5.980  13.642  0.6710  0.6325 -0.1190
 7574TIP3    H244138   6.294   6.050  13.749  1.1716 -1.2558  1.5656
 7575TIP3   OH244139   2.983   6.311   4.868 -0.4287 -0.2733  0.4576
 7575TIP3    H144140   3.031   6.235   4.901  0.1633 -0.1545 -0.0913
 7575TIP3    H244141   3.045   6.353   4.807 -1.4656 -0.5101 -0.8084
 7576TIP3   OH244142   6.521   0.943   5.084 -0.2178  1.3177  0.0605
 7576TIP3    H144143   6.431   0.976   5.090 -0.6778  0.3246 -1.0235
 7576TIP3    H244144   6.512   0.848   5.091  0.8465  1.2619  0.7704
 7577TIP3   OH244145   2.152   4.218   5.150 -0.5089  0.8977 -0.5780
 7577TIP3    H144146   2.162   4.124   5.133  0.0993  0.8739 -0.1170
 7577TIP3    H244147   2.057   4.231   5.156 -0.5921  0.2952 -0.5464
 7578TIP3   OH244148   5.428   4.434  12.122  0.8606 -0.4062 -0.1888
 7578TIP3    H144149   5.470   4.392  12.198  0.7696  0.3125  0.2660
 7578TIP3    H244150   5.335   4.426  12.139  0.7724 -1.9405 -1.1670
 7579TIP3   OH244151   6.626   6.668   0.465  0.8213  0.0134  0.3218
 7579TIP3    H144152   6.571   6.599   0.427  1.0429  0.4489 -0.8484
 7579TIP3    H244153   6.564   6.735   0.493  0.5871 -0.7289  1.6811
 7580TIP3   OH244154   6.669   4.764  15.864  0.3650 -0.3210  0.6548
 7580TIP3    H144155   6.586   4.733  15.902 -1.0664  1.3186 -0.9651
 7580TIP3    H244156   6.670   4.727  15.776 -0.0327  1.8365 -0.3199
 7581TIP3   OH244157   5.040   5.700  10.657 -0.2947 -0.0478 -0.2832
 7581TIP3    H144158   5.090   5.620  10.668 -1.2323 -0.5078  0.8272
 7581TIP3    H244159   4.949   5.673  10.665 -0.6012  1.2329  1.0272
 7582TIP3   OH244160   4.113   1.964  16.127 -0.1134  0.2815  0.4489
 7582TIP3    H144161   4.121   1.931  16.037  0.4055 -0.6888  0.8392
 7582TIP3    H244162   4.131   2.058  16.119 -0.4129  0.2727 -0.5083
 7583TIP3   OH244163   3.281   1.445  16.903 -0.0414  0.5123  0.0644
 7583TIP3    H144164   3.224   1.518  16.929  0.6153  0.0911  3.1283
 7583TIP3    H244165   3.230   1.367  16.924  0.1955  0.0750 -0.9344
 7584TIP3   OH244166   4.386   5.829   4.369 -0.1284 -0.3250 -0.1293
 7584TIP3    H144167   4.469   5.813   4.414  0.5437  1.3847 -0.6997
 7584TIP3    H244168   4.411   5.851   4.279 -1.2414 -0.2716 -0.4386
 7585TIP3   OH244169   0.803   4.092   0.539 -0.0336 -0.0529  0.5545
 7585TIP3    H144170   0.826   4.011   0.585 -1.6636  0.0018  1.5477
 7585TIP3    H244171   0.711   4.081   0.516  0.6406  0.0511 -2.5421
 7586TIP3   OH244172   1.372   5.243  15.945 -0.4901  0.3878  0.0853
 7586TIP3    H144173   1.434   5.272  16.012 -2.2920 -0.9993  2.5452
 7586TIP3    H244174   1.341   5.158  15.976 -1.5249 -0.2886 -2.5119
 7587TIP3   OH244175   2.713   6.583   3.261 -0.1165  0.3025 -0.3838
 7587TIP3    H144176   2.797   6.596   3.218  2.0289 -2.4516  2.4634
 7587TIP3    H244177   2.678   6.503   3.223 -0.8533  0.7497 -0.6689
 7588TIP3   OH244178   4.096   2.491   0.444  0.1669 -0.6079 -0.0871
 7588TIP3    H144179   4.055   2.468   0.527 -0.7217 -0.6981 -0.5357
 7588TIP3    H244180   4.088   2.587   0.439  0.9704 -0.5130  0.3046
 7589TIP3   OH244181   2.981   3.432  16.203  0.3403 -0.1323 -0.1898
 7589TIP3    H144182   2.929   3.415  16.281  0.2321 -1.4970 -0.5344
 7589TIP3    H244183   3.006   3.524  16.210 -0.1187 -0.0941  1.1751
 7590TIP3   OH244184   2.163   3.773   3.478  0.1486 -0.0491  0.0499
 7590TIP3    H144185   2.242   3.818   3.506 -0.3539  0.1832  1.1924
 7590TIP3    H244186   2.181   3.742   3.390  0.4677  2.5128 -0.8428
 7591TIP3   OH244187   4.096   5.788  11.098 -0.3968  0.1753 -0.3280
 7591TIP3    H144188   4.138   5.827  11.174 -0.2330  0.7097 -0.6852
 7591TIP3    H244189   4.119   5.846  11.025  0.4076 -0.9623 -0.9983
 7592TIP3   OH244190   4.257   0.005   5.320  0.0023 -0.6056 -0.2364
 7592TIP3    H144191   4.308   0.061   5.379  0.2730  0.2647 -1.2500
 7592TIP3    H244192   4.321  -0.058   5.286 -0.1338 -1.0492  0.3157
 7593TIP3   OH244193   4.772   5.618  11.363  0.2623  0.1374 -0.1442
 7593TIP3    H144194   4.832   5.681  11.402  1.2255 -0.2603 -0.9357
 7593TIP3    H244195   4.822   5.537  11.358 -0.3176 -0.1905 -0.8758
 7594TIP3   OH244196   0.303   2.963   6.102 -0.4077  0.5802 -0.1367
 7594TIP3    H144197   0.365   2.989   6.171 -0.5808 -0.8912  0.6046
 7594TIP3    H244198   0.355   2.909   6.043 -0.6929  0.3747 -0.1993
 7595TIP3   OH244199   1.607   3.329   1.125 -0.4515 -0.7982  0.3362
 7595TIP3    H144200   1.609   3.246   1.078  2.2457 -1.7396  1.9057
 7595TIP3    H244201   1.576   3.306   1.213 -0.6232  0.0236  0.5017
 7596TIP3   OH244202   4.234   6.313  12.499  0.3857  0.2240 -0.5457
 7596TIP3    H144203   4.239   6.359  12.415  0.1171  0.6649 -0.3181
 7596TIP3    H244204   4.231   6.382  12.565 -0.0412 -0.1173 -0.2056
 7597TIP3   OH244205   1.528   5.771   4.123 -0.4167  0.3687 -0.2152
 7597TIP3    H144206   1.493   5.836   4.184 -1.6344 -1.4306  1.1130
 7597TIP3    H244207   1.463   5.769   4.052 -0.3925  0.5553 -0.2446
 7598TIP3   OH244208   3.647   2.339   4.536 -0.2672 -0.2930  0.3316
 7598TIP3    H144209   3.681   2.329   4.625 -0.9654  2.2279  0.9647
 7598TIP3    H244210   3.637   2.434   4.525 -3.3882 -0.6910 -1.2039
 7599TIP3   OH244211   2.846   3.306  17.227 -0.0765 -0.1066 -0.6623
 7599TIP3    H144212   2.831   3.385  17.278  0.3198 -1.1356  1.1099
 7599TIP3    H244213   2.759   3.269  17.214 -0.2953  0.7485 -1.7632
 7600TIP3   OH244214   0.459   6.194   5.619  0.0071  0.5478  0.2240
 7600TIP3    H144215   0.417   6.109   5.603 -0.6459  0.8578  0.2599
 7600TIP3    H244216   0.517   6.178   5.693  0.8719 -0.1826 -0.5846
 7601TIP3   OH244217   4.909   6.393   4.416 -0.8532 -0.0572 -0.0397
 7601TIP3    H144218   4.867   6.381   4.502  0.4296 -1.6933  0.4187
 7601TIP3    H244219   4.840   6.374   4.353 -1.4310 -0.3517  0.6647
 7602TIP3   OH244220   6.370   6.058  16.747 -0.5027  0.0036 -0.2505
 7602TIP3    H144221   6.401   6.082  16.834 -0.9201 -0.0227 -0.0903
 7602TIP3    H244222   6.380   6.138  16.695 -0.4278  0.0748 -0.1261
 7603TIP3   OH244223   2.773   0.333  13.257  0.5165 -0.7316 -0.0134
 7603TIP3    H144224   2.828   0.317  13.333 -0.9493 -0.8734  1.0587
 7603TIP3    H244225   2.775   0.251  13.209 -1.0426 -1.7467  1.5585
 7604TIP3   OH244226   2.958   3.793   1.572 -0.0258 -0.3880 -0.0280
 7604TIP3    H144227   2.945   3.711   1.525  0.2707 -0.7282  0.4661
 7604TIP3    H244228   2.991   3.765   1.658  1.9940  0.3152 -0.5225
 7605TIP3   OH244229   4.169   3.318  14.107 -0.0793 -0.2105 -0.3006
 7605TIP3    H144230   4.158   3.229  14.140 -0.5992 -0.5755 -1.3970
 7605TIP3    H244231   4.228   3.309  14.032 -0.3723  0.3208 -0.6045
 7606TIP3   OH244232   6.337   1.356  10.904  0.2700 -0.0922  0.2439
 7606TIP3    H144233   6.299   1.279  10.947  0.5446 -0.1226  0.4376
 7606TIP3    H244234   6.321   1.342  10.811  0.8490 -0.6791  0.2226
 7607TIP3   OH244235   0.710   3.077  17.163 -0.1041  0.0370 -0.2490
 7607TIP3    H144236   0.715   3.172  17.175  1.9884  0.0595 -0.8684
 7607TIP3    H244237   0.796   3.045  17.190 -0.4267 -1.5673 -0.9951
 7608TIP3   OH244238   0.129   3.167  16.277  0.0155  0.4860  0.0433
 7608TIP3    H144239   0.168   3.153  16.191  2.6437  0.4039  1.1481
 7608TIP3    H244240   0.160   3.253  16.304 -1.5179  0.9130  0.5871
 7609TIP3   OH244241   1.974   5.671  11.207  0.1333  0.1159  0.1254
 7609TIP3    H144242   1.966   5.765  11.226  1.3339 -0.2199  2.7446
 7609TIP3    H244243   1.890   5.648  11.166 -0.9997  1.9753  1.2207
 7610TIP3   OH244244   1.186   4.812  14.865 -0.2589  0.2140  0.0753
 7610TIP3    H144245   1.179   4.735  14.809  1.0787 -0.1529  0.3715
 7610TIP3    H244246   1.264   4.858  14.832 -2.7447  3.2042 -2.1938
 7611TIP3   OH244247   2.826   1.046   1.211  0.2720 -0.1966 -0.3264
 7611TIP3    H144248   2.808   1.072   1.120 -0.0165 -1.3873 -0.6319
 7611TIP3    H244249   2.760   0.979   1.230 -0.1779  0.6052  1.0459
 7612TIP3   OH244250   6.514   2.263  15.365 -0.4322 -0.1628 -0.7450
 7612TIP3    H144251   6.425   2.252  15.398  0.2463 -0.1550  1.1721
 7612TIP3    H244252   6.518   2.205  15.288 -1.1630 -2.6685  0.9835
 7613TIP3   OH244253   5.591   0.797   0.912  0.1668  0.0053 -0.4841
 7613TIP3    H144254   5.555   0.723   0.960 -0.5798  1.6091  1.6311
 7613TIP3    H244255   5.520   0.861   0.909  1.0039  0.9323 -1.5573
 7614TIP3   OH244256   4.391   2.355  12.012  0.8339  0.0405 -0.4565
 7614TIP3    H144257   4.457   2.382  12.075  1.3710 -0.0576 -0.9625
 7614TIP3    H244258   4.413   2.264  11.991 -1.4638 -1.1961  1.8802
 7615TIP3   OH244259   3.804   1.129  13.250  0.6615  0.7954  0.7102
 7615TIP3    H144260   3.834   1.042  13.274  0.5388  0.9501  1.4836
 7615TIP3    H244261   3.758   1.118  13.167 -0.4068 -0.0974  1.3930
 7616TIP3   OH244262   1.682   0.534  11.252  0.3718 -0.3170 -0.2191
 7616TIP3    H144263   1.640   0.573  11.175  1.0442 -0.5552 -0.7139
 7616TIP3    H244264   1.689   0.441  11.231 -0.0418 -0.4976  0.4148
 7617TIP3   OH244265   6.604   4.906  11.668  0.3829  0.0067  0.0919
 7617TIP3    H144266   6.669   4.927  11.601 -0.4377  2.4119 -0.0348
 7617TIP3    H244267   6.631   4.955  11.745 -1.4655  1.4659 -0.1031
 7618TIP3   OH244268   6.128   6.409   6.243 -0.3645  0.6013 -0.3557
 7618TIP3    H144269   6.196   6.356   6.283 -1.6530 -0.8995 -0.0632
 7618TIP3    H244270   6.053   6.402   6.302 -0.9195  1.9201 -0.8464
 7619TIP3   OH244271   4.284   3.866  13.017  0.2648 -0.1429 -0.3615
 7619TIP3    H144272   4.195   3.832  13.028  0.6183 -1.2570 -0.7223
 7619TIP3    H244273   4.284   3.950  13.062 -1.9348  1.5748 -3.1925
 7620TIP3   OH244274   0.858   4.727  16.624  0.4702  0.3102 -0.3456
 7620TIP3    H144275   0.788   4.768  16.674  1.1801 -0.3353  1.2488
 7620TIP3    H244276   0.927   4.794  16.621  1.3509 -0.4416  1.6450
 7621TIP3   OH244277   4.162   1.835   6.745  0.4611  0.2448 -0.1621
 7621TIP3    H144278   4.127   1.920   6.770  1.3555  0.8471 -0.8924
 7621TIP3    H244279   4.132   1.822   6.654  0.6719 -0.0259 -0.1962
 7622TIP3   OH244280   2.094   2.005   0.805 -0.3984 -0.7828  0.3661
 7622TIP3    H144281   2.051   1.939   0.859 -1.5297  0.8579  1.5593
 7622TIP3    H244282   2.033   2.022   0.734  0.4103 -1.8139 -0.6205
 7623TIP3   OH244283   5.554   2.850   4.997 -0.4892 -0.4870 -0.6798
 7623TIP3    H144284   5.526   2.758   4.998  1.2048 -1.0286  0.0698
 7623TIP3    H244285   5.558   2.873   4.905 -0.7484 -1.2190 -0.8795
 7624TIP3   OH244286   0.366   5.288   0.059 -0.0160 -0.1595 -0.5580
 7624TIP3    H144287   0.447   5.310   0.104 -1.3923 -0.5471  2.2881
 7624TIP3    H244288   0.323   5.372   0.042 -0.0815 -0.0676  0.0530
 7625TIP3   OH244289   6.355   0.623  12.110  0.0560  0.2197  0.2331
 7625TIP3    H144290   6.348   0.607  12.204  0.1325  0.7393  0.3308
 7625TIP3    H244291   6.350   0.536  12.070 -2.4991  0.1513  0.5509
 7626TIP3   OH244292   1.502   3.073  14.201 -0.0898 -0.2129  0.0430
 7626TIP3    H144293   1.538   3.123  14.128 -3.2625  0.3562 -1.3104
 7626TIP3    H244294   1.490   2.984  14.167  2.2458 -1.1021  1.3141
 7627TIP3   OH244295   5.913   5.439  13.687 -0.3016  0.3440 -0.2002
 7627TIP3    H144296   5.956   5.497  13.750  1.7511 -0.2991 -0.9181
 7627TIP3    H244297   5.975   5.368  13.675 -0.9526  0.0999 -2.4339
 7628TIP3   OH244298   5.934   2.943  11.980  0.1963  0.3824  0.1490
 7628TIP3    H144299   5.939   3.004  11.906 -0.1386 -3.2635 -3.2377
 7628TIP3    H244300   5.870   2.983  12.039 -1.8370  2.2750 -2.9987
 7629TIP3   OH244301   6.181   1.412  15.727  0.7085 -0.1341 -0.2148
 7629TIP3    H144302   6.247   1.445  15.788  1.0139  0.5568 -0.8989
 7629TIP3    H244303   6.211   1.440  15.640 -0.9041  0.9382 -0.4742
 7630TIP3   OH244304   5.446   0.795   3.694  0.0567  0.1722  0.0164
 7630TIP3    H144305   5.491   0.784   3.610  0.5422 -0.0547  0.2972
 7630TIP3    H244306   5.435   0.889   3.703 -1.2344  0.1327 -0.9276
 7631TIP3   OH244307   4.774   6.680   5.655  0.4303 -0.4636 -0.5747
 7631TIP3    H144308   4.718   6.710   5.584  1.1043 -0.9266 -1.3144
 7631TIP3    H244309   4.728   6.604   5.692  1.2264 -1.7295 -2.1025
 7632TIP3   OH244310   0.603   2.325  13.441 -0.3891 -0.7492 -0.5204
 7632TIP3    H144311   0.516   2.364  13.436 -0.7949 -0.9726  2.5840
 7632TIP3    H244312   0.612   2.274  13.361 -2.4136  0.5910 -1.6774
 7633TIP3   OH244313   3.632   6.706  15.573  0.1490 -0.2046 -0.0580
 7633TIP3    H144314   3.709   6.762  15.583  1.1149 -1.5773  0.4373
 7633TIP3    H244315   3.565   6.764  15.537  1.5585  0.8870 -1.0214
 7634TIP3   OH244316   1.588   3.250  11.406  0.4511 -0.1514 -0.3554
 7634TIP3    H144317   1.532   3.315  11.363  0.3468 -0.9202 -1.4042
 7634TIP3    H244318   1.616   3.191  11.336  1.8428 -0.3271  0.3071
 7635TIP3   OH244319   1.294   4.638   2.751 -0.2018  0.9413  0.4542
 7635TIP3    H144320   1.253   4.620   2.835  0.9158  0.0811  0.8409
 7635TIP3    H244321   1.368   4.695   2.772  0.5673  0.0765  0.1911
 7636TIP3   OH244322   4.989   3.720   5.506  0.2538  0.7062  0.0024
 7636TIP3    H144323   4.991   3.816   5.501  0.6208  0.7113  0.2257
 7636TIP3    H244324   5.030   3.691   5.424 -1.4596  0.7123 -0.9202
 7637TIP3   OH244325   5.552   3.577  13.593  0.0757  0.4341 -0.0877
 7637TIP3    H144326   5.553   3.511  13.524  0.5293  0.1089  0.2235
 7637TIP3    H244327   5.619   3.548  13.655  1.4637  2.0601 -0.7465
 7638TIP3   OH244328   4.734   4.368   5.920 -0.4109  0.3811 -0.4108
 7638TIP3    H144329   4.806   4.341   5.864  0.2042  1.3143 -0.0902
 7638TIP3    H244330   4.703   4.451   5.882  0.4777  1.3962  0.9990
 7639TIP3   OH244331   4.448   3.216  14.637  0.2908  0.2041  0.2657
 7639TIP3    H144332   4.441   3.246  14.728  0.3437 -2.8662  1.3965
 7639TIP3    H244333   4.541   3.221  14.617  0.5091 -0.7131  1.0081
 7640TIP3   OH244334   3.247   1.071   0.290 -0.3703  0.0137  0.2133
 7640TIP3    H144335   3.244   0.978   0.313  1.8499  0.0096  0.6964
 7640TIP3    H244336   3.268   1.115   0.372  0.9354  0.6756 -0.4469
 7641TIP3   OH244337   0.801   0.845  16.293 -0.0074 -0.2677  0.5504
 7641TIP3    H144338   0.776   0.927  16.335  2.2462 -0.6263  2.8220
 7641TIP3    H244339   0.720   0.813  16.252 -1.2534  2.3626  0.7641
 7642TIP3   OH244340   4.160   3.938   5.045  0.9824 -0.5194 -0.1270
 7642TIP3    H144341   4.166   3.984   5.129 -0.8827 -0.9376  0.2735
 7642TIP3    H244342   4.082   3.975   5.003  0.3425 -2.1702 -0.4743
 7643TIP3   OH244343   1.061   3.519   0.109 -0.2743 -0.4050  0.2278
 7643TIP3    H144344   1.010   3.439   0.126 -0.5105 -0.6044 -1.3004
 7643TIP3    H244345   1.110   3.500   0.030  2.3538 -0.2512  1.7229
 7644TIP3   OH244346   5.657   3.885   1.904  0.2964  0.1730  0.0749
 7644TIP3    H144347   5.657   3.896   1.809 -1.0727 -0.4798 -0.0266
 7644TIP3    H244348   5.606   3.805   1.919  1.3367 -0.2986  1.3107
 7645TIP3   OH244349   6.220   4.003   1.808 -0.4342  0.1355  0.1217
 7645TIP3    H144350   6.225   4.020   1.714 -1.0466  1.4135  0.3072
 7645TIP3    H244351   6.127   3.989   1.825 -0.5703  1.7204  0.8183
 7646TIP3   OH244352   0.711   3.386   0.091 -0.3156 -0.2148  0.0398
 7646TIP3    H144353   0.629   3.435   0.096  0.3326  1.1678 -1.6385
 7646TIP3    H244354   0.741   3.380   0.182  0.2897  3.8913  0.2951
 7647TIP3   OH244355   0.487   4.731   6.092 -0.2225 -0.0874  0.1528
 7647TIP3    H144356   0.413   4.710   6.036 -1.6538 -2.9702  2.8432
 7647TIP3    H244357   0.453   4.794   6.155 -0.6078 -1.6905  1.6210
 7648TIP3   OH244358   6.101   6.756  13.083  0.0436 -0.4400  0.4083
 7648TIP3    H144359   6.185   6.774  13.042  0.4063  0.4590  1.4982
 7648TIP3    H244360   6.113   6.674  13.131 -0.0628 -0.9242 -0.3815
 7649TIP3   OH244361   0.911   0.808   2.641  0.2818 -0.0436  1.2875
 7649TIP3    H144362   0.869   0.893   2.650  1.7021  0.7862  0.3663
 7649TIP3    H244363   0.839   0.748   2.618 -0.3996  1.4057 -0.6115
 7650TIP3   OH244364   3.344   6.344   5.466  0.3615  0.3382  0.2407
 7650TIP3    H144365   3.309   6.390   5.542 -0.1322  1.5536 -0.6993
 7650TIP3    H244366   3.386   6.412   5.413 -0.3059 -0.2882 -1.1419
 7651TIP3   OH244367   1.590   1.888   3.284 -0.6368 -0.8507  0.6611
 7651TIP3    H144368   1.601   1.852   3.372  1.5924 -0.6152  0.5338
 7651TIP3    H244369   1.547   1.972   3.298  0.9136 -0.1796  1.7109
 7652TIP3   OH244370   4.112   1.989  10.803  0.4807 -0.5213 -0.5002
 7652TIP3    H144371   4.043   2.051  10.827 -1.0586 -1.2151 -2.7532
 7652TIP3    H244372   4.192   2.041  10.802 -0.1484  0.5616  1.1871
 7653TIP3   OH244373   1.816   3.745   5.499  0.1531 -0.1063  0.2685
 7653TIP3    H144374   1.826   3.828   5.547 -0.9232 -0.4196  1.0671
 7653TIP3    H244375   1.801   3.680   5.568  0.0829 -0.8168 -0.4149
 7654TIP3   OH244376   0.542   0.793   5.605 -0.3049  0.6038  0.0731
 7654TIP3    H144377   0.547   0.879   5.647 -0.6762  1.0593 -0.7808
 7654TIP3    H244378   0.603   0.799   5.531  3.0112 -1.3196  2.3483
 7655TIP3   OH244379   2.447   4.340  13.557  0.0659  0.1103  0.6730
 7655TIP3    H144380   2.433   4.304  13.645 -1.4321  1.3624  1.0035
 7655TIP3    H244381   2.520   4.289  13.521  1.5466  0.3298  3.0938
 7656TIP3   OH244382   0.255   0.406  16.198 -0.0484 -0.1718 -0.0660
 7656TIP3    H144383   0.243   0.500  16.207  0.2543 -0.0632 -0.7135
 7656TIP3    H244384   0.170   0.373  16.167 -0.3041 -0.1873  0.6399
 7657TIP3   OH244385   5.348   3.762   2.931 -0.0896 -0.0499 -0.1936
 7657TIP3    H144386   5.377   3.774   2.841 -0.2694 -1.4072 -0.4568
 7657TIP3    H244387   5.254   3.778   2.928  0.0960  1.1096  0.0038
 7658TIP3   OH244388   5.518   0.151   3.018  0.1241  0.0331 -0.2231
 7658TIP3    H144389   5.532   0.245   3.014  0.3390 -0.0094 -0.4787
 7658TIP3    H244390   5.579   0.114   2.953 -0.4906 -0.2248 -0.6649
 7659TIP3   OH244391   3.597   0.749  14.548 -0.0795  0.3380  0.7746
 7659TIP3    H144392   3.559   0.661  14.550  0.1744  0.1921 -0.3380
 7659TIP3    H244393   3.686   0.736  14.518 -0.1833  1.0199  0.1443
 7660TIP3   OH244394   2.808   3.663   4.843  0.1446  0.1798  0.7028
 7660TIP3    H144395   2.858   3.695   4.918  2.2618 -0.2636 -0.4484
 7660TIP3    H244396   2.804   3.568   4.856  0.7798  0.0663  0.1317
 7661TIP3   OH244397   3.899   5.399  12.563 -0.2638  0.1766 -0.2682
 7661TIP3    H144398   3.973   5.428  12.510 -0.6999 -0.0334 -1.0118
 7661TIP3    H244399   3.910   5.444  12.647  1.3119 -0.7134  0.0367
 7662TIP3   OH244400   5.583   3.735  15.336  0.0363  0.5996 -0.6490
 7662TIP3    H144401   5.644   3.665  15.361 -1.5288 -0.4542  0.4541
 7662TIP3    H244402   5.551   3.709  15.250 -3.8199 -2.6750  1.3926
 7663TIP3   OH244403   1.629   2.762   0.131 -0.1545 -0.4328 -0.3112
 7663TIP3    H144404   1.694   2.828   0.157 -1.0430  0.9784 -1.4597
 7663TIP3    H244405   1.563   2.766   0.200  0.5405 -1.2618  0.4221
 7664TIP3   OH244406   5.381   4.901   4.032  0.1610  0.2081 -0.3269
 7664TIP3    H144407   5.312   4.967   4.032  0.3163  0.3969 -1.8369
 7664TIP3    H244408   5.462   4.952   4.035  0.2981 -0.0215  2.1804
 7665TIP3   OH244409   3.443   0.240   1.180 -0.6711 -0.1476 -0.2922
 7665TIP3    H144410   3.411   0.319   1.137  0.2468  0.4910  0.1540
 7665TIP3    H244411   3.457   0.177   1.109 -2.8075 -0.4377 -0.5018
 7666TIP3   OH244412   6.408   2.778   1.759 -0.1972  0.1675  0.8165
 7666TIP3    H144413   6.320   2.810   1.779  0.2830  0.3870  2.8246
 7666TIP3    H244414   6.443   2.750   1.844  1.4864 -0.3924 -0.0146
 7667TIP3   OH244415   4.567   3.589   2.391  0.4492 -0.5358 -0.1032
 7667TIP3    H144416   4.548   3.683   2.386  0.8575 -0.4799 -0.7719
 7667TIP3    H244417   4.606   3.577   2.477  1.4936  0.1345 -0.4637
 7668TIP3   OH244418   5.297   5.880   0.354 -0.6397  0.3836  0.6495
 7668TIP3    H144419   5.287   5.972   0.379 -0.9098  0.0473  1.8783
 7668TIP3    H244420   5.208   5.845   0.354 -0.7791  0.5886 -1.8982
 7669TIP3   OH244421   5.747   6.485  12.615  0.3314  0.1748  0.3545
 7669TIP3    H144422   5.827   6.434  12.599 -0.1741 -1.9122  3.6019
 7669TIP3    H244423   5.739   6.487  12.710 -1.9658  2.8841  0.2097
 7670TIP3   OH244424   3.416   1.256  16.291  0.4642 -0.1631 -0.0268
 7670TIP3    H144425   3.452   1.206  16.364 -0.6331 -2.2046 -0.8158
 7670TIP3    H244426   3.413   1.194  16.218 -3.7799  0.0577 -0.2426
 7671TIP3   OH244427   5.973   2.740   3.750  0.0715 -0.3998  1.0761
 7671TIP3    H144428   6.041   2.800   3.718 -0.8221  1.5651  2.6868
 7671TIP3    H244429   5.986   2.737   3.844 -0.5112 -2.0635  1.1448
 7672TIP3   OH244430   5.609   4.882  15.273  0.2166 -0.4950  0.1615
 7672TIP3    H144431   5.704   4.877  15.261  0.2341  0.2910 -0.0515
 7672TIP3    H244432   5.577   4.798  15.240  0.5764  0.2603 -2.2984
 7673TIP3   OH244433   5.653   1.912   4.246 -0.7646  0.1645  0.3083
 7673TIP3    H144434   5.712   1.857   4.194 -1.2972  0.6996 -0.8946
 7673TIP3    H244435   5.709   1.982   4.280 -0.1447 -0.9083  1.5941
 7674TIP3   OH244436   2.500   0.644  14.658 -0.3542 -0.1021  0.0040
 7674TIP3    H144437   2.419   0.614  14.699 -0.0141  0.8389  1.4257
 7674TIP3    H244438   2.473   0.677  14.572 -1.4778  0.1585  0.4400
 7675TIP3   OH244439   2.229   0.798   5.650 -0.1540  0.5859  0.3842
 7675TIP3    H144440   2.289   0.795   5.577  0.8291  3.3424  0.9888
 7675TIP3    H244441   2.277   0.758   5.723 -0.8120 -1.3368 -0.1578
 7676TIP3   OH244442   4.418   2.248   1.567 -0.2038 -0.1555  0.4427
 7676TIP3    H144443   4.478   2.231   1.494 -1.0122 -0.0838 -0.2628
 7676TIP3    H244444   4.442   2.185   1.634  0.8490  0.0703  0.2919
 7677TIP3   OH244445   3.761   2.992   4.676 -0.4683  0.0989 -0.2209
 7677TIP3    H144446   3.776   2.922   4.740 -2.5942  1.6295  2.1309
 7677TIP3    H244447   3.847   3.032   4.665  0.2751 -1.2378  0.4067
 7678TIP3   OH244448   2.106   4.598   1.534  0.1345 -0.5624 -0.3359
 7678TIP3    H144449   2.156   4.678   1.518 -0.8061  0.3088  0.8503
 7678TIP3    H244450   2.137   4.567   1.620 -0.1268 -0.9773 -0.3857
 7679TIP3   OH244451   5.251   4.240   3.090  0.1243  0.3388  0.3476
 7679TIP3    H144452   5.317   4.172   3.078 -0.2428  0.0626 -0.1409
 7679TIP3    H244453   5.231   4.271   3.001  0.7231  1.5145  0.5972
 7680TIP3   OH244454   5.436   3.083  15.928  0.1382 -0.1906 -0.3438
 7680TIP3    H144455   5.405   3.165  15.967  0.5320  0.7113 -1.8375
 7680TIP3    H244456   5.365   3.056  15.870  0.2799 -0.5569 -0.3470
 7681TIP3   OH244457   5.968   0.688  11.998 -0.1101 -0.4167 -0.5250
 7681TIP3    H144458   6.017   0.651  12.073 -1.3980  2.0605  1.7064
 7681TIP3    H244459   5.883   0.646  12.002 -0.6917  0.7919  0.4039
 7682TIP3   OH244460   5.461   5.971  16.775  0.0887  0.0752  0.5377
 7682TIP3    H144461   5.462   5.905  16.844  0.3602  0.0771  0.5333
 7682TIP3    H244462   5.374   5.962  16.735 -1.0117  1.6429  2.3861
 7683TIP3   OH244463   4.112   2.679   6.213 -0.3305 -0.1034 -0.1976
 7683TIP3    H144464   4.204   2.655   6.203  0.1535  0.8356  1.5743
 7683TIP3    H244465   4.113   2.752   6.275 -2.2400  0.2713 -0.5419
 7684TIP3   OH244466   2.736   1.180   0.344  0.3606  0.5341 -0.8999
 7684TIP3    H144467   2.723   1.228   0.425 -0.2463 -1.4292  0.2480
 7684TIP3    H244468   2.826   1.199   0.319  0.2839  1.8560 -0.2610
 7685TIP3   OH244469   4.756   6.014   2.035  0.0963 -0.4005  0.4472
 7685TIP3    H144470   4.784   6.104   2.052  1.0222 -0.0451 -2.4219
 7685TIP3    H244471   4.836   5.968   2.012 -0.6876 -1.3610 -0.4377
 7686TIP3   OH244472   0.422   0.051  11.278  0.2377  0.1616 -0.2756
 7686TIP3    H144473   0.331   0.078  11.270  0.1673  0.6230  1.4895
 7686TIP3    H244474   0.462   0.118  11.334  1.4355 -0.4823 -0.3194
 7687TIP3   OH244475   5.889   4.387   4.557 -0.0180  0.5544  0.3361
 7687TIP3    H144476   5.941   4.350   4.629 -0.8618  1.4388  1.4463
 7687TIP3    H244477   5.924   4.475   4.545 -0.4743  0.7377  0.3006
 7688TIP3   OH244478   6.647   3.813  12.832 -0.1185 -0.6467 -0.3935
 7688TIP3    H144479   6.611   3.832  12.746 -0.1997 -0.4165 -0.3098
 7688TIP3    H244480   6.693   3.730  12.822 -0.3834 -0.7680 -0.5821
 7689TIP3   OH244481   5.838   5.924  13.634  0.2655  0.1782 -0.0956
 7689TIP3    H144482   5.853   5.884  13.720  1.7059  1.0320  0.0723
 7689TIP3    H244483   5.753   5.890  13.607  0.4672 -1.2786  0.9972
 7690TIP3   OH244484   6.580   1.292  17.069 -0.5805  0.3592  0.1500
 7690TIP3    H144485   6.537   1.347  17.135  0.1865  0.3603  0.6700
 7690TIP3    H244486   6.672   1.291  17.096 -0.2133  0.5239 -1.0459
 7691TIP3   OH244487   4.769   0.772  15.458  0.6874 -0.3308  0.6969
 7691TIP3    H144488   4.775   0.769  15.362  1.3439 -2.5953  0.7617
 7691TIP3    H244489   4.676   0.758  15.476  0.5031  0.4322  0.4215
 7692TIP3   OH244490   1.455   1.598   6.238 -0.4104  0.2094  0.1202
 7692TIP3    H144491   1.359   1.601   6.231 -0.4992  0.5121  1.2606
 7692TIP3    H244492   1.471   1.552   6.321  0.4391 -0.0181 -0.1643
 7693TIP3   OH244493   1.733   1.497  14.862 -0.2487  0.2074  0.0222
 7693TIP3    H144494   1.793   1.426  14.884 -1.0398 -0.3660  0.3738
 7693TIP3    H244495   1.687   1.516  14.944 -2.4307 -1.1806 -0.7982
 7694TIP3   OH244496   5.701   6.410   3.534  0.1889 -0.1621  0.3930
 7694TIP3    H144497   5.618   6.392   3.490  1.1166  0.2580 -1.6303
 7694TIP3    H244498   5.699   6.355   3.613 -2.2165  0.2611  0.6826
 7695TIP3   OH244499   3.998   4.137  12.432  0.3219  0.0493  0.2221
 7695TIP3    H144500   3.954   4.175  12.508  0.4492  0.1294  0.2568
 7695TIP3    H244501   4.072   4.196  12.415 -0.3640  0.6882 -0.6744
 7696TIP3   OH244502   1.085   2.769   3.292  0.1765 -0.3663 -0.6249
 7696TIP3    H144503   1.119   2.722   3.216 -0.6118 -0.7632 -0.7387
 7696TIP3    H244504   0.990   2.759   3.286  0.0889 -0.0945  0.2204
 7697TIP3   OH244505   5.628   4.781   3.249 -0.0183  0.2362 -0.5582
 7697TIP3    H144506   5.594   4.857   3.203  0.3614  0.5828 -0.2708
 7697TIP3    H244507   5.700   4.750   3.193 -0.4936 -0.2151 -0.9280
 7698TIP3   OH244508   1.833   5.122   0.249 -0.3460  0.0867  0.3462
 7698TIP3    H144509   1.851   5.216   0.246  0.1995 -0.0206  0.1150
 7698TIP3    H244510   1.907   5.082   0.203  1.4575 -0.7708  3.7301
 7699TIP3   OH244511   4.324   3.290   1.223 -0.0940  0.3401 -0.0470
 7699TIP3    H144512   4.296   3.354   1.288  1.6039 -1.4897  2.6705
 7699TIP3    H244513   4.381   3.339   1.164 -0.9444  1.8452  0.3261
 7700TIP3   OH244514   2.482   2.613   2.556  0.3849 -0.4128 -0.1771
 7700TIP3    H144515   2.487   2.688   2.496 -0.1863  0.9911  1.4349
 7700TIP3    H244516   2.388   2.594   2.562  0.3114  0.2694  1.1719
 7701TIP3   OH244517   2.847   0.492  17.005 -0.3843 -0.1964  0.0115
 7701TIP3    H144518   2.882   0.409  16.973 -1.4887 -1.1635  1.1546
 7701TIP3    H244519   2.879   0.498  17.095 -1.2765 -0.0119  0.3341
 7702TIP3   OH244520   0.128   0.285   4.161 -0.0592  0.1950  0.0683
 7702TIP3    H144521   0.077   0.346   4.214  2.2535  2.2533  0.0661
 7702TIP3    H244522   0.214   0.282   4.204  0.1896 -2.4611 -0.4280
 7703TIP3   OH244523   0.489   4.582  13.124 -0.0643  0.3795  0.4175
 7703TIP3    H144524   0.504   4.567  13.030  0.9763  0.8635  0.4956
 7703TIP3    H244525   0.536   4.511  13.167 -3.3684 -1.9805  0.5456
 7704TIP3   OH244526   0.335   1.533  11.347  1.0965 -0.4378  0.0100
 7704TIP3    H144527   0.370   1.472  11.283  0.0028 -0.0495 -0.9945
 7704TIP3    H244528   0.341   1.487  11.431  2.2107 -1.0930 -0.4119
 7705TIP3   OH244529   1.855   3.607   0.184 -0.6356 -0.0921  0.4197
 7705TIP3    H144530   1.858   3.624   0.278 -1.5578  0.5725  0.3476
 7705TIP3    H244531   1.926   3.545   0.168  1.4430  1.9593  1.1020
 7706TIP3   OH244532   2.295   0.360   5.967 -0.0151 -0.1279 -0.4913
 7706TIP3    H144533   2.318   0.320   6.051  1.4320 -1.3936 -1.4252
 7706TIP3    H244534   2.253   0.289   5.918  0.2682  0.2298 -1.2682
 7707TIP3   OH244535   3.782   6.579   4.430 -0.0039 -0.0740  0.1238
 7707TIP3    H144536   3.847   6.509   4.433  0.6709  0.5421  0.1971
 7707TIP3    H244537   3.701   6.538   4.461  0.5406 -0.6448  0.8309
 7708TIP3   OH244538   5.653   4.070  10.978  0.0122 -0.1440 -0.1413
 7708TIP3    H144539   5.669   4.036  10.890 -0.9930  0.1710 -0.4574
 7708TIP3    H244540   5.655   4.165  10.968  0.6861 -0.0982  0.3363
 7709TIP3   OH244541   1.324   3.329  12.637 -0.9178  0.1447 -0.0346
 7709TIP3    H144542   1.322   3.417  12.599 -1.9555  0.6348  1.1063
 7709TIP3    H244543   1.334   3.343  12.731  2.8358 -1.0599 -0.0681
 7710TIP3   OH244544   5.970   1.145   5.212  0.0990  0.4147 -0.3622
 7710TIP3    H144545   5.877   1.166   5.198  0.2841  0.1317 -2.2431
 7710TIP3    H244546   6.017   1.202   5.150  1.1477  0.0898  0.1114
 7711TIP3   OH244547   0.907   4.146  15.292  0.2918  0.6841  0.0905
 7711TIP3    H144548   0.858   4.208  15.239 -0.4705 -1.2899 -1.6418
 7711TIP3    H244549   0.997   4.178  15.289 -0.1085  1.8111 -0.5684
 7712TIP3   OH244550   5.314   0.100   5.432 -0.3843  0.1169  0.0264
 7712TIP3    H144551   5.389   0.084   5.489 -0.1296 -0.3605 -0.4302
 7712TIP3    H244552   5.323   0.035   5.362 -1.4455 -0.2275  0.1811
 7713TIP3   OH244553   4.339   0.094  12.190  0.1359 -0.5627 -0.7244
 7713TIP3    H144554   4.429   0.105  12.221  0.1387 -1.4131 -0.4153
 7713TIP3    H244555   4.297   0.040  12.257 -0.2714 -1.1751 -1.4633
 7714TIP3   OH244556   1.402   0.789   2.630 -0.0691  0.0783  1.2401
 7714TIP3    H144557   1.423   0.882   2.634 -0.9632  0.3754 -0.1771
 7714TIP3    H244558   1.352   0.779   2.548  1.7300 -1.9640  0.2817
 7715TIP3   OH244559   5.651   6.191  15.958 -0.1393 -0.9335 -0.0506
 7715TIP3    H144560   5.703   6.127  15.910 -0.1753 -2.1368  1.4269
 7715TIP3    H244561   5.682   6.184  16.049 -0.5081  0.7969  0.2474
 7716TIP3   OH244562   0.232   2.953  11.448  0.2862  0.1273 -0.2205
 7716TIP3    H144563   0.264   2.994  11.367  0.2240  0.3674 -0.1259
 7716TIP3    H244564   0.158   2.900  11.419  1.7265 -1.7071 -0.6787
 7717TIP3   OH244565   5.182   0.763   0.815  0.0871  0.0137  0.4895
 7717TIP3    H144566   5.134   0.722   0.887 -0.7181 -0.7863 -0.4697
 7717TIP3    H244567   5.116   0.813   0.766  0.2272 -0.9500 -0.7437
 7718TIP3   OH244568   6.286   2.029  14.050 -0.6391  0.1993  0.3444
 7718TIP3    H144569   6.361   1.971  14.038  1.0875  2.5849 -1.2637
 7718TIP3    H244570   6.225   2.003  13.981 -0.1179 -0.0351 -0.0412
 7719TIP3   OH244571   5.196   1.576  15.314  0.3321  0.8447 -0.0993
 7719TIP3    H144572   5.285   1.550  15.338  0.2705  1.0980  0.4051
 7719TIP3    H244573   5.151   1.493  15.298  0.0884  0.5920  1.6633
 7720TIP3   OH244574   4.407   1.920  14.910 -0.3328  0.1155 -0.3610
 7720TIP3    H144575   4.436   1.969  14.833  2.5030  2.4534  1.9595
 7720TIP3    H244576   4.333   1.970  14.944 -1.6158 -0.9426 -1.4578
 7721TIP3   OH244577   1.772   3.477   3.531  0.2871  0.0448 -0.7450
 7721TIP3    H144578   1.788   3.449   3.621 -0.0180 -1.9270 -1.2615
 7721TIP3    H244579   1.822   3.558   3.522 -0.7812  1.0473  1.5925
 7722TIP3   OH244580   5.765   4.354   6.088 -0.3636 -0.1591  0.1268
 7722TIP3    H144581   5.826   4.426   6.104 -0.2221  0.1776 -1.7702
 7722TIP3    H244582   5.687   4.395   6.051 -0.2458 -0.9675 -1.0739
 7723TIP3   OH244583   3.745   2.147  13.404  0.1037 -0.4529  0.3307
 7723TIP3    H144584   3.673   2.085  13.408 -1.4619  0.9991 -2.6578
 7723TIP3    H244585   3.705   2.232  13.421  0.9146  0.4510 -1.9502
 7724TIP3   OH244586   1.984   2.048   2.988 -0.2314 -0.5220  0.0547
 7724TIP3    H144587   1.947   1.992   3.057 -2.0315 -1.1634 -1.3456
 7724TIP3    H244588   1.915   2.053   2.922  0.6276  1.7902 -0.7731
 7725TIP3   OH244589   4.128   4.399  16.096 -0.4448  0.3775 -0.0675
 7725TIP3    H144590   4.176   4.385  16.178  0.5840  0.1886 -0.6779
 7725TIP3    H244591   4.175   4.345  16.032 -2.0154 -0.4893 -0.5217
 7726TIP3   OH244592   1.078   0.074  14.477 -0.3152  0.1130 -0.2399
 7726TIP3    H144593   1.112   0.014  14.411  3.0858  0.0472  1.3820
 7726TIP3    H244594   1.122   0.157  14.461  0.1865  0.2417  1.5302
 7727TIP3   OH244595   1.196   5.937   5.318  0.3345 -0.1035 -0.6531
 7727TIP3    H144596   1.107   5.971   5.329  0.3959  0.3325 -1.4269
 7727TIP3    H244597   1.186   5.859   5.263  0.4264 -0.0553 -0.7384
 7728TIP3   OH244598   3.658   0.502  11.924  0.2915 -0.5109 -0.3003
 7728TIP3    H144599   3.697   0.465  11.845  2.4521 -0.1699  0.5433
 7728TIP3    H244600   3.668   0.596  11.913  0.4706 -0.4571  0.2887
 7729TIP3   OH244601   0.150   5.041   4.383 -0.4327 -0.0765  0.2579
 7729TIP3    H144602   0.176   5.016   4.472  0.7998  0.5716  0.1052
 7729TIP3    H244603   0.152   4.958   4.334  0.5318 -0.1939  0.4660
 7730TIP3   OH244604   0.340   3.813  14.963  0.5702 -0.5726  0.3505
 7730TIP3    H144605   0.400   3.830  14.891 -0.0419 -0.8928 -0.2546
 7730TIP3    H244606   0.343   3.718  14.974  1.3526 -0.4431  1.3736
 7731TIP3   OH244607   3.526   0.097  12.466 -0.0831  0.1966  0.0693
 7731TIP3    H144608   3.579   0.104  12.386  0.6270 -0.4124  0.4782
 7731TIP3    H244609   3.519   0.003  12.482 -2.4852  0.1490 -0.7412
 7732TIP3   OH244610   0.694   2.036  16.075 -0.1616  0.6646  0.4995
 7732TIP3    H144611   0.690   1.959  16.132 -0.7057 -0.6698 -1.2574
 7732TIP3    H244612   0.786   2.043  16.050 -0.4279 -0.7101 -0.9797
 7733TIP3   OH244613   2.060   1.196  12.150  0.0246 -0.0965 -0.2617
 7733TIP3    H144614   2.007   1.189  12.071 -1.0431 -0.1935  0.4438
 7733TIP3    H244615   2.018   1.266  12.200  0.0066 -0.7987  0.7213
 7734TIP3   OH244616   2.630   5.533  12.288 -0.5083  0.0457  0.1239
 7734TIP3    H144617   2.712   5.577  12.311  0.5410 -0.8936 -1.6188
 7734TIP3    H244618   2.581   5.599  12.238 -0.7406  0.5324  0.9724
 7735TIP3   OH244619   2.688   2.071  14.763  0.1632 -0.1839  0.5637
 7735TIP3    H144620   2.643   2.106  14.686  1.2202  0.9601  0.4286
 7735TIP3    H244621   2.635   2.100  14.837 -0.7500 -1.1214  0.2956
 7736TIP3   OH244622   3.747   2.303  15.330 -0.5505  0.0460 -0.4773
 7736TIP3    H144623   3.795   2.328  15.409 -0.1619  2.1080 -1.2924
 7736TIP3    H244624   3.694   2.229  15.356  1.1823 -0.7099  1.1387
 7737TIP3   OH244625   1.833   4.039   1.802 -0.1041  0.3824 -0.1202
 7737TIP3    H144626   1.755   4.070   1.756 -0.5910  1.1117  1.1649
 7737TIP3    H244627   1.805   4.026   1.892  0.6528 -1.7375 -0.1344
 7738TIP3   OH244628   4.589   3.040  13.890 -0.0881  0.0984  0.1612
 7738TIP3    H144629   4.625   2.996  13.813  0.3604  0.6964  0.0155
 7738TIP3    H244630   4.568   2.970  13.951  0.1915 -0.3384 -0.2378
 7739TIP3   OH244631   0.924   4.510   2.029 -0.3904  0.4901  0.5408
 7739TIP3    H144632   0.869   4.567   2.084  1.1835  1.8667  0.7747
 7739TIP3    H244633   0.947   4.564   1.954  1.6418  0.4104  1.0626
 7740TIP3   OH244634   0.831   2.323   0.508  0.1129  0.6001  0.3903
 7740TIP3    H144635   0.882   2.396   0.474  1.8473  0.1730  1.9103
 7740TIP3    H244636   0.744   2.360   0.523  0.6332  2.0342  0.0523
 7741TIP3   OH244637   4.632   3.476  13.558  0.1526  0.5272 -0.0900
 7741TIP3    H144638   4.576   3.402  13.535  1.3628 -0.4639  0.0313
 7741TIP3    H244639   4.597   3.549  13.507 -0.4345 -0.3744 -1.0299
 7742TIP3   OH244640   0.012   5.938   4.189 -0.7651  0.6895 -0.5229
 7742TIP3    H144641   0.031   6.012   4.248 -1.1076  1.2464 -1.1047
 7742TIP3    H244642   0.015   5.976   4.102 -0.5546 -0.0779 -0.8524
 7743TIP3   OH244643   4.124   6.738   1.775  0.4385  0.5872  0.1980
 7743TIP3    H144644   4.135   6.671   1.843 -0.4350  1.1121  0.8633
 7743TIP3    H244645   4.050   6.708   1.723 -0.1636  1.1966  0.6960
 7744TIP3   OH244646   0.482   5.801  15.854  0.1257 -1.1601  0.0882
 7744TIP3    H144647   0.487   5.894  15.833  0.2337 -0.9656  0.9541
 7744TIP3    H244648   0.478   5.757  15.769  3.9081 -0.6172 -0.5684
 7745TIP3   OH244649   6.483   0.046  12.110  0.5936  0.2080  0.4924
 7745TIP3    H144650   6.431   0.081  12.037  0.6552 -0.5808  0.0632
 7745TIP3    H244651   6.574   0.059  12.084  0.6197  0.4509  0.6949
 7746TIP3   OH244652   2.752   6.092   3.068  0.5825  0.1504 -0.2602
 7746TIP3    H144653   2.795   6.169   3.106 -1.1442  0.5101  1.0968
 7746TIP3    H244654   2.779   6.019   3.123 -2.0653  0.6990  1.9918
 7747TIP3   OH244655   2.148   3.640  14.382 -0.1878 -0.4580  0.3531
 7747TIP3    H144656   2.094   3.696  14.438  2.2291  2.8521 -0.3407
 7747TIP3    H244657   2.088   3.572  14.352 -3.5488  2.0302  0.8495
 7748TIP3   OH244658   2.831   5.060   0.833  1.0352  0.0818  0.1523
 7748TIP3    H144659   2.828   5.136   0.774  1.2285 -0.0169  0.0172
 7748TIP3    H244660   2.916   5.020   0.817  0.8162 -0.3372  0.0060
 7749TIP3   OH244661   4.809   4.189  11.765 -0.4515 -0.3645  0.6879
 7749TIP3    H144662   4.888   4.232  11.800 -0.0267 -1.0471  0.5980
 7749TIP3    H244663   4.839   4.100  11.742 -0.5196  0.2409 -2.1034
 7750TIP3   OH244664   6.193   1.193   3.964 -0.0472 -0.2090 -0.1498
 7750TIP3    H144665   6.162   1.227   3.880  0.3047  0.7966  0.1085
 7750TIP3    H244666   6.280   1.158   3.946  0.6067  1.2600  0.0514
 7751TIP3   OH244667   3.684   5.912   4.765 -0.2924  0.5348 -0.4086
 7751TIP3    H144668   3.592   5.889   4.753 -0.4819  1.2985 -0.4714
 7751TIP3    H244669   3.716   5.850   4.831 -0.9517  0.5091 -0.1076
 7752TIP3   OH244670   1.079   3.173  12.588  0.1159 -0.2317  0.2501
 7752TIP3    H144671   1.019   3.246  12.606  0.0666 -0.1485 -0.2442
 7752TIP3    H244672   1.165   3.208  12.611  0.2692  0.4640 -1.2855
 7753TIP3   OH244673   5.098   2.254   5.915 -0.3961  0.0726  0.2689
 7753TIP3    H144674   5.095   2.164   5.948  0.1863  0.0800  0.3593
 7753TIP3    H244675   5.191   2.274   5.911 -0.4791  0.2719 -0.8590
 7754TIP3   OH244676   1.063   1.455   5.744 -0.7008  0.0034  0.4064
 7754TIP3    H144677   0.982   1.462   5.794 -0.3242 -0.6321  1.1338
 7754TIP3    H244678   1.128   1.425   5.808 -0.1232 -0.4805 -0.3885
 7755TIP3   OH244679   5.254   0.936  14.004  0.2697 -0.2991  1.0270
 7755TIP3    H144680   5.296   0.850  13.998  1.3193  0.1925  1.1444
 7755TIP3    H244681   5.168   0.918  14.041 -0.8030 -1.6666 -1.9190
 7756TIP3   OH244682   1.491   5.623   1.842  0.4801  0.1934  0.2250
 7756TIP3    H144683   1.405   5.635   1.800  0.2607  0.8847  0.8437
 7756TIP3    H244684   1.471   5.611   1.935  1.0758  0.9643  0.4648
 7757TIP3   OH244685   5.073   4.283  14.635  0.0797 -0.2701 -0.2332
 7757TIP3    H144686   5.036   4.351  14.579 -2.3288  0.4182  2.0067
 7757TIP3    H244687   5.164   4.311  14.650  0.3668  0.2360 -2.5463
 7758TIP3   OH244688   5.554   6.318  14.585 -0.1819  0.0713 -0.6713
 7758TIP3    H144689   5.465   6.347  14.604 -1.1453 -2.1964 -1.4546
 7758TIP3    H244690   5.567   6.241  14.640  0.7374 -0.5145 -1.6812
 7759TIP3   OH244691   0.279   5.705  13.424 -0.4106 -0.0997  0.6224
 7759TIP3    H144692   0.208   5.699  13.361 -0.0160 -1.3533  0.2689
 7759TIP3    H244693   0.355   5.667  13.380 -0.2808 -1.6273  2.0630
 7760TIP3   OH244694   5.863   6.122  15.642 -0.2784  0.3200 -0.2551
 7760TIP3    H144695   5.907   6.088  15.563  0.9508  0.8327  0.1888
 7760TIP3    H244696   5.926   6.183  15.680 -0.2030 -1.0114  1.9412
 7761TIP3   OH244697   3.021   6.039   1.944 -0.1074  0.3870 -0.7640
 7761TIP3    H144698   3.081   5.966   1.937 -0.0189  0.1774  1.3484
 7761TIP3    H244699   2.943   6.012   1.896 -1.8078 -3.0938  3.2811
 7762TIP3   OH244700   4.099   6.536   3.933  0.6998 -0.1191  0.1747
 7762TIP3    H144701   4.121   6.464   3.874  2.7366  0.7725 -0.2440
 7762TIP3    H244702   4.129   6.615   3.887  0.6218  0.7757  1.5969
 7763TIP3   OH244703   5.822   5.545   4.303 -0.4589 -0.5481  0.0320
 7763TIP3    H144704   5.885   5.500   4.360 -1.1490 -0.1883  1.1021
 7763TIP3    H244705   5.765   5.475   4.270 -1.0104 -0.5847  1.0239
 7764TIP3   OH244706   3.490   1.236  14.248  0.4189  0.3136 -0.2003
 7764TIP3    H144707   3.506   1.190  14.166 -3.7024  0.3275 -1.2363
 7764TIP3    H244708   3.416   1.191  14.287  0.4265  2.0861  2.0864
 7765TIP3   OH244709   1.508   4.487  11.403  0.2652 -0.2799  0.1340
 7765TIP3    H144710   1.461   4.542  11.466  1.1374  0.2679  0.3305
 7765TIP3    H244711   1.474   4.399  11.417 -0.4676  0.0590  0.4841
 7766TIP3   OH244712   5.431   2.313   0.237  0.1296 -0.2908  0.0891
 7766TIP3    H144713   5.340   2.342   0.236  0.7088  1.6499 -0.7985
 7766TIP3    H244714   5.432   2.240   0.299 -1.8754  0.1122  0.6771
 7767TIP3   OH244715   2.064   4.810  15.992  0.1645 -0.5772 -0.5882
 7767TIP3    H144716   2.126   4.770  15.931  0.2812 -0.6816 -0.3986
 7767TIP3    H244717   2.092   4.902  15.998  1.0046 -0.8916  0.4010
 7768TIP3   OH244718   5.871   5.375   5.528  0.0629 -0.1534  0.1742
 7768TIP3    H144719   5.830   5.382   5.614 -0.3830  0.5538 -0.0876
 7768TIP3    H244720   5.900   5.464   5.508  1.3784 -0.5528  0.1741
 7769TIP3   OH244721   0.810   6.040   6.618  0.4343  0.2901  0.5090
 7769TIP3    H144722   0.899   6.072   6.631  0.3474  0.1178  1.6630
 7769TIP3    H244723   0.805   5.960   6.671  0.2788 -0.9904 -1.3608
 7770TIP3   OH244724   6.501   3.718   4.253 -0.4306 -0.0559  0.3792
 7770TIP3    H144725   6.502   3.773   4.174  1.7214 -2.2008 -1.2343
 7770TIP3    H244726   6.444   3.645   4.230 -1.4835  0.3279  1.6611
 7771TIP3   OH244727   4.017   0.699  12.146 -0.3908 -0.0883  0.3609
 7771TIP3    H144728   4.107   0.673  12.165  0.2688 -0.5788 -2.8352
 7771TIP3    H244729   4.018   0.795  12.146  0.4588 -0.0804 -0.7848
 7772TIP3   OH244730   0.224   1.162   4.570 -0.0022 -0.6017 -0.1085
 7772TIP3    H144731   0.132   1.139   4.582 -0.0002  0.2202  1.8456
 7772TIP3    H244732   0.228   1.197   4.481 -1.9970  1.1059  0.3808
 7773TIP3   OH244733   1.778   1.703   5.520 -0.5799  0.0459 -0.3812
 7773TIP3    H144734   1.806   1.759   5.448  1.2114 -0.6844 -0.3050
 7773TIP3    H244735   1.859   1.666   5.555 -1.5320 -0.8553  0.9988
 7774TIP3   OH244736   1.077   1.841  14.472  0.1815  0.4834 -0.2430
 7774TIP3    H144737   1.054   1.933  14.455  0.0742  0.7251  1.0596
 7774TIP3    H244738   1.026   1.818  14.550 -0.8632 -1.1366 -1.3562
 7775TIP3   OH244739   1.154   6.639   0.555  0.5739 -0.3707  0.5371
 7775TIP3    H144740   1.122   6.713   0.606 -0.1107 -0.0789 -0.2680
 7775TIP3    H244741   1.152   6.565   0.615  0.7483  0.1601  1.2021
 7776TIP3   OH244742   4.184   4.459   1.223  0.6150  1.0771 -0.1926
 7776TIP3    H144743   4.262   4.430   1.269 -0.0882  0.7916  0.8759
 7776TIP3    H244744   4.135   4.508   1.289 -1.8202 -1.7667  0.3591
 7777TIP3   OH244745   1.998   5.887   1.226  0.0294 -0.3428  0.3343
 7777TIP3    H144746   2.067   5.953   1.212 -0.0361 -0.3437  0.0092
 7777TIP3    H244747   1.976   5.896   1.319  0.5222 -0.3952  0.4595
 7778TIP3   OH244748   1.539   2.240   3.798 -0.1333 -0.0356 -0.2597
 7778TIP3    H144749   1.601   2.246   3.726 -0.3531  1.2683 -0.3596
 7778TIP3    H244750   1.593   2.227   3.876  0.1272 -0.9955 -0.5830
 7779TIP3   OH244751   0.410   3.597  15.715 -0.1623  0.1893  0.4792
 7779TIP3    H144752   0.382   3.506  15.730 -1.3758  0.4608 -0.0026
 7779TIP3    H244753   0.329   3.643  15.695  0.5458  1.2325 -0.0278
 7780TIP3   OH244754   0.573   3.776  15.372  0.2693 -0.1206 -0.0367
 7780TIP3    H144755   0.656   3.820  15.351 -0.3282  0.0617 -2.1777
 7780TIP3    H244756   0.566   3.705  15.308 -1.5329  0.2779 -0.3397
 7781TIP3   OH244757   3.240   6.712  15.256  0.7785 -0.3270  0.2422
 7781TIP3    H144758   3.183   6.652  15.207  2.1605 -0.5787 -1.1211
 7781TIP3    H244759   3.208   6.799  15.232  0.8237 -0.4713 -0.3648
 7782TIP3   OH244760   0.469   3.074  17.019  0.2836  0.3487  0.1626
 7782TIP3    H144761   0.443   3.115  16.936  0.4495 -0.7205 -0.4277
 7782TIP3    H244762   0.564   3.066  17.012  0.1953 -0.6612  0.0188
 7783TIP3   OH244763   3.490   1.659  11.487  0.4394  0.0380 -0.3201
 7783TIP3    H144764   3.440   1.729  11.529  0.1756 -0.9649  1.1094
 7783TIP3    H244765   3.581   1.684  11.498  0.3227  0.5830 -0.5944
 7784TIP3   OH244766   6.673   4.433   5.507 -0.0207 -0.4883  0.0825
 7784TIP3    H144767   6.585   4.420   5.472 -0.2311 -0.1310  0.4791
 7784TIP3    H244768   6.694   4.524   5.487  0.2637 -0.5732 -0.0162
 7785TIP3   OH244769   4.241   3.071  11.738 -0.0215 -0.8008 -0.5074
 7785TIP3    H144770   4.161   3.064  11.686 -1.4476 -0.7436  1.5799
 7785TIP3    H244771   4.231   3.152  11.788  1.6572 -0.4516 -0.6930
 7786TIP3   OH244772   5.448   5.504   2.252  0.1116 -0.0416 -0.0425
 7786TIP3    H144773   5.506   5.540   2.186 -1.4228  1.8098 -0.4898
 7786TIP3    H244774   5.422   5.419   2.218  0.8027  0.0899 -0.9192
 7787TIP3   OH244775   5.594   1.732  13.412 -0.7024  0.0894  0.0708
 7787TIP3    H144776   5.524   1.775  13.362 -1.1760  1.2911  1.6692
 7787TIP3    H244777   5.555   1.650  13.443 -0.1169 -1.1175 -2.1821
 7788TIP3   OH244778   5.417   0.064   1.458  0.4639  0.3188  0.1078
 7788TIP3    H144779   5.414   0.017   1.375 -0.3489 -1.3657  1.0437
 7788TIP3    H244780   5.336   0.039   1.503  0.4177  1.9616  1.0173
 7789TIP3   OH244781   5.530   2.302  13.589 -0.8783 -0.3163  0.3418
 7789TIP3    H144782   5.490   2.217  13.609 -1.9799 -0.0461 -0.6229
 7789TIP3    H244783   5.592   2.316  13.660 -1.2516 -1.5623  0.9471
 7790TIP3   OH244784   2.514   2.885  11.070 -0.0810 -0.3786 -0.6382
 7790TIP3    H144785   2.487   2.894  10.979 -0.5200  0.6418 -0.4229
 7790TIP3    H244786   2.433   2.867  11.117  0.1652 -1.0495 -0.4581
 7791TIP3   OH244787   1.167   4.115  11.675  0.4853 -0.1186  0.2444
 7791TIP3    H144788   1.167   4.195  11.728  2.0939  0.0698 -0.0085
 7791TIP3    H244789   1.158   4.146  11.585 -1.7008 -0.4125  0.3099
 7792TIP3   OH244790   2.127   0.584   4.315  0.0199  0.2258 -0.4838
 7792TIP3    H144791   2.180   0.575   4.236  0.5874  0.4890 -0.1432
 7792TIP3    H244792   2.145   0.673   4.345 -0.5149  0.2713 -0.2838
 7793TIP3   OH244793   3.709   5.029   2.183  0.1733  0.7560  0.4034
 7793TIP3    H144794   3.747   5.047   2.269  0.5698  1.5243  0.0814
 7793TIP3    H244795   3.669   5.111   2.157 -0.0170  0.5055 -0.1095
 7794TIP3   OH244796   6.277   4.449  16.735  0.0666  0.2448 -0.7593
 7794TIP3    H144797   6.235   4.444  16.650  0.5411 -0.4475 -0.9567
 7794TIP3    H244798   6.252   4.368  16.780 -0.6508  0.8586 -0.0139
 7795TIP3   OH244799   5.091   3.859   1.032  0.4817 -0.0787 -0.1022
 7795TIP3    H144800   5.060   3.817   1.112  1.6393 -0.4718  0.1617
 7795TIP3    H244801   5.178   3.891   1.054  0.7308 -0.0037 -1.1373
 7796TIP3   OH244802   6.341   3.060  15.175 -0.0973 -0.0158  0.6299
 7796TIP3    H144803   6.326   3.056  15.270  0.8028 -0.1338  0.7763
 7796TIP3    H244804   6.290   2.987  15.140  1.5241 -1.5675  1.3169
 7797TIP3   OH244805   3.385   4.252   1.525  0.2514 -0.6729  0.6593
 7797TIP3    H144806   3.347   4.247   1.437  1.7661  0.1302 -0.0804
 7797TIP3    H244807   3.312   4.275   1.582 -1.1128 -2.7893 -0.1000
 7798TIP3   OH244808   6.650   2.006   5.834 -0.2831  0.1484 -0.1643
 7798TIP3    H144809   6.702   1.930   5.857  0.8203  0.1062 -2.4907
 7798TIP3    H244810   6.657   2.012   5.739 -1.9962  1.9889 -0.2457
 7799TIP3   OH244811   1.844   4.673  13.132 -0.5867  0.1243  0.7787
 7799TIP3    H144812   1.876   4.715  13.052  0.2248 -1.4448  0.2435
 7799TIP3    H244813   1.771   4.728  13.160 -1.7316  0.0393 -1.7506
 7800TIP3   OH244814   6.696   3.559  12.176 -0.5235  0.3156  0.2029
 7800TIP3    H144815   6.672   3.637  12.125 -0.4127 -0.0177 -0.3646
 7800TIP3    H244816   6.670   3.581  12.265 -1.7402  0.4823 -0.1709
 7801TIP3   OH244817   0.912   5.394   3.069  0.0162  0.0667 -0.4542
 7801TIP3    H144818   0.940   5.398   2.977  0.4128  4.2064 -0.3205
 7801TIP3    H244819   0.960   5.465   3.112 -1.9100 -0.2381  2.4776
 7802TIP3   OH244820   4.635   4.128  15.886 -0.4483  0.2610 -0.8363
 7802TIP3    H144821   4.724   4.110  15.856 -0.0921 -1.5990  1.0815
 7802TIP3    H244822   4.580   4.094  15.815  0.3714 -0.6918 -1.0547
 7803TIP3   OH244823   5.088   6.728   5.583  0.2445  0.0865 -0.3966
 7803TIP3    H144824   5.005   6.728   5.631  0.1272  2.6238 -0.4856
 7803TIP3    H244825   5.095   6.816   5.547  2.4429 -0.4303 -1.3875
 7804TIP3   OH244826   1.825   4.713   1.771  1.0282  0.8179  0.0581
 7804TIP3    H144827   1.914   4.747   1.763  1.0430  0.7995  0.1441
 7804TIP3    H244828   1.830   4.647   1.840  0.9494  0.8117  0.0585
 7805TIP3   OH244829   4.696   4.719   0.073 -0.1849 -0.3116 -0.3038
 7805TIP3    H144830   4.610   4.759   0.088  0.8830  1.8039  0.6579
 7805TIP3    H244831   4.677   4.631   0.042 -2.7198 -0.6893  1.9577
 7806TIP3   OH244832   0.233   6.573   2.416  0.6454 -0.2856  0.1929
 7806TIP3    H144833   0.199   6.514   2.348 -0.8686 -0.6659  1.2291
 7806TIP3    H244834   0.292   6.632   2.369  0.3345 -1.0983 -1.2894
 7807TIP3   OH244835   4.575   6.162  13.839 -0.1148 -0.1668 -0.8102
 7807TIP3    H144836   4.530   6.214  13.772 -0.4544  0.2895 -0.2396
 7807TIP3    H244837   4.659   6.138  13.799 -0.4381 -0.1499 -1.5026
 7808TIP3   OH244838   3.403   2.849   0.058 -0.9273  0.7491 -0.8171
 7808TIP3    H144839   3.329   2.894   0.098 -1.5716  0.5807 -1.7923
 7808TIP3    H244840   3.462   2.919   0.029 -0.7828  0.8865 -0.2171
 7809TIP3   OH244841   4.003   5.542   1.617  0.2301 -0.5316  0.1502
 7809TIP3    H144842   3.928   5.578   1.664  0.9995  1.4842 -0.0537
 7809TIP3    H244843   4.078   5.587   1.654  1.1575 -1.1856 -0.8853
 7810TIP3   OH244844   1.353   3.013  14.553  0.6193  0.5228 -0.0205
 7810TIP3    H144845   1.355   2.941  14.490  1.6233 -0.4417  1.0670
 7810TIP3    H244846   1.439   3.010  14.596  0.3272  1.7776  0.7116
 7811TIP3   OH244847   5.471   4.955   5.580  0.4452  0.1175  0.2377
 7811TIP3    H144848   5.422   5.026   5.622  0.2269  0.4461 -0.5609
 7811TIP3    H244849   5.525   4.918   5.651 -0.6190  0.0300  1.0402
 7812TIP3   OH244850   5.528   1.466   5.581 -0.0937  0.2434  0.0399
 7812TIP3    H144851   5.539   1.385   5.631  1.1658  1.3697  1.7053
 7812TIP3    H244852   5.471   1.520   5.635 -1.3658  0.3277 -1.3091
 7813TIP3   OH244853   1.864   1.996  14.425 -0.7330 -0.3556 -0.2419
 7813TIP3    H144854   1.787   1.939  14.429 -0.2661 -1.0530 -1.0123
 7813TIP3    H244855   1.834   2.072  14.374 -1.7736  0.8064  1.9581
 7814TIP3   OH244856   2.471   5.814  11.139  0.7418 -0.0208 -0.2687
 7814TIP3    H144857   2.385   5.791  11.174  0.1409  2.3691  0.0149
 7814TIP3    H244858   2.471   5.782  11.049 -0.5235  0.1092 -0.3250
 7815TIP3   OH244859   1.115   5.911   5.012 -0.3281  0.1263  0.0544
 7815TIP3    H144860   1.109   5.829   5.060  1.6991  0.4738  1.0128
 7815TIP3    H244861   1.047   5.966   5.050 -0.0863 -0.3044  1.1627
 7816TIP3   OH244862   2.349   4.674  10.855  0.1723 -0.2998  0.4881
 7816TIP3    H144863   2.401   4.711  10.783  0.3817 -0.5750  0.4964
 7816TIP3    H244864   2.412   4.660  10.925  0.3269 -1.7305  0.0998
 7817TIP3   OH244865   4.582   1.621   0.269 -0.3140  0.0421  0.1539
 7817TIP3    H144866   4.502   1.572   0.291 -0.6351  0.4236 -0.1331
 7817TIP3    H244867   4.588   1.687   0.338 -0.7069  0.5371 -0.2831
 7818TIP3   OH244868   4.656   4.407  14.529 -0.7343  0.0037 -0.4941
 7818TIP3    H144869   4.704   4.337  14.486  1.2760  1.2057 -0.3354
 7818TIP3    H244870   4.633   4.468  14.459 -0.0593  0.5182 -0.2724
 7819TIP3   OH244871   2.391   1.006  12.428 -0.1782  0.6388 -0.2076
 7819TIP3    H144872   2.438   0.943  12.374  1.4766  1.9024 -0.3106
 7819TIP3    H244873   2.360   1.072  12.367  0.1182  1.1375  0.1806
 7820TIP3   OH244874   5.836   6.017  16.813 -0.3065  0.0407 -0.0577
 7820TIP3    H144875   5.767   6.084  16.818 -1.1771 -0.5054 -2.8197
 7820TIP3    H244876   5.793   5.941  16.773  1.6894 -0.6116 -1.1112
 7821TIP3   OH244877   2.443   6.148  16.002 -0.2507  0.0041 -0.5512
 7821TIP3    H144878   2.462   6.057  16.025 -1.2951 -0.2511 -0.6489
 7821TIP3    H244879   2.466   6.198  16.080 -2.4023 -0.6871  0.6145
 7822TIP3   OH244880   0.527   6.288  16.169 -0.0872  0.2594 -0.1739
 7822TIP3    H144881   0.606   6.323  16.127 -0.3298  0.6053 -0.3531
 7822TIP3    H244882   0.545   6.194  16.180  0.9876  0.6107  1.2696
 7823TIP3   OH244883   1.347   6.366   3.798 -0.0509 -0.3964  0.0893
 7823TIP3    H144884   1.324   6.285   3.753  0.5652  0.4637 -1.8705
 7823TIP3    H244885   1.305   6.435   3.747 -1.3198  0.5324  2.2231
 7824TIP3   OH244886   4.648   0.415   5.308  0.3208  0.1034  0.8503
 7824TIP3    H144887   4.554   0.434   5.314 -0.0787 -1.9262  2.0793
 7824TIP3    H244888   4.655   0.348   5.240  1.0684  1.0775 -0.0709
 7825TIP3   OH244889   0.087   3.126   6.051 -0.3479  0.0219 -0.2070
 7825TIP3    H144890   0.069   3.161   6.138 -0.0623  0.3197 -0.2633
 7825TIP3    H244891   0.163   3.069   6.063  0.2540  0.7528 -0.4037
 7826TIP3   OH244892   0.705   0.268  16.409 -0.8909  0.8234 -0.8307
 7826TIP3    H144893   0.680   0.217  16.331 -0.3287 -0.3831 -0.2502
 7826TIP3    H244894   0.622   0.283  16.455 -1.1825  1.2398 -1.4756
 7827TIP3   OH244895   6.606   4.023  11.195  0.0406 -0.2074 -0.1838
 7827TIP3    H144896   6.621   4.094  11.132  3.8533  1.0417  1.7541
 7827TIP3    H244897   6.664   3.953  11.165 -0.7571 -0.9749  0.0551
 7828TIP3   OH244898   2.470   5.958   1.890  0.1494  0.2170  0.3474
 7828TIP3    H144899   2.504   6.043   1.916 -1.2238  0.0658  2.9542
 7828TIP3    H244900   2.442   5.970   1.799  2.4845  1.6814 -0.2743
 7829TIP3   OH244901   0.034   0.818   3.182  0.2457 -0.8256 -0.2342
 7829TIP3    H144902   0.013   0.910   3.164  1.0831 -0.4141  0.7765
 7829TIP3    H244903   0.042   0.778   3.095  0.6258  0.2378 -0.7144
 7830TIP3   OH244904   5.818   6.017   6.908 -0.0613 -0.4187  0.7279
 7830TIP3    H144905   5.902   6.049   6.874 -0.0086 -0.4924  0.7852
 7830TIP3    H244906   5.835   5.924   6.926 -0.5536 -0.7758 -0.5525
 7831TIP3   OH244907   1.871   4.946  13.737  0.3751  0.2824  0.0301
 7831TIP3    H144908   1.806   5.009  13.703 -2.5951 -1.5936  1.7353
 7831TIP3    H244909   1.877   4.967  13.830  0.9218 -0.6942  0.2198
 7832TIP3   OH244910   1.748   6.010   5.036 -0.0099  0.3942  0.4858
 7832TIP3    H144911   1.827   6.051   5.071  1.6719 -1.1593 -1.2307
 7832TIP3    H244912   1.677   6.070   5.060  1.4627  1.2741  3.1395
 7833TIP3   OH244913   3.782   3.571   0.386  0.0574  0.0173 -0.1929
 7833TIP3    H144914   3.873   3.565   0.415 -0.5065 -1.7461  1.3491
 7833TIP3    H244915   3.734   3.509   0.441 -2.2273  1.4284 -0.4375
 7834TIP3   OH244916   1.139   3.361   4.485 -0.6381 -0.4719  0.3090
 7834TIP3    H144917   1.232   3.384   4.486 -0.6728 -0.3061 -0.1057
 7834TIP3    H244918   1.132   3.292   4.418 -0.5727 -1.5399  1.3730
 7835TIP3   OH244919   3.638   5.038   0.514  0.1898 -0.3052 -0.2226
 7835TIP3    H144920   3.542   5.045   0.520  0.2497 -0.1177  0.5230
 7835TIP3    H244921   3.664   5.111   0.459 -0.0928 -0.3301 -0.3921
 7836TIP3   OH244922   1.560   1.955   2.748  0.8055 -0.6375  0.5925
 7836TIP3    H144923   1.587   1.926   2.835  0.3519  0.3341  1.0627
 7836TIP3    H244924   1.571   1.877   2.693 -0.7188 -1.8321  1.8784
 7837TIP3   OH244925   1.771   6.184  15.399  0.3237 -0.2993  0.1410
 7837TIP3    H144926   1.766   6.272  15.363  0.2054 -0.8067 -1.1513
 7837TIP3    H244927   1.828   6.192  15.475  1.1282  0.7035 -0.5423
 7838TIP3   OH244928   1.730   6.363   2.540 -0.0899 -0.1561 -0.3726
 7838TIP3    H144929   1.814   6.380   2.499 -0.1087  1.2518  0.1239
 7838TIP3    H244930   1.675   6.438   2.516 -0.7375 -0.3335  0.4830
 7839TIP3   OH244931   6.650   1.362  16.323 -0.2355 -0.0779 -0.4576
 7839TIP3    H144932   6.732   1.408  16.342  1.1815 -2.0287 -1.4805
 7839TIP3    H244933   6.616   1.406  16.245 -1.6989  2.4953  1.4524
 7840TIP3   OH244934   3.139   3.642   4.716  0.5840 -0.3055  0.7352
 7840TIP3    H144935   3.210   3.695   4.752  0.3295  0.5140  0.0535
 7840TIP3    H244936   3.091   3.702   4.659 -1.6501 -0.3464  2.4380
 7841TIP3   OH244937   4.934   4.394  16.645  0.4375 -0.3115 -0.1407
 7841TIP3    H144938   4.927   4.465  16.708 -0.5427 -0.4710 -0.0475
 7841TIP3    H244939   4.977   4.323  16.692  0.1856 -0.2450  0.1933
 7842TIP3   OH244940   1.039   1.273  14.108 -0.1319  0.6064 -0.2053
 7842TIP3    H144941   1.128   1.254  14.139 -0.6345  0.4874  1.2038
 7842TIP3    H244942   0.982   1.224  14.166 -1.0874 -1.0401 -2.3664
 7843TIP3   OH244943   5.011   2.929   3.475  0.4605 -0.2410 -0.1634
 7843TIP3    H144944   4.969   2.888   3.552  0.2341 -0.1030 -0.2108
 7843TIP3    H244945   4.956   3.006   3.457  1.1536  0.3488  0.2103
 7844TIP3   OH244946   0.430   1.871   2.626 -0.4030  0.4692  0.2615
 7844TIP3    H144947   0.487   1.797   2.604  0.7775  1.7863 -1.3093
 7844TIP3    H244948   0.398   1.903   2.542 -2.5688  0.5326  1.0299
 7845TIP3   OH244949   1.939   4.616   0.861  0.2401 -0.7057  0.4165
 7845TIP3    H144950   1.855   4.596   0.820  1.0685 -0.6286 -1.3875
 7845TIP3    H244951   1.916   4.644   0.950 -1.5229 -1.9839  0.4171
 7846TIP3   OH244952   1.805   5.738  15.846 -0.4737  0.8016 -0.1265
 7846TIP3    H144953   1.744   5.672  15.879 -0.3891  0.8971  0.2326
 7846TIP3    H244954   1.869   5.689  15.795  1.5262  0.0904  2.8097
 7847TIP3   OH244955   4.916   4.138  16.290  0.2828  0.2639  0.5503
 7847TIP3    H144956   4.964   4.213  16.326  0.1111 -0.0690  1.4845
 7847TIP3    H244957   4.834   4.176  16.259  0.3092  0.5106  0.7742
 7848TIP3   OH244958   6.509   5.328  16.627 -0.4685  0.4580  0.4819
 7848TIP3    H144959   6.580   5.265  16.621  0.0636  1.0265  0.7278
 7848TIP3    H244960   6.521   5.371  16.712  0.2692  2.1512 -0.4329
 7849TIP3   OH244961   3.162   1.336  12.871 -0.3894 -0.2530 -0.1669
 7849TIP3    H144962   3.172   1.292  12.787 -1.9044  0.1137 -0.5720
 7849TIP3    H244963   3.154   1.265  12.935  2.2809 -0.5679 -0.0441
 7850TIP3   OH244964   1.027   0.239  13.020  0.3088  0.3045 -0.5721
 7850TIP3    H144965   0.935   0.217  13.004  0.6049 -1.9197  0.5495
 7850TIP3    H244966   1.023   0.314  13.079 -0.7726  0.4928 -0.8516
 7851TIP3   OH244967   0.415   2.984   2.489  0.0988 -0.4192  0.1203
 7851TIP3    H144968   0.493   3.032   2.459 -0.0339 -1.8098 -2.7657
 7851TIP3    H244969   0.451   2.912   2.542  0.8151 -1.0031 -1.1139
 7852TIP3   OH244970   3.462   0.353  10.895  0.1696  0.1404  0.1224
 7852TIP3    H144971   3.453   0.387  10.805  1.4051  0.2656  0.0180
 7852TIP3    H244972   3.540   0.297  10.891 -1.2545 -1.9839  0.5316
 7853TIP3   OH244973   5.859   3.546  10.929  0.5171  0.3301 -0.4134
 7853TIP3    H144974   5.953   3.540  10.911  0.7244 -3.5715  0.9468
 7853TIP3    H244975   5.817   3.510  10.851  0.1765  1.1491 -0.6194
 7854TIP3   OH244976   0.513   3.406   4.830 -0.1204 -0.0194  0.0931
 7854TIP3    H144977   0.549   3.342   4.892 -2.1233 -1.8932 -0.5590
 7854TIP3    H244978   0.418   3.393   4.835 -0.5112  1.9733 -1.1126
 7855TIP3   OH244979   0.241   5.267  17.077 -0.1967  0.5808 -0.7723
 7855TIP3    H144980   0.297   5.281  17.153 -2.6709 -1.0732  1.4891
 7855TIP3    H244981   0.289   5.203  17.024  0.2022 -0.6242  0.9827
 7856TIP3   OH244982   0.494   6.661   2.857 -0.3978  0.5395  0.1533
 7856TIP3    H144983   0.545   6.701   2.787 -1.6621  0.2713 -0.9343
 7856TIP3    H244984   0.439   6.731   2.891  0.1091  0.6342  0.8119
 7857TIP3   OH244985   0.613   4.830  12.881  0.0985 -0.1112  0.1828
 7857TIP3    H144986   0.667   4.816  12.803  0.4446 -0.5911  0.5041
 7857TIP3    H244987   0.632   4.755  12.937  0.5959  0.7390  1.1668
 7858TIP3   OH244988   0.058   1.558  11.279  0.0499 -0.3888 -0.4207
 7858TIP3    H144989   0.061   1.487  11.343  0.5868  1.3281  1.5400
 7858TIP3    H244990   0.149   1.587  11.270 -0.3322  0.9774 -0.0891
 7859TIP3   OH244991   5.619   2.402   3.897 -0.5635 -0.2279 -0.3200
 7859TIP3    H144992   5.640   2.329   3.956  0.3424 -0.1978 -0.5750
 7859TIP3    H244993   5.604   2.477   3.955 -2.2062 -0.7681 -0.0232
 7860TIP3   OH244994   3.794   1.156  15.782 -0.4458  0.0119  0.4632
 7860TIP3    H144995   3.728   1.100  15.822 -0.7807  0.4562  0.5399
 7860TIP3    H244996   3.796   1.130  15.690 -1.4137  0.6456  0.2518
 7861TIP3   OH244997   5.151   0.274   2.232  0.0218  0.6659 -0.5477
 7861TIP3    H144998   5.223   0.269   2.170  0.7637 -1.8250  0.3811
 7861TIP3    H244999   5.101   0.194   2.217  0.5298 -0.3171  2.2930
 7862TIP3   OH245000   3.881   1.975   0.267 -0.5886  0.4186 -0.5032
 7862TIP3    H145001   3.952   1.912   0.272 -1.1465 -0.2467 -0.8163
 7862TIP3    H245002   3.894   2.032   0.343 -1.1920 -1.2729  0.9400
 7863TIP3   OH245003   1.088   4.824   1.331 -0.1925  0.5906 -0.0933
 7863TIP3    H145004   1.115   4.739   1.297 -0.9792  0.3879 -0.2376
 7863TIP3    H245005   1.149   4.842   1.402 -0.4984 -0.4836  0.4714
 7864TIP3   OH245006   2.432   5.217   2.155 -0.0101 -0.3017 -0.4950
 7864TIP3    H145007   2.420   5.310   2.135 -1.1358 -0.6363 -1.5242
 7864TIP3    H245008   2.355   5.193   2.206  0.9049 -0.4025  0.8915
 7865TIP3   OH245009   4.668   3.524  11.637 -0.2759 -0.3287 -0.1256
 7865TIP3    H145010   4.627   3.600  11.678  0.3492  0.4576 -0.9314
 7865TIP3    H245011   4.758   3.525  11.670 -0.4700 -1.2148  0.5007
 7866TIP3   OH245012   2.525   0.734  11.659 -0.2287  0.5532 -0.0307
 7866TIP3    H145013   2.562   0.811  11.616 -0.8899 -0.1451 -1.9418
 7866TIP3    H245014   2.470   0.769  11.729 -1.2405  1.8992 -1.4411
 7867TIP3   OH245015   1.695   5.169  16.209 -0.0178 -0.3091 -0.3263
 7867TIP3    H145016   1.636   5.244  16.216  0.5413  0.0404  0.8250
 7867TIP3    H245017   1.741   5.182  16.126 -0.3678  0.2763 -0.4330
 7868TIP3   OH245018   1.047   6.620  16.613 -0.4054 -0.2690 -0.0845
 7868TIP3    H145019   0.987   6.671  16.558  1.6335  0.3181 -1.8910
 7868TIP3    H245020   1.070   6.544  16.560 -1.1498 -1.6300  1.4477
 7869TIP3   OH245021   5.682   3.107   0.826 -0.2134 -0.0817 -0.6312
 7869TIP3    H145022   5.663   3.018   0.796  1.2521 -0.9541  0.8314
 7869TIP3    H245023   5.758   3.133   0.775 -0.7903  0.4632 -1.2344
 7870TIP3   OH245024   4.790   3.610  16.495  0.4609  0.1683 -0.4489
 7870TIP3    H145025   4.835   3.689  16.463  0.0607  0.4733 -0.2752
 7870TIP3    H245026   4.732   3.643  16.564 -1.4231  0.0998 -1.9069
 7871TIP3   OH245027   0.756   6.578   3.225  0.3820 -0.3847  0.1384
 7871TIP3    H145028   0.682   6.526   3.256 -0.7710  1.8558  1.4180
 7871TIP3    H245029   0.792   6.618   3.304  0.5804  1.5216 -0.8604
 7872TIP3   OH245030   4.677   6.569   0.172 -0.0699 -0.4200 -0.2124
 7872TIP3    H145031   4.692   6.661   0.153 -0.4944 -0.0560  1.0742
 7872TIP3    H245032   4.740   6.522   0.118 -0.2052  0.5897 -1.2710
 7873TIP3   OH245033   4.918   0.902  13.441 -0.3397 -0.1776  0.5421
 7873TIP3    H145034   4.985   0.873  13.503 -0.3902 -0.4342  0.4777
 7873TIP3    H245035   4.921   0.838  13.371  0.7193  0.8979 -0.4508
 7874TIP3   OH245036   1.422   0.242   5.762 -0.5669  0.0180  0.5488
 7874TIP3    H145037   1.363   0.290   5.819 -0.7250 -0.6250  0.9388
 7874TIP3    H245038   1.509   0.275   5.784 -0.8474  2.2561 -1.2533
 7875TIP3   OH245039   5.158   1.492   0.309 -0.1703 -0.3569 -0.0177
 7875TIP3    H145040   5.092   1.472   0.375 -2.6406 -2.4563 -2.8168
 7875TIP3    H245041   5.200   1.407   0.291  0.9688  0.3121 -0.6593
 7876TIP3   OH245042   6.734   0.505   3.465 -0.1885  0.2247 -0.0706
 7876TIP3    H145043   6.779   0.581   3.501  1.0780  0.5068 -2.0937
 7876TIP3    H245044   6.778   0.429   3.504  1.2076  0.5185 -0.9918
 7877TIP3   OH245045   4.550   1.706   0.532  0.2063  0.3212  0.2778
 7877TIP3    H145046   4.572   1.614   0.514 -1.0073  0.4281 -2.2724
 7877TIP3    H245047   4.599   1.728   0.610  1.8193 -2.0363  0.0245
 7878TIP3   OH245048   4.603   0.209  12.701 -0.2334  0.0924 -0.1282
 7878TIP3    H145049   4.589   0.256  12.783  0.6323  0.3957 -0.1496
 7878TIP3    H245050   4.523   0.224  12.651 -0.8870 -0.3207  0.7652
 7879TIP3   OH245051   3.854   2.737   5.661 -0.1677  1.1894 -0.4824
 7879TIP3    H145052   3.935   2.723   5.709 -1.0828  2.0147  1.4101
 7879TIP3    H245053   3.822   2.822   5.692 -2.1577  0.5078 -0.5316
 7880TIP3   OH245054   6.672   6.051  17.032 -0.7838 -0.1260 -0.0640
 7880TIP3    H145055   6.657   5.958  17.048 -2.6543  0.3675  1.4151
 7880TIP3    H245056   6.588   6.084  17.001 -0.0660  1.0321 -0.8461
 7881TIP3   OH245057   6.116   2.043  11.441 -0.2724  0.3114  0.2870
 7881TIP3    H145058   6.041   2.040  11.382 -0.2451 -0.8955  0.2831
 7881TIP3    H245059   6.129   2.136  11.460 -1.1697  0.5991 -0.4655
 7882TIP3   OH245060   0.160   1.970   4.735 -0.0658  0.4224 -0.8313
 7882TIP3    H145061   0.245   1.972   4.778 -1.1116 -0.1217  1.3825
 7882TIP3    H245062   0.132   2.062   4.731  1.0171  0.7361 -2.5570
 7883TIP3   OH245063   4.549   0.805   3.517  0.0553  0.0417  0.3848
 7883TIP3    H145064   4.641   0.784   3.498 -0.2443 -1.1116  0.0988
 7883TIP3    H245065   4.549   0.898   3.537  1.1264  0.3094 -0.7316
 7884TIP3   OH245066   5.316   5.796   2.854  0.1094 -0.5887  0.2405
 7884TIP3    H145067   5.394   5.845   2.827 -0.3227  0.3556  0.6452
 7884TIP3    H245068   5.349   5.712   2.883  0.9987 -0.1671  0.4861
 7885TIP3   OH245069   2.112   3.541  16.967 -0.3987 -0.4525 -0.1477
 7885TIP3    H145070   2.038   3.595  16.993 -1.2925 -1.2652 -0.9054
 7885TIP3    H245071   2.188   3.598  16.975 -1.1300  0.4587  0.4599
 7886TIP3   OH245072   1.644   6.403   0.054 -0.0906  0.2144  0.0465
 7886TIP3    H145073   1.603   6.473   0.104  0.0853  0.0087  0.4781
 7886TIP3    H245074   1.699   6.449  -0.011  0.6919  0.4821  0.8736
 7887TIP3   OH245075   1.714   1.344  15.298  0.2159 -0.0740 -0.0448
 7887TIP3    H145076   1.701   1.359  15.392 -1.6849  2.5618 -0.6099
 7887TIP3    H245077   1.724   1.249  15.290 -1.5883 -0.5987  2.6336
 7888TIP3   OH245078   0.086   1.245   0.102  0.3311 -0.2197  0.1207
 7888TIP3    H145079   0.106   1.171   0.159 -1.0939 -0.6511  0.1168
 7888TIP3    H245080   0.020   1.295   0.151  0.3137  0.3218 -0.4462
 7889TIP3   OH245081   5.476   6.637   3.605 -0.5056  0.9167 -0.5758
 7889TIP3    H145082   5.454   6.547   3.581  0.9102 -0.3115  2.2020
 7889TIP3    H245083   5.568   6.647   3.581 -0.1079  0.8985  0.8458
 7890TIP3   OH245084   3.614   2.947   4.460  0.3868 -0.3735  0.1687
 7890TIP3    H145085   3.538   2.904   4.499  0.4508 -0.5560  0.0921
 7890TIP3    H245086   3.669   2.972   4.535  1.0945 -1.7941  0.1694
 7891TIP3   OH245087   1.919   3.712   0.423  0.5600  0.1023 -0.2999
 7891TIP3    H145088   1.962   3.795   0.442 -0.9072  0.8162  0.0674
 7891TIP3    H245089   1.959   3.650   0.484  2.5209  0.2261 -1.3879
 7892TIP3   OH245090   1.122   2.001  13.183  0.4104 -0.4777  1.0828
 7892TIP3    H145091   1.178   2.076  13.203 -0.0163 -0.6671  3.1105
 7892TIP3    H245092   1.173   1.925  13.211  0.0220 -0.8082  0.8963
 7893TIP3   OH245093   5.692   3.989   2.147  0.5263  0.3182 -0.0836
 7893TIP3    H145094   5.671   3.923   2.081 -0.1517  0.4597 -0.0158
 7893TIP3    H245095   5.657   3.952   2.229  0.3908  0.6354  0.0023
 7894TIP3   OH245096   1.523   2.442   4.903  0.8074 -0.5952  0.1810
 7894TIP3    H145097   1.555   2.372   4.960  0.3752 -0.0781  1.0849
 7894TIP3    H245098   1.534   2.521   4.955 -0.7479 -0.2471  0.0305
 7895TIP3   OH245099   2.497   1.054   1.130 -0.2237 -0.3705  0.6090
 7895TIP3    H145100   2.506   1.071   1.224 -0.5464  0.2529  0.5335
 7895TIP3    H245101   2.444   1.127   1.098  1.2536  0.3068 -0.3526
 7896TIP3   OH245102   1.306   0.666  14.796  0.2079 -0.1940 -0.0442
 7896TIP3    H145103   1.399   0.648  14.810  0.0311  0.4275  2.4876
 7896TIP3    H245104   1.292   0.752  14.837 -1.7783 -1.0064  1.1062
 7897TIP3   OH245105   4.942   3.231   5.161 -0.3708 -0.0501  0.1075
 7897TIP3    H145106   4.867   3.205   5.215  0.3027  1.0201  1.6410
 7897TIP3    H245107   5.017   3.222   5.219  0.6969 -0.8822 -1.3337
 7898TIP3   OH245108   5.826   1.546  12.282 -0.4035  0.4660  0.2877
 7898TIP3    H145109   5.841   1.452  12.291  0.3752  0.6838  1.4168
 7898TIP3    H245110   5.900   1.587  12.327 -1.4941  1.6175  1.1065
 7899TIP3   OH245111   2.768   0.253   3.669 -0.1261 -0.8245 -0.2649
 7899TIP3    H145112   2.767   0.286   3.579  0.4685 -0.2583 -0.0669
 7899TIP3    H245113   2.712   0.314   3.717  0.1008 -0.7348 -0.1144
 7900TIP3   OH245114   0.547   0.212  13.154 -0.2421  0.1449 -0.1808
 7900TIP3    H145115   0.504   0.278  13.208 -1.6087 -0.4072 -0.5771
 7900TIP3    H245116   0.481   0.184  13.091  1.5030  1.3279 -2.7171
 7901TIP3   OH245117   3.387   1.807   1.730  0.2631 -0.0824  0.4742
 7901TIP3    H145118   3.332   1.861   1.787 -0.3363  1.3074 -1.3517
 7901TIP3    H245119   3.415   1.866   1.660  0.3938 -1.9032 -1.0742
 7902TIP3   OH245120   6.619   5.886   1.887 -0.0640  0.2820  0.4084
 7902TIP3    H145121   6.540   5.889   1.833  0.6488  2.3518 -0.5954
 7902TIP3    H245122   6.586   5.875   1.976 -1.3280 -1.5518 -0.2114
 7903TIP3   OH245123   4.135   2.239   4.167  0.8795  0.1078  0.1905
 7903TIP3    H145124   4.045   2.247   4.135  1.0322  0.2069 -0.2228
 7903TIP3    H245125   4.183   2.203   4.093  1.5493  1.7260 -0.1910
 7904TIP3   OH245126   6.247   2.510   4.351  0.0275  0.4051 -0.8931
 7904TIP3    H145127   6.164   2.545   4.383  0.6484  1.7023 -0.6341
 7904TIP3    H245128   6.295   2.587   4.320  1.2646 -0.2847 -0.7396
 7905TIP3   OH245129   2.679   4.579  13.647  0.8353 -0.2802 -0.1029
 7905TIP3    H145130   2.588   4.569  13.619  0.3788 -0.1420  1.2309
 7905TIP3    H245131   2.730   4.577  13.566 -0.2383 -1.6153 -0.7890
 7906TIP3   OH245132   1.206   5.535  10.782 -0.2260 -0.4503  0.6856
 7906TIP3    H145133   1.114   5.547  10.760 -0.2030 -1.1015  0.2210
 7906TIP3    H245134   1.228   5.448  10.748  0.9185  0.2319 -0.4103
 7907TIP3   OH245135   2.559   1.807  15.173 -0.3934 -0.5216  0.2030
 7907TIP3    H145136   2.528   1.790  15.083 -1.9102 -0.3577  0.6629
 7907TIP3    H245137   2.650   1.835  15.162 -0.9367  0.8209 -1.4182
 7908TIP3   OH245138   0.372   6.647   5.115  0.0482  0.2404 -0.5468
 7908TIP3    H145139   0.328   6.566   5.090  0.2138 -0.4295  1.1699
 7908TIP3    H245140   0.307   6.715   5.102  0.1848  0.0065 -2.8557
 7909TIP3   OH245141   1.342   4.067  12.044  0.3183  0.3463  0.4487
 7909TIP3    H145142   1.293   4.024  12.114 -1.3564 -0.4604 -1.1311
 7909TIP3    H245143   1.403   4.000  12.012 -0.4578 -0.0423 -0.2722
 7910TIP3   OH245144   5.310   6.724  17.150  0.1737 -0.6802 -0.1966
 7910TIP3    H145145   5.317   6.634  17.118 -2.3886 -1.6554  1.6720
 7910TIP3    H245146   5.393   6.738  17.196  1.9271 -0.8756 -3.0212
 7911TIP3   OH245147   4.249   3.564  17.159  0.0159  0.8248  0.4453
 7911TIP3    H145148   4.190   3.489  17.153  1.3320 -0.2924  0.7818
 7911TIP3    H245149   4.221   3.610  17.238 -0.4871  0.3995  0.5243
 7912TIP3   OH245150   4.528   4.725   1.625 -0.1593 -0.1095  0.3359
 7912TIP3    H145151   4.531   4.685   1.538  0.7442 -0.0747  0.3401
 7912TIP3    H245152   4.438   4.712   1.655 -1.3198  2.2588 -1.7144
 7913TIP3   OH245153   0.656   5.895   2.825  0.0053  0.5075 -0.4698
 7913TIP3    H145154   0.734   5.843   2.844 -0.6964  0.1960  1.9423
 7913TIP3    H245155   0.675   5.981   2.861 -0.6222  0.5123 -0.1286
 7914TIP3   OH245156   4.691   4.671  17.073  0.6268 -0.2819  0.7121
 7914TIP3    H145157   4.753   4.649  17.004  0.3863 -0.5817  0.5874
 7914TIP3    H245158   4.611   4.625  17.049  1.1759 -2.2655  2.3282
 7915TIP3   OH245159   0.854   4.276  11.824  0.0222 -0.4191  0.1037
 7915TIP3    H145160   0.823   4.313  11.741 -1.8674 -0.2428  0.8401
 7915TIP3    H245161   0.946   4.300  11.828 -0.2490  0.9965 -1.1817
 7916TIP3   OH245162   2.662   1.274  13.122  0.0484  0.3278  0.0029
 7916TIP3    H145163   2.668   1.354  13.174 -0.6944  1.2064 -1.2087
 7916TIP3    H245164   2.631   1.208  13.184 -0.8525  1.3479  0.6768
 7917TIP3   OH245165   4.076   6.501  13.635 -0.1225  0.4756 -0.3953
 7917TIP3    H145166   4.118   6.484  13.550  2.1095  0.3056  0.6560
 7917TIP3    H245167   3.998   6.446  13.634  1.8757 -2.6117 -0.8973
 7918TIP3   OH245168   6.369   6.042  12.177 -0.0632  0.0221  0.1500
 7918TIP3    H145169   6.338   6.064  12.090  0.2026 -0.5509 -0.0951
 7918TIP3    H245170   6.364   5.947  12.181  5.3128 -0.6563 -1.4103
 7919TIP3   OH245171   6.361   5.670  15.490  0.6351 -0.5610  0.4026
 7919TIP3    H145172   6.352   5.724  15.412  1.1974 -0.3789  0.4541
 7919TIP3    H245173   6.279   5.622  15.497  0.8123 -1.0408 -0.6502
 7920TIP3   OH245174   1.203   5.903  15.736  0.3341  0.1133  0.8722
 7920TIP3    H145175   1.118   5.933  15.703  1.1530 -1.1292 -2.8503
 7920TIP3    H245176   1.184   5.820  15.778 -0.3501 -0.0927  0.1845
 7921TIP3   OH245177   4.516   0.302   2.742 -0.1217 -0.4036 -0.6271
 7921TIP3    H145178   4.470   0.329   2.821  1.0593 -1.1939  0.3594
 7921TIP3    H245179   4.574   0.232   2.770  1.1755  0.0865 -1.9532
 7922TIP3   OH245180   2.626   5.640  10.377  0.0731 -0.1503 -0.3125
 7922TIP3    H145181   2.681   5.703  10.423 -1.1825  0.2596  0.6892
 7922TIP3    H245182   2.547   5.688  10.355 -1.1600 -1.4541  0.9764
 7923TIP3   OH245183   3.991   2.321   0.226 -0.4962 -0.1374  0.4832
 7923TIP3    H145184   4.008   2.397   0.282  0.3553 -0.4920  0.7382
 7923TIP3    H245185   3.920   2.348   0.168  0.9501  1.4864 -0.6364
 7924TIP3   OH245186   5.961   3.805  13.672 -0.3207 -0.3093  0.1715
 7924TIP3    H145187   6.022   3.866  13.712  0.6475  0.0076 -1.6777
 7924TIP3    H245188   5.879   3.819  13.718  0.7433 -0.1173  2.1203
 7925TIP3   OH245189   6.119   3.691   4.423 -0.1667  0.1886  0.3288
 7925TIP3    H145190   6.175   3.627   4.377 -1.6472  1.5065 -3.6825
 7925TIP3    H245191   6.031   3.653   4.419 -0.7365  1.5398 -0.2309
 7926TIP3   OH245192   2.016   3.090  14.969 -0.1493  0.5281  0.7571
 7926TIP3    H145193   1.957   3.077  15.043  0.2636 -1.2365  0.8140
 7926TIP3    H245194   2.034   3.184  14.969 -0.2517  0.5839  2.8213
 7927TIP3   OH245195   0.453   2.648  17.346 -0.5913 -0.2683 -0.6194
 7927TIP3    H145196   0.519   2.686  17.405  0.1114  0.3052 -1.7465
 7927TIP3    H245197   0.504   2.594  17.285 -1.1577  0.1761 -1.5070
 7928TIP3   OH245198   5.765   0.128   2.884  0.5228  0.0840 -0.1998
 7928TIP3    H145199   5.773   0.035   2.861  0.5236 -0.0072  0.1629
 7928TIP3    H245200   5.850   0.150   2.923  1.0368  0.6070 -1.5578
 7929TIP3   OH245201   6.012   3.882   1.524  0.7762  0.3954  0.5376
 7929TIP3    H145202   5.938   3.943   1.521 -1.2158 -1.6265  3.5182
 7929TIP3    H245203   6.015   3.843   1.437  0.2914  2.5967 -0.5422
 7930TIP3   OH245204   3.209   1.894  12.049 -0.3089 -0.1226 -0.5997
 7930TIP3    H145205   3.243   1.818  12.002 -1.9394 -0.4514 -1.3017
 7930TIP3    H245206   3.138   1.927  11.994 -2.0199 -0.2638  1.3842
 7931TIP3   OH245207   3.320   3.288   3.766 -1.0268 -0.0982 -0.4391
 7931TIP3    H145208   3.281   3.353   3.825  1.3833 -0.6016  1.8746
 7931TIP3    H245209   3.290   3.204   3.800 -1.2496 -0.3463 -1.2222
 7932TIP3   OH245210   0.986   0.629   4.734  0.1162 -0.4923  0.5080
 7932TIP3    H145211   0.907   0.608   4.784 -0.1759 -0.3517  0.1098
 7932TIP3    H245212   1.052   0.568   4.767  0.3770  0.6246  2.1874
 7933TIP3   OH245213   3.301   2.667  10.697  0.0650 -0.2737  0.3488
 7933TIP3    H145214   3.295   2.572  10.709 -0.7036 -0.3731 -0.7124
 7933TIP3    H245215   3.259   2.704  10.774 -1.2867 -0.8337 -0.0855
 7934TIP3   OH245216   3.018   5.773  13.164  0.4506 -0.0070 -0.4145
 7934TIP3    H145217   2.953   5.732  13.221  1.0201  0.4923  0.6272
 7934TIP3    H245218   2.981   5.765  13.076 -1.6290  1.3732  0.2546
 7935TIP3   OH245219   5.538   4.183   4.161 -0.1270  0.2452  0.1049
 7935TIP3    H145220   5.533   4.278   4.163  0.5599  0.3325 -1.0400
 7935TIP3    H245221   5.481   4.158   4.088 -0.7497 -0.2710  0.7555
 7936TIP3   OH245222   3.751   6.153  14.940  0.1789  0.1228  0.2219
 7936TIP3    H145223   3.703   6.232  14.965 -0.5792 -0.5905  1.1140
 7936TIP3    H245224   3.802   6.132  15.018 -1.2172 -1.4192  0.7641
 7937TIP3   OH245225   6.762   1.462  15.856 -0.1795 -0.0107 -0.4666
 7937TIP3    H145226   6.717   1.453  15.772  1.4421  1.3328 -1.5377
 7937TIP3    H245227   6.744   1.380  15.902 -0.3370 -1.1675 -2.5069
 7938TIP3   OH245228   3.638   4.331   1.872  0.6009 -0.2390  0.1524
 7938TIP3    H145229   3.667   4.240   1.874  1.2245 -0.1651 -2.2793
 7938TIP3    H245230   3.714   4.381   1.905  1.2805 -0.4347 -1.0687
 7939TIP3   OH245231   3.041   3.946   0.494 -0.0617  0.1400  0.8248
 7939TIP3    H145232   3.119   3.892   0.492 -0.2739 -0.1453  0.2666
 7939TIP3    H245233   3.038   3.989   0.409 -1.2221 -0.8697  0.3323
 7940TIP3   OH245234   2.884   0.658   1.636  0.5360  0.3068 -0.2831
 7940TIP3    H145235   2.966   0.633   1.593  0.5390  0.1421 -0.1820
 7940TIP3    H245236   2.852   0.577   1.675  0.4644  0.4288 -0.0881
 7941TIP3   OH245237   3.176   2.039  15.640  0.7061  1.2569 -0.4064
 7941TIP3    H145238   3.160   2.094  15.716 -0.9311  1.6103 -0.9659
 7941TIP3    H245239   3.147   1.952  15.666  1.1572  1.1478 -0.2703
 7942TIP3   OH245240   4.531   4.014  14.159 -0.7896 -0.9844  0.3506
 7942TIP3    H145241   4.622   3.999  14.185 -1.0626 -2.1673  0.7290
 7942TIP3    H245242   4.519   3.960  14.081 -0.9313 -0.1374 -0.2276
 7943TIP3   OH245243   5.147   1.005  11.607  0.6688 -0.0082  0.0843
 7943TIP3    H145244   5.165   0.911  11.615 -0.6365 -0.3813 -0.9720
 7943TIP3    H245245   5.220   1.039  11.556  1.1271 -0.4608  0.4289
 7944TIP3   OH245246   0.642   5.477   4.532 -0.5563  0.6049 -0.1948
 7944TIP3    H145247   0.565   5.422   4.545  0.0566 -0.5358 -1.1151
 7944TIP3    H245248   0.659   5.473   4.438  1.5703 -0.5772  0.1708
 7945TIP3   OH245249   1.605   3.795   6.045  0.4358 -0.5656  0.5161
 7945TIP3    H145250   1.562   3.880   6.034  0.5060 -0.3918  1.4409
 7945TIP3    H245251   1.533   3.732   6.051  0.3853 -0.5892 -0.2498
 7946TIP3   OH245252   1.278   5.771  14.079  0.1176  0.1413 -0.3550
 7946TIP3    H145253   1.362   5.805  14.110 -0.3679  0.6816  0.4172
 7946TIP3    H245254   1.291   5.756  13.986  0.8960  0.7861 -0.3594
 7947TIP3   OH245255   0.679   1.550  11.661 -0.2528 -0.4212 -0.1262
 7947TIP3    H145256   0.648   1.641  11.659  0.2153 -0.1303  2.3620
 7947TIP3    H245257   0.768   1.554  11.629 -0.0164  0.1367  0.5658
 7948TIP3   OH245258   1.912   6.238  16.342 -0.4454  0.0168 -0.3772
 7948TIP3    H145259   1.856   6.207  16.414 -0.3690  1.1164  0.1857
 7948TIP3    H245260   1.897   6.333  16.340 -0.5423 -0.0165 -1.9171
 7949TIP3   OH245261   1.846   2.829  12.917  0.2404 -0.2587 -0.0164
 7949TIP3    H145262   1.937   2.803  12.900  0.3853 -2.5404  3.3438
 7949TIP3    H245263   1.848   2.867  13.005 -1.9299  0.8777 -0.3846
 7950TIP3   OH245264   0.841   0.364  16.811 -0.4246 -0.3908 -0.3796
 7950TIP3    H145265   0.769   0.362  16.873  1.0373 -2.1976  1.3744
 7950TIP3    H245266   0.823   0.293  16.749 -0.4117 -0.4959 -0.2614
 7951TIP3   OH245267   6.758   3.262  17.126  0.1266 -0.2186 -0.1129
 7951TIP3    H145268   6.846   3.299  17.133  0.4112 -0.8643 -0.2094
 7951TIP3    H245269   6.766   3.173  17.160 -0.4675 -0.3194 -0.2135
 7952TIP3   OH245270   1.056   4.822   3.790  0.0293  0.3268 -0.3296
 7952TIP3    H145271   1.012   4.841   3.872  1.8192  1.5230  0.4159
 7952TIP3    H245272   1.011   4.744   3.756 -0.7356 -0.2150  1.7704
 7953TIP3   OH245273   3.785   3.755   2.809 -0.5868  0.2645  0.6306
 7953TIP3    H145274   3.857   3.817   2.822 -2.4197  3.0208 -1.2823
 7953TIP3    H245275   3.741   3.751   2.894  0.9084 -0.3037  1.4164
 7954TIP3   OH245276   3.181   1.219   0.838  0.2724  0.6183  0.0195
 7954TIP3    H145277   3.167   1.313   0.829  1.3871  0.8878  0.8410
 7954TIP3    H245278   3.133   1.180   0.766 -1.6343  1.6912  0.6520
 7955TIP3   OH245279   2.836   4.791   5.349 -0.1216 -0.5233 -0.1124
 7955TIP3    H145280   2.741   4.796   5.352 -0.0862  0.5131 -0.1737
 7955TIP3    H245281   2.863   4.874   5.309  0.7715 -1.1238 -0.7983
 7956TIP3   OH245282   2.836   4.732   4.307 -0.1742  0.1346 -0.0484
 7956TIP3    H145283   2.918   4.714   4.355  0.7513  1.0585 -1.2343
 7956TIP3    H245284   2.860   4.724   4.215 -1.2986  0.9560 -0.4304
 7957TIP3   OH245285   3.656   1.472  14.971  0.4348  0.3740  0.3998
 7957TIP3    H145286   3.619   1.402  14.917  1.8599  1.2390 -1.8238
 7957TIP3    H245287   3.750   1.451  14.976  0.5011  0.9009  1.6670
 7958TIP3   OH245288   6.503   4.571  12.347  0.1015 -0.1454  0.0426
 7958TIP3    H145289   6.526   4.480  12.363  0.6325  0.2044  1.3617
 7958TIP3    H245290   6.481   4.606  12.433  2.3664  1.6315 -0.0124
 7959TIP3   OH245291   1.183   4.574   3.658  0.6293 -0.6453  0.2301
 7959TIP3    H145292   1.186   4.669   3.646  2.4872 -0.0402  3.9635
 7959TIP3    H245293   1.125   4.543   3.589 -0.6780  3.2668 -0.6942
 7960TIP3   OH245294   2.000   0.434  12.706  0.1921  0.2734 -0.5656
 7960TIP3    H145295   1.995   0.489  12.784 -1.3818  0.9615 -1.1086
 7960TIP3    H245296   1.909   0.410  12.687  0.6902 -1.1301 -1.3268
 7961TIP3   OH245297   6.138   3.853   5.377  0.4416 -0.5510 -0.3409
 7961TIP3    H145298   6.103   3.793   5.442 -2.3672 -0.6439 -1.8014
 7961TIP3    H245299   6.201   3.801   5.326  0.1812 -1.4110  0.2139
 7962TIP3   OH245300   4.149   5.835  15.065 -0.5991  0.4940 -1.1968
 7962TIP3    H145301   4.075   5.840  15.005 -2.1183  1.3903  0.6481
 7962TIP3    H245302   4.158   5.742  15.085 -2.2390  0.5020 -0.2955
 7963TIP3   OH245303   2.333   2.551  12.349 -0.2693  0.0856  0.1027
 7963TIP3    H145304   2.350   2.522  12.259 -1.3868  1.2030 -0.5007
 7963TIP3    H245305   2.332   2.647  12.343  1.2065  0.2343  1.6297
 7964TIP3   OH245306   4.974   5.851   4.727  0.6547 -0.0020  0.0582
 7964TIP3    H145307   4.911   5.915   4.695 -0.3164 -0.3428  1.2325
 7964TIP3    H245308   5.059   5.890   4.708  0.0927  0.9345 -0.6227
 7965TIP3   OH245309   5.149   0.402   0.010 -0.2131  0.0851  0.2237
 7965TIP3    H145310   5.090   0.370   0.078 -0.4665 -1.2287 -0.5692
 7965TIP3    H245311   5.216   0.334   0.002  0.7713  1.0134  0.3016
 7966TIP3   OH245312   6.598   5.721  16.439  0.0836 -0.3389  0.5586
 7966TIP3    H145313   6.668   5.772  16.397 -1.0919  0.3721 -0.6386
 7966TIP3    H245314   6.628   5.630  16.434 -0.2387 -0.3843 -2.5254
 7967TIP3   OH245315   5.584   1.902   3.642  0.2940 -0.0737  0.1597
 7967TIP3    H145316   5.665   1.949   3.661 -0.1986  0.7742  0.1857
 7967TIP3    H245317   5.543   1.888   3.728 -0.3735  0.9553  0.0372
 7968TIP3   OH245318   1.894   3.092   2.530  0.0563 -0.5319  0.0898
 7968TIP3    H145319   1.808   3.070   2.496  0.2718  0.4062 -1.1370
 7968TIP3    H245320   1.949   3.016   2.508 -0.4161 -1.0697  0.7487
 7969TIP3   OH245321   4.339   1.555  12.502 -0.0880 -0.0677  0.1327
 7969TIP3    H145322   4.294   1.629  12.463  0.4119  1.4996  2.3527
 7969TIP3    H245323   4.431   1.566  12.475  0.2349  0.9475  1.5137
 7970TIP3   OH245324   6.440   5.104  13.321 -0.0459  0.2776 -0.3463
 7970TIP3    H145325   6.536   5.097  13.324 -0.0942  0.1105  1.8884
 7970TIP3    H245326   6.411   5.019  13.289  0.4911 -0.3583  0.8121
 7971TIP3   OH245327   4.960   0.019  13.117  0.2658 -0.7704 -0.3208
 7971TIP3    H145328   4.992   0.006  13.206  1.1690  0.3238 -0.4600
 7971TIP3    H245329   4.908  -0.059  13.098 -0.2485 -0.8481  1.2820
 7972TIP3   OH245330   6.387   4.433   5.557  0.3496 -0.1267 -0.2617
 7972TIP3    H145331   6.425   4.512   5.595  0.2566 -0.2694  0.1220
 7972TIP3    H245332   6.360   4.380   5.631 -2.7404  0.9594 -0.4861
 7973TIP3   OH245333   3.514   3.223  17.059 -0.2942 -0.5754 -0.6223
 7973TIP3    H145334   3.568   3.241  16.982  0.6510  1.8858  0.5031
 7973TIP3    H245335   3.575   3.184  17.122  0.5152  2.6178  0.8141
 7974TIP3   OH245336   5.911   6.695   3.145  0.3952  0.3652  0.2317
 7974TIP3    H145337   5.849   6.768   3.148 -0.6751 -0.5158  0.4215
 7974TIP3    H245338   5.871   6.628   3.201  0.1492 -1.2609 -1.7951
 7975TIP3   OH245339   1.923   0.196  16.412 -0.4807  0.3535 -0.3515
 7975TIP3    H145340   1.853   0.261  16.420 -0.4950  0.2324  0.6228
 7975TIP3    H245341   1.913   0.140  16.489 -0.2698 -0.6177 -1.0125
 7976TIP3   OH245342   3.290   0.340   4.054 -0.1085 -0.3965  0.1887
 7976TIP3    H145343   3.286   0.248   4.030 -1.6969 -0.4289  0.4587
 7976TIP3    H245344   3.206   0.377   4.024 -0.4117  0.4723  1.9323
 7977TIP3   OH245345   0.060   0.234   3.509 -0.2478 -0.3305 -0.0361
 7977TIP3    H145346   0.130   0.297   3.489 -0.9202 -0.2568 -2.5004
 7977TIP3    H245347   0.097   0.149   3.487  0.3233 -0.7655  2.3641
 7978TIP3   OH245348   6.413   0.653  16.399 -0.0541 -0.3156 -0.5440
 7978TIP3    H145349   6.439   0.561  16.407 -4.2474 -1.8944 -2.2839
 7978TIP3    H245350   6.352   0.667  16.472 -0.1970  0.7770 -0.8540
 7979TIP3   OH245351   0.769   3.504  11.836  0.3185  0.4305  0.1655
 7979TIP3    H145352   0.693   3.449  11.857  0.5258 -0.0278 -0.2802
 7979TIP3    H245353   0.735   3.569  11.775  0.2256  0.3863  0.1692
 7980TIP3   OH245354   1.433   0.837  16.972  0.3890  0.9936  0.2507
 7980TIP3    H145355   1.432   0.788  16.890 -0.7395  2.9097 -0.9660
 7980TIP3    H245356   1.484   0.783  17.032 -0.0884 -1.2299 -1.2259
 7981TIP3   OH245357   3.557   0.355   0.525 -0.7214  0.0160  0.3757
 7981TIP3    H145358   3.585   0.425   0.583 -0.2265  0.1353 -0.0048
 7981TIP3    H245359   3.462   0.368   0.516 -0.8397 -0.1306  1.3137
 7982TIP3   OH245360   2.357   0.471  12.341  0.1911  0.3972  0.4032
 7982TIP3    H145361   2.387   0.522  12.266  1.3111  1.2841  1.4106
 7982TIP3    H245362   2.302   0.531  12.391 -0.8141 -0.2858  0.1525
 7983TIP3   OH245363   4.304   1.261   2.482  0.2718 -0.1281 -0.1011
 7983TIP3    H145364   4.248   1.188   2.456  1.7418 -2.6235  3.0240
 7983TIP3    H245365   4.366   1.271   2.410  0.1351 -2.1409 -0.5534
 7984TIP3   OH245366   1.567   6.164   2.609  0.0771  0.0491 -0.0516
 7984TIP3    H145367   1.621   6.225   2.559 -0.8025 -0.3154 -1.5389
 7984TIP3    H245368   1.620   6.084   2.616 -0.1235 -0.2192 -1.2715
 7985TIP3   OH245369   5.185   2.825   2.438  0.0162 -0.0020 -0.7062
 7985TIP3    H145370   5.127   2.882   2.388 -0.0616 -1.1077 -1.9330
 7985TIP3    H245371   5.150   2.737   2.424 -1.0217 -0.2904  2.6665
 7986TIP3   OH245372   3.368   4.792   6.168 -0.2413  0.1204  0.5279
 7986TIP3    H145373   3.354   4.801   6.262 -0.9908 -1.1062  0.5637
 7986TIP3    H245374   3.390   4.699   6.156  0.5125  0.4074 -0.4356
 7987TIP3   OH245375   3.948   5.933   0.461 -0.4986  0.0293  0.0791
 7987TIP3    H145376   3.858   5.921   0.490 -0.6648 -0.9867 -0.7801
 7987TIP3    H245377   3.971   6.022   0.488 -1.7371  0.2758  0.3549
 7988TIP3   OH245378   3.408   5.109   3.402  0.0056 -0.0991  0.0401
 7988TIP3    H145379   3.432   5.136   3.313 -1.0039  0.5782 -0.0410
 7988TIP3    H245380   3.492   5.092   3.445  0.5187 -0.1368 -0.9458
 7989TIP3   OH245381   5.832   2.838   5.540 -0.2137  0.0321  0.1005
 7989TIP3    H145382   5.860   2.823   5.630 -2.6638 -0.0240  0.9145
 7989TIP3    H245383   5.857   2.758   5.493  2.1857  0.5495  0.3671
 7990TIP3   OH245384   6.062   3.580  13.165 -0.0500  0.4958  0.3552
 7990TIP3    H145385   6.108   3.663  13.155  1.4239 -0.4516 -1.4178
 7990TIP3    H245386   6.075   3.535  13.082  0.1704 -1.9831  1.6300
 7991TIP3   OH245387   2.003   0.506   0.848  0.1140  0.3194  0.1817
 7991TIP3    H145388   2.059   0.489   0.771  1.1110 -1.1991  1.1917
 7991TIP3    H245389   2.046   0.578   0.893  0.7027 -0.1572  0.3978
 7992TIP3   OH245390   2.263   3.627   6.752 -0.3438  0.0601  0.2850
 7992TIP3    H145391   2.339   3.609   6.806 -1.2514  0.2086  1.6502
 7992TIP3    H245392   2.296   3.686   6.683  0.7712  0.0932  0.8315
 7993TIP3   OH245393   4.615   4.985  13.514 -0.1440  1.1196 -0.3528
 7993TIP3    H145394   4.552   4.939  13.570  0.1856  0.3395 -0.5975
 7993TIP3    H245395   4.681   4.919  13.495 -0.3450  1.3175 -1.8111
 7994TIP3   OH245396   3.810   3.434   3.585 -0.6717 -0.1987 -0.0291
 7994TIP3    H145397   3.732   3.393   3.622 -1.5819 -0.1043 -1.7468
 7994TIP3    H245398   3.883   3.393   3.632 -1.6724 -1.5501  0.4085
 7995TIP3   OH245399   1.824   4.316   4.666 -0.1883 -0.8796  0.4124
 7995TIP3    H145400   1.855   4.228   4.647 -1.2068 -1.1293 -0.1627
 7995TIP3    H245401   1.746   4.327   4.612 -0.2281  0.2841  0.6667
 7996TIP3   OH245402   2.199   2.222   0.501  0.1657 -0.5678 -0.0476
 7996TIP3    H145403   2.140   2.296   0.489 -0.6293 -1.5312 -3.1928
 7996TIP3    H245404   2.263   2.252   0.565 -1.3203  2.0491  0.3479
 7997TIP3   OH245405   0.039   6.440   3.183  0.2022  0.7298 -0.1505
 7997TIP3    H145406   0.118   6.410   3.227 -0.2913 -0.2012  0.1131
 7997TIP3    H245407   0.047   6.406   3.094  0.4135  1.2155 -0.3218
 7998TIP3   OH245408   4.294   1.362  14.385  0.2213  0.2424  0.3247
 7998TIP3    H145409   4.228   1.423  14.418  0.3073  1.0603 -0.9371
 7998TIP3    H245410   4.359   1.418  14.341  0.3384 -0.7431 -0.8063
 7999TIP3   OH245411   2.439   4.018   4.976 -0.0910 -0.0287 -0.6068
 7999TIP3    H145412   2.511   3.993   4.917  0.6147  2.0827 -0.7284
 7999TIP3    H245413   2.392   4.086   4.929 -1.9634 -1.0754 -0.3303
 8000TIP3   OH245414   0.888   5.550   6.291  0.4370 -0.2448 -0.0488
 8000TIP3    H145415   0.840   5.626   6.257  0.5736  0.3104  0.9349
 8000TIP3    H245416   0.941   5.586   6.362 -0.1151 -1.3922  0.9802
 8001TIP3   OH245417   5.316   3.506   5.685  0.0274 -0.8992 -0.9802
 8001TIP3    H145418   5.391   3.564   5.699 -0.5078  0.1417 -2.1870
 8001TIP3    H245419   5.321   3.443   5.757 -0.9074  2.2825  2.1763
 8002TIP3   OH245420   4.956   5.154  13.919 -0.5691  0.2300  0.1163
 8002TIP3    H145421   4.952   5.246  13.891 -1.2258  0.2114  0.1200
 8002TIP3    H245422   5.043   5.124  13.892  0.1580  1.2156  1.2951
 8003TIP3   OH245423   3.121   3.391  13.662 -0.3292  0.5717 -0.2289
 8003TIP3    H145424   3.056   3.324  13.686 -1.2992  1.6502  0.2409
 8003TIP3    H245425   3.159   3.418  13.746  0.1481  0.5315 -0.4310
 8004TIP3   OH245426   0.385   2.996   5.795  0.8217 -0.2864  1.0378
 8004TIP3    H145427   0.438   3.076   5.792  1.2159 -0.5450 -1.6013
 8004TIP3    H245428   0.433   2.938   5.854  2.7118  0.0573 -0.0704
 8005TIP3   OH245429   3.317   1.150   0.035 -0.0932  0.4619  0.2197
 8005TIP3    H145430   3.294   1.089   0.106  1.6792 -1.0654 -0.4365
 8005TIP3    H245431   3.252   1.220   0.042 -0.3783  0.0387  2.9328
 8006TIP3   OH245432   1.043   3.401  11.036 -0.1366  0.2272  0.1566
 8006TIP3    H145433   1.003   3.400  10.949 -1.9098  1.8803  0.8697
 8006TIP3    H245434   1.125   3.353  11.026 -0.8753 -0.6732 -2.1218
 8007TIP3   OH245435   3.006   5.074   4.181 -0.2654 -0.5959  0.0161
 8007TIP3    H145436   3.027   5.165   4.159  0.1960  0.0196  2.6587
 8007TIP3    H245437   3.089   5.037   4.212 -0.6840 -1.5954 -0.0213
 8008TIP3   OH245438   0.140   4.835  11.795  0.0121  0.1610  0.5436
 8008TIP3    H145439   0.152   4.850  11.888 -0.1626  1.3522  0.3808
 8008TIP3    H245440   0.176   4.913  11.753  0.4370 -0.5258 -0.4110
 8009TIP3   OH245441   2.118   1.776   1.652 -0.2058  0.3538 -0.0683
 8009TIP3    H145442   2.161   1.847   1.698 -0.4125  0.4167  0.0297
 8009TIP3    H245443   2.071   1.728   1.720  1.9042 -1.3656  0.2795
 8010TIP3   OH245444   3.569   2.353   1.720 -0.1265  0.4547  0.2444
 8010TIP3    H145445   3.635   2.284   1.726 -1.0281 -0.4370  0.1368
 8010TIP3    H245446   3.619   2.432   1.700  0.9368 -0.1412  0.4717
 8011TIP3   OH245447   4.184   1.775   3.954 -0.0873  0.4130  1.2354
 8011TIP3    H145448   4.201   1.686   3.986  0.4581  0.9883  2.6217
 8011TIP3    H245449   4.251   1.789   3.887 -1.8150 -1.1455 -0.9594
 8012TIP3   OH245450   2.841   1.934  15.148 -0.0950 -0.6763  0.0314
 8012TIP3    H145451   2.830   2.012  15.092  0.0584 -0.5585  0.1641
 8012TIP3    H245452   2.886   1.967  15.226 -2.3533 -0.3620  1.2850
 8013TIP3   OH245453   2.089   3.853  16.371 -0.0984  0.0357  0.1918
 8013TIP3    H145454   2.156   3.875  16.306  1.4375 -2.1646  0.9119
 8013TIP3    H245455   2.008   3.847  16.321  0.6308  0.6432 -1.1096
 8014TIP3   OH245456   6.594   3.889   6.096  0.1917  0.9141  0.0985
 8014TIP3    H145457   6.520   3.832   6.078  1.1969 -0.4280  0.0963
 8014TIP3    H245458   6.580   3.920   6.185  0.2801 -0.3871  0.5863
 8015TIP3   OH245459   6.594   3.413  11.562  0.0038  0.0156 -0.3610
 8015TIP3    H145460   6.634   3.406  11.649 -0.1389 -0.3824 -0.3254
 8015TIP3    H245461   6.653   3.471  11.513  1.9605 -2.4262 -1.0686
 8016TIP3   OH245462   0.606   3.120  13.691  0.4365  0.4703 -0.7902
 8016TIP3    H145463   0.510   3.119  13.690  0.4139 -1.1286 -0.2163
 8016TIP3    H245464   0.632   3.078  13.609  0.6006 -0.7203 -0.1479
 8017TIP3   OH245465   5.780   3.647  14.565 -0.3327  0.2146  0.1077
 8017TIP3    H145466   5.687   3.623  14.564 -0.3086 -0.1146  1.7649
 8017TIP3    H245467   5.825   3.565  14.587  0.7576 -0.5069 -3.9897
 8018TIP3   OH245468   0.694   0.251  12.794  0.2462  0.2372  0.8586
 8018TIP3    H145469   0.770   0.243  12.736 -0.8500  0.1494 -0.6193
 8018TIP3    H245470   0.697   0.172  12.847 -0.5536 -1.4401 -1.4154
 8019TIP3   OH245471   5.728   0.881  14.075  0.7777 -0.4572  0.3178
 8019TIP3    H145472   5.748   0.944  14.144  0.2839 -0.2462  0.2684
 8019TIP3    H245473   5.734   0.930  13.994 -3.6915  0.7297  0.4130
 8020TIP3   OH245474   6.053   4.894   5.204 -0.0989 -0.5363 -0.7220
 8020TIP3    H145475   6.133   4.940   5.227 -1.6610  2.9419 -1.5932
 8020TIP3    H245476   5.988   4.925   5.268 -1.3987 -1.0097 -1.7546
 8021TIP3   OH245477   0.541   1.630   3.516 -0.4606  0.2049  0.2669
 8021TIP3    H145478   0.544   1.618   3.421  0.4949  0.9413  0.1920
 8021TIP3    H245479   0.522   1.543   3.550  0.8904 -0.4289 -0.5191
 8022TIP3   OH245480   5.242   2.272  17.119  0.2170 -0.7011  0.6083
 8022TIP3    H145481   5.149   2.286  17.137  0.4108 -1.2955  2.1722
 8022TIP3    H245482   5.285   2.288  17.203  1.4866 -0.8704  0.0048
 8023TIP3   OH245483   4.397   4.060   5.348  0.3261 -0.5905 -0.1148
 8023TIP3    H145484   4.302   4.051   5.354  0.2075 -0.6653 -1.5777
 8023TIP3    H245485   4.416   4.041   5.256  1.6951 -0.0650  0.0428
 8024TIP3   OH245486   4.634   2.456  12.117 -0.0316 -0.2337  0.2620
 8024TIP3    H145487   4.700   2.492  12.059 -2.2924  2.5715 -0.7874
 8024TIP3    H245488   4.678   2.448  12.202  1.3595  2.9689 -0.0135
 8025TIP3   OH245489   5.491   3.911  16.103  0.0885  0.0999  0.3100
 8025TIP3    H145490   5.549   3.842  16.135  2.2987  0.8616 -1.8008
 8025TIP3    H245491   5.494   3.904  16.008  0.1219  2.8324  0.0198
 8026TIP3   OH245492   2.884   1.982  10.536 -0.1109 -0.4785  0.2504
 8026TIP3    H145493   2.850   2.072  10.534  1.1999  0.0657  1.1172
 8026TIP3    H245494   2.814   1.931  10.575 -0.5686  0.3183  0.5025
 8027TIP3   OH245495   5.473   4.519   2.335 -0.1692  0.2617 -0.3274
 8027TIP3    H145496   5.434   4.588   2.281  1.6405  2.3231  0.7887
 8027TIP3    H245497   5.426   4.524   2.418  0.0289  0.2284 -0.2124
 8028TIP3   OH245498   3.218   1.580  12.661  0.5759  0.0030 -0.0336
 8028TIP3    H145499   3.170   1.659  12.687 -0.9223 -0.9157  0.1470
 8028TIP3    H245500   3.204   1.519  12.734  0.5425 -0.8964 -0.7749
 8029TIP3   OH245501   3.824   4.979  13.180  0.0950 -0.3651 -0.0847
 8029TIP3    H145502   3.909   4.982  13.135 -0.3915 -1.4121 -1.1123
 8029TIP3    H245503   3.841   5.021  13.264  1.3747  0.4030 -0.6831
 8030TIP3   OH245504   6.513   4.890   5.565 -0.4394 -0.4470 -0.2122
 8030TIP3    H145505   6.422   4.874   5.541  0.2987 -1.5917 -2.5918
 8030TIP3    H245506   6.516   4.982   5.588 -2.1714 -0.3715 -0.1325
 8031TIP3   OH245507   4.758   0.812  14.417  0.0287 -0.3648  0.1005
 8031TIP3    H145508   4.744   0.826  14.324  0.2647 -0.0044  0.1163
 8031TIP3    H245509   4.730   0.722  14.432 -0.4095 -0.2894 -0.2346
 8032TIP3   OH245510   0.083   4.934  16.196 -0.3541 -0.5213  0.5751
 8032TIP3    H145511   0.071   4.919  16.102 -2.4119 -0.9282  0.8684
 8032TIP3    H245512   0.169   4.976  16.202 -1.1066  1.5740 -1.6921
 8033TIP3   OH245513   2.086   2.265   2.594  0.4775 -0.1419 -0.3651
 8033TIP3    H145514   2.159   2.326   2.588  0.8809 -0.6449 -0.7120
 8033TIP3    H245515   2.051   2.261   2.505  0.5387 -0.5115 -0.3745
 8034TIP3   OH245516   6.602   1.074  11.034  0.0518  0.2959  0.3208
 8034TIP3    H145517   6.579   1.150  11.087 -1.8616 -1.0822  1.5767
 8034TIP3    H245518   6.530   1.064  10.973  1.0231  0.3451 -0.8777
 8035TIP3   OH245519   2.153   5.459  13.673 -0.0658  0.2750  0.2286
 8035TIP3    H145520   2.061   5.476  13.691 -0.6566 -2.8183  0.6643
 8035TIP3    H245521   2.156   5.443  13.578 -0.0657 -0.0612  0.2849
 8036TIP3   OH245522   2.753   4.106   0.159  0.2737 -0.1391  0.5032
 8036TIP3    H145523   2.768   4.046   0.085 -2.6233  1.1309 -1.2800
 8036TIP3    H245524   2.694   4.058   0.217 -0.3949  0.1983  0.1121
 8037TIP3   OH245525   2.192   0.170  16.405 -0.0053  0.0025  0.2060
 8037TIP3    H145526   2.217   0.116  16.330  2.1054  1.1892 -0.0418
 8037TIP3    H245527   2.097   0.170  16.405 -0.0575 -1.8814 -1.0857
 8038TIP3   OH245528   2.843   5.805   2.029 -0.1697 -0.2977  0.0172
 8038TIP3    H145529   2.884   5.891   2.038 -0.3049 -0.3129  0.8453
 8038TIP3    H245530   2.905   5.755   1.976  0.5810 -0.1193  0.6998
 8039TIP3   OH245531   1.518   1.054   1.193 -0.1879  0.0503  0.1573
 8039TIP3    H145532   1.455   1.055   1.264  0.1251  0.5745  0.4380
 8039TIP3    H245533   1.563   1.139   1.199 -0.6051  0.3841 -1.0553
 8040TIP3   OH245534   2.825   4.199   2.952  0.5814  0.2094  0.5038
 8040TIP3    H145535   2.802   4.247   3.031 -2.6975  3.5212 -2.0822
 8040TIP3    H245536   2.757   4.132   2.944 -0.1751  1.0312 -0.2711
 8041TIP3   OH245537   2.070   5.439   3.380  0.0711  0.0840  0.2223
 8041TIP3    H145538   2.151   5.412   3.336  0.2961  1.3111 -0.1659
 8041TIP3    H245539   2.048   5.523   3.340 -1.1424 -0.0079  0.6651
 8042TIP3   OH245540   1.242   5.483  13.094  0.5070  0.4186 -0.4541
 8042TIP3    H145541   1.152   5.505  13.117  0.1833 -0.6369 -0.6776
 8042TIP3    H245542   1.295   5.540  13.150 -0.2749  1.7835 -1.0257
 8043TIP3   OH245543   4.898   4.888   2.200  0.4352  0.1274  0.4177
 8043TIP3    H145544   4.895   4.950   2.273 -0.2955 -0.3275  0.7857
 8043TIP3    H245545   4.829   4.919   2.140  0.3819 -0.0576  0.3831
 8044TIP3   OH245546   0.622   4.454  14.645  0.1800  0.2757  0.0266
 8044TIP3    H145547   0.533   4.421  14.658 -0.4963  2.2722  0.8038
 8044TIP3    H245548   0.671   4.424  14.722  0.6595 -2.1131 -1.1075
 8045TIP3   OH245549   2.268   4.243  16.519  0.2301 -0.1272  0.2814
 8045TIP3    H145550   2.217   4.164  16.499 -0.0269  0.6066 -2.2788
 8045TIP3    H245551   2.353   4.210  16.548 -0.3943 -1.3248  0.8455
 8046TIP3   OH245552   4.930   0.598   4.253 -0.2905 -0.0500 -0.0671
 8046TIP3    H145553   4.892   0.686   4.252 -0.2916 -0.0116  1.1112
 8046TIP3    H245554   5.002   0.601   4.190 -1.7953  0.0655 -1.8539
 8047TIP3   OH245555   2.689   5.238   4.104 -0.7225 -0.3214  0.3580
 8047TIP3    H145556   2.657   5.158   4.146  0.2860 -0.8976  0.0897
 8047TIP3    H245557   2.785   5.229   4.106 -0.6169 -0.2119 -1.6994
 8048TIP3   OH245558   6.132   6.667   6.510 -0.2670  0.1750 -0.2138
 8048TIP3    H145559   6.129   6.594   6.572 -2.0054 -1.5214 -2.1042
 8048TIP3    H245560   6.041   6.676   6.480 -0.1845  3.4123  0.1748
 8049TIP3   OH245561   1.658   4.755   5.727  0.6085  0.3473  0.0197
 8049TIP3    H145562   1.696   4.671   5.701 -0.9316 -0.6122  0.7294
 8049TIP3    H245563   1.706   4.781   5.806  3.1643  1.7185 -1.8354
 8050TIP3   OH245564   1.670   6.027   2.055  0.2791  0.2155  0.1698
 8050TIP3    H145565   1.757   6.057   2.080  0.4542 -0.8599  0.9424
 8050TIP3    H245566   1.647   5.963   2.122  0.0220 -1.5203 -1.4808
 8051TIP3   OH245567   5.050   6.520   6.701  0.4768  0.0137  0.1956
 8051TIP3    H145568   4.973   6.546   6.649  0.4287  0.4965  0.5022
 8051TIP3    H245569   5.013   6.483   6.781  0.5555  0.4638  0.4487
 8052TIP3   OH245570   3.198   4.418   3.391 -0.7994  0.0124 -0.9096
 8052TIP3    H145571   3.226   4.484   3.455 -0.8051 -0.7971 -0.0634
 8052TIP3    H245572   3.208   4.334   3.436  1.9199 -0.8731 -2.8570
 8053TIP3   OH245573   5.482   5.104  14.759 -0.1488 -0.2307 -0.1838
 8053TIP3    H145574   5.558   5.162  14.756  0.2229 -0.7217 -0.4686
 8053TIP3    H245575   5.408   5.162  14.777  0.5721 -0.0433  2.5192
 8054TIP3   OH245576   3.271   1.988  13.400  0.1256 -0.0720 -0.3165
 8054TIP3    H145577   3.268   1.912  13.341 -1.1933 -0.1033 -0.2428
 8054TIP3    H245578   3.231   2.059  13.349 -1.1828 -0.1434  0.5702
 8055TIP3   OH245579   5.670   1.203  10.531  0.7075  0.2844  0.7891
 8055TIP3    H145580   5.751   1.252  10.549  0.8476  0.0820  0.7134
 8055TIP3    H245581   5.602   1.254  10.575  0.5027  1.7785 -1.1448
 8056TIP3   OH245582   6.003   4.844  13.832  0.4739  1.1172 -0.2713
 8056TIP3    H145583   5.984   4.786  13.758 -1.2244  0.5409  0.5788
 8056TIP3    H245584   5.980   4.793  13.909  2.3826  1.6450  0.7062
 8057TIP3   OH245585   4.951   6.487   0.883  0.1374  0.6411 -0.1294
 8057TIP3    H145586   4.893   6.412   0.893 -1.9359  2.1072 -0.5363
 8057TIP3    H245587   4.996   6.472   0.799 -0.4619 -0.0139 -0.3384
 8058TIP3   OH245588   6.664   4.900  16.422  0.7156  0.3932 -1.0306
 8058TIP3    H145589   6.573   4.910  16.393 -0.3382 -3.4854  0.2353
 8058TIP3    H245590   6.714   4.956  16.363 -2.2738  1.0393 -3.2235
 8059TIP3   OH245591   2.211   2.030  12.360  0.2513 -0.2987 -0.3962
 8059TIP3    H145592   2.245   2.115  12.331  2.5714 -0.5277  1.2914
 8059TIP3    H245593   2.269   1.966  12.319  0.2438 -0.8801  0.4584
 8060TIP3   OH245594   2.864   5.992  17.012 -0.9293  0.1218 -0.0194
 8060TIP3    H145595   2.914   5.950  16.942 -2.7953 -2.9192  0.3132
 8060TIP3    H245596   2.924   6.058  17.048  1.2071 -0.3836 -2.3624
 8061TIP3   OH245597   5.962   6.329  17.305 -0.3717 -0.2412 -0.1297
 8061TIP3    H145598   6.042   6.348  17.256 -0.8039  0.2541 -0.6604
 8061TIP3    H245599   5.967   6.235  17.323  0.9941  0.0221  1.0581
 8062TIP3   OH245600   6.253   0.769  17.333 -0.6777  0.1626  1.2012
 8062TIP3    H145601   6.238   0.702  17.265  0.6944 -0.6692  1.6651
 8062TIP3    H245602   6.226   0.851  17.292  1.0085 -0.1703 -0.7651
 8063TIP3   OH245603   4.651   1.400  15.585 -0.3967  0.7568  1.0006
 8063TIP3    H145604   4.721   1.436  15.638  1.6844 -0.6616 -0.5916
 8063TIP3    H245605   4.593   1.474  15.567  1.5879  2.4041  1.0448
 8064TIP3   OH245606   5.313   1.595  14.432 -0.2376 -0.0967  0.2583
 8064TIP3    H145607   5.322   1.639  14.348  0.6582 -0.5617  0.0964
 8064TIP3    H245608   5.267   1.513  14.411  2.0897 -1.3543 -0.2114
 8065TIP3   OH245609   3.395   1.178  11.934 -0.7570 -0.3611  0.2174
 8065TIP3    H145610   3.398   1.085  11.913  1.1796  0.0173 -1.6489
 8065TIP3    H245611   3.340   1.216  11.866 -1.6529 -0.1494  1.0543
 8066TIP3   OH245612   2.273   5.477  17.199 -0.2196  1.0443 -0.1947
 8066TIP3    H145613   2.316   5.459  17.115 -0.9535 -3.7049  0.2135
 8066TIP3    H245614   2.344   5.476  17.263 -0.2293 -1.4026 -0.1506
 8067TIP3   OH245615   1.630   3.789  16.989  0.6122 -1.0569 -0.4435
 8067TIP3    H145616   1.614   3.768  16.897  1.9389 -2.2853 -0.4250
 8067TIP3    H245617   1.571   3.731  17.037 -0.2480 -0.2560 -0.4852
 8068TIP3   OH245618   4.408   4.327   4.535  0.1204  0.2021 -0.0850
 8068TIP3    H145619   4.341   4.339   4.602  0.6677  1.5263  0.2607
 8068TIP3    H245620   4.359   4.319   4.454 -0.4886  0.5390  0.2364
 8069TIP3   OH245621   6.758   4.602   4.546 -0.0395  0.0859 -0.0191
 8069TIP3    H145622   6.791   4.567   4.463  1.1219 -0.2109  0.5449
 8069TIP3    H245623   6.729   4.691   4.524  0.2779  0.0200 -0.7404
 8070TIP3   OH245624   3.858   0.789   0.478  0.5040 -0.2820  0.4700
 8070TIP3    H145625   3.897   0.714   0.524  1.1161  1.1374  2.4433
 8070TIP3    H245626   3.877   0.863   0.535 -1.3894  1.1549 -0.6661
 8071TIP3   OH245627   6.096   6.633  14.764  0.1640  0.0809  0.9972
 8071TIP3    H145628   6.166   6.592  14.712  0.0238  0.3373  0.5972
 8071TIP3    H245629   6.037   6.561  14.786 -0.9034  0.2819 -1.0112
 8072TIP3   OH245630   2.639   6.449   5.531 -0.5617  0.0044  0.0228
 8072TIP3    H145631   2.616   6.375   5.474  1.4787  0.5495 -1.6065
 8072TIP3    H245632   2.651   6.523   5.472  1.6717  0.5879  1.0876
 8073TIP3   OH245633   2.912   6.214   1.625  0.3146  0.0232  0.3709
 8073TIP3    H145634   3.004   6.238   1.623  0.1824  0.5536  0.4548
 8073TIP3    H245635   2.910   6.127   1.665  0.7053  0.3748  1.1744
 8074TIP3   OH245636   6.111   4.377  16.547  0.4530 -0.0117 -0.3767
 8074TIP3    H145637   6.075   4.399  16.461 -0.5620  0.4298  0.1369
 8074TIP3    H245638   6.154   4.293  16.535  1.6728  0.7572 -1.6687
 8075TIP3   OH245639   0.317   6.743   4.201  0.0653  0.5090 -0.1347
 8075TIP3    H145640   0.377   6.796   4.148  0.2018 -0.0715 -0.5731
 8075TIP3    H245641   0.235   6.741   4.150  0.8624 -1.9007 -1.4972
 8076TIP3   OH245642   1.606   5.447   1.205  0.4644 -0.2778 -0.4604
 8076TIP3    H145643   1.604   5.534   1.246  0.4636 -1.5139  2.4547
 8076TIP3    H245644   1.692   5.442   1.163  0.5493  1.0327 -0.4739
 8077TIP3   OH245645   4.452   5.023   3.741  0.3543 -0.2407 -0.2441
 8077TIP3    H145646   4.384   5.058   3.684 -0.2747 -0.8396  0.1153
 8077TIP3    H245647   4.414   4.943   3.777 -0.1471  1.1504  2.6367
 8078TIP3   OH245648   2.604   3.732   1.679  0.0927 -0.1755  0.1957
 8078TIP3    H145649   2.605   3.739   1.774 -0.5969  1.0953  0.1377
 8078TIP3    H245650   2.566   3.815   1.650 -0.2643 -0.7877 -1.1600
 8079TIP3   OH245651   3.383   1.661   0.340 -0.2134 -0.2644 -0.5694
 8079TIP3    H145652   3.449   1.607   0.297  1.1414  0.6825  0.2501
 8079TIP3    H245653   3.374   1.738   0.284 -0.4933 -0.3007 -0.5792
 8080TIP3   OH245654   1.306   6.477  12.073  0.3020  0.0317  0.4443
 8080TIP3    H145655   1.341   6.552  12.122  1.3324 -0.4374  0.4531
 8080TIP3    H245656   1.323   6.401  12.128  0.5162 -0.3764 -0.1689
 8081TIP3   OH245657   3.752   5.505  10.733  0.2717  0.5357  0.2228
 8081TIP3    H145658   3.721   5.589  10.766 -0.5764  0.6607 -0.8591
 8081TIP3    H245659   3.785   5.523  10.646  1.1063 -0.0683  0.3942
 8082TIP3   OH245660   5.047   1.891  15.988  0.2700 -0.0940 -0.3076
 8082TIP3    H145661   5.038   1.929  15.901 -0.1844  1.0213  0.2138
 8082TIP3    H245662   5.141   1.899  16.009  0.2186  0.5113 -0.3065
 8083TIP3   OH245663   6.626   6.542   0.019  0.2403 -0.4301 -0.0017
 8083TIP3    H145664   6.658   6.590  -0.057  1.9203  0.2168  1.0622
 8083TIP3    H245665   6.626   6.607   0.090 -1.6750 -0.9101  0.5041
 8084TIP3   OH245666   2.304   2.878  12.103  0.6943  0.3313 -0.0417
 8084TIP3    H145667   2.329   2.903  12.014 -1.5164 -0.7417 -1.0371
 8084TIP3    H245668   2.326   2.785  12.109  2.9332  0.8593  1.4056
 8085TIP3   OH245669   1.082   5.344  14.529 -0.5658  0.0646  0.4282
 8085TIP3    H145670   1.017   5.399  14.573  0.9409  2.3005  0.0480
 8085TIP3    H245671   1.065   5.358  14.435  1.6889  2.4514  0.2623
 8086TIP3   OH245672   0.663   4.836   2.783 -0.2288 -0.3630  0.0660
 8086TIP3    H145673   0.627   4.905   2.839 -1.1350 -0.7416 -0.0360
 8086TIP3    H245674   0.725   4.789   2.839 -1.0569 -0.6811  0.7417
 8087TIP3   OH245675   1.717   2.154  12.492  0.3369 -0.6731  0.4661
 8087TIP3    H145676   1.806   2.136  12.460  0.1566 -1.9637  0.6198
 8087TIP3    H245677   1.722   2.242  12.529  1.4811 -0.6142  0.2097
 8088TIP3   OH245678   6.268   4.153  16.517  0.0335  0.3685  0.6333
 8088TIP3    H145679   6.302   4.093  16.583  0.6300  1.4925  1.3834
 8088TIP3    H245680   6.346   4.182  16.469 -0.3803 -0.3845 -0.5554
 8089TIP3   OH245681   2.574   3.658  15.394  0.7535  0.6033 -0.0121
 8089TIP3    H145682   2.660   3.684  15.360  0.6080 -1.3847 -2.1245
 8089TIP3    H245683   2.580   3.563  15.405 -1.4757  0.2383 -1.3067
 8090TIP3   OH245684   0.144   2.332  13.384  0.5644 -0.3580 -0.1702
 8090TIP3    H145685   0.172   2.243  13.363  0.3986 -0.5312  0.3296
 8090TIP3    H245686   0.053   2.322  13.412  0.6968 -0.0940  0.3551
 8091TIP3   OH245687   6.589   5.342   1.199 -0.3436 -0.3125  0.2351
 8091TIP3    H145688   6.583   5.276   1.131 -0.5992 -0.9707  0.8824
 8091TIP3    H245689   6.663   5.397   1.173  0.4558 -1.3977  0.1588
 8092TIP3   OH245690   4.627   2.819  10.551  0.1734 -0.1432  0.3355
 8092TIP3    H145691   4.703   2.829  10.608  0.4932  0.0406 -0.1157
 8092TIP3    H245692   4.609   2.907  10.518  0.2180 -0.3015 -0.1268
 8093TIP3   OH245693   2.183   6.433  13.013 -0.0878 -0.2057  0.2001
 8093TIP3    H145694   2.173   6.442  13.107 -3.2253  1.6206 -0.1728
 8093TIP3    H245695   2.106   6.382  12.985  1.4605 -1.8831 -1.3021
 8094TIP3   OH245696   0.548   3.654  10.659 -0.1667 -0.5121  0.3100
 8094TIP3    H145697   0.628   3.684  10.701 -0.2517  2.1022 -1.1426
 8094TIP3    H245698   0.571   3.571  10.617  2.8664  1.6385 -2.8157
 8095TIP3   OH245699   1.051   2.729   3.895 -0.0139 -0.1318 -0.5241
 8095TIP3    H145700   0.964   2.720   3.933 -0.0544 -1.1085 -0.8184
 8095TIP3    H245701   1.042   2.694   3.806  0.7087 -0.3953 -0.4994
 8096TIP3   OH245702   5.224   5.834  16.389 -0.2370  0.1670 -0.1474
 8096TIP3    H145703   5.188   5.898  16.451  1.2043  0.0469  0.8784
 8096TIP3    H245704   5.152   5.774  16.372 -1.1193  1.0954  0.2135
 8097TIP3   OH245705   4.472   3.894   3.804 -0.0848 -0.4114  0.0995
 8097TIP3    H145706   4.463   3.904   3.899 -0.0626  1.2333 -0.0510
 8097TIP3    H245707   4.550   3.945   3.782 -0.9498  0.5046 -0.9818
 8098TIP3   OH245708   6.616   4.039  12.527  0.2176  1.1501  0.1740
 8098TIP3    H145709   6.573   4.115  12.565  0.1046 -0.1866  2.9795
 8098TIP3    H245710   6.546   3.992  12.481 -0.4043  1.2031  1.0411
 8099TIP3   OH245711   3.481   3.123  11.193  0.2441 -0.2921  0.4860
 8099TIP3    H145712   3.526   3.111  11.109  1.4583 -2.4220  1.3648
 8099TIP3    H245713   3.546   3.165  11.249 -0.4721  0.8748  0.4798
 8100TIP3   OH245714   2.338   3.993  14.069 -0.4731 -0.2026  0.7878
 8100TIP3    H145715   2.431   4.011  14.058 -0.0875 -2.6156 -0.4295
 8100TIP3    H245716   2.333   3.899  14.084 -2.8152 -0.4449 -0.9341
 8101TIP3   OH245717   4.842   5.049  12.263 -0.7273  0.3590 -0.2157
 8101TIP3    H145718   4.855   5.006  12.178  5.1354  0.5561  0.1495
 8101TIP3    H245719   4.809   4.980  12.320 -0.9659 -0.8807 -1.7768
 8102TIP3   OH245720   5.396   2.024   4.113 -0.5879 -0.4082  0.0142
 8102TIP3    H145721   5.362   1.943   4.076  1.4336 -1.0920 -0.5083
 8102TIP3    H245722   5.439   1.996   4.194  0.8886 -0.0319 -0.6108
 8103TIP3   OH245723   5.707   0.960  11.978  0.2154 -0.1713  0.1623
 8103TIP3    H145724   5.637   0.925  11.923  0.6094  0.3877 -0.7192
 8103TIP3    H245725   5.698   0.913  12.061 -1.9849  0.7702  0.5200
 8104TIP3   OH245726   5.718   1.140   6.531 -0.2284 -0.3575  0.1478
 8104TIP3    H145727   5.628   1.172   6.534  0.7210  2.5046  0.9983
 8104TIP3    H245728   5.765   1.206   6.480  1.2920 -2.2117 -0.9941
 8105TIP3   OH245729   6.219   0.159   5.707  0.3280  0.6058 -0.4420
 8105TIP3    H145730   6.238   0.122   5.793  1.4973  0.9041 -0.5580
 8105TIP3    H245731   6.283   0.119   5.649  1.7459  2.8476 -0.5420
 8106TIP3   OH245732   5.946   4.451   2.703  0.3672  0.4593  0.3421
 8106TIP3    H145733   5.922   4.359   2.712  0.5547  0.1109 -2.1520
 8106TIP3    H245734   6.042   4.451   2.712  0.3355  0.4898  0.7208
 8107TIP3   OH245735   0.184   6.176   3.286  0.1578  0.1615  0.1168
 8107TIP3    H145736   0.236   6.208   3.212  0.5110  0.0038  0.2944
 8107TIP3    H245737   0.214   6.086   3.299 -0.5662 -0.1232 -0.1452
 8108TIP3   OH245738   2.587   2.300   5.745  0.4077 -0.2140  0.0085
 8108TIP3    H145739   2.635   2.292   5.826 -0.7094 -0.3541  0.6812
 8108TIP3    H245740   2.620   2.229   5.690  0.2186 -0.9800  0.8551
 8109TIP3   OH245741   2.879   1.189  14.437  0.0356 -0.4882  0.4119
 8109TIP3    H145742   2.964   1.208  14.476  0.8884 -1.4890 -0.8795
 8109TIP3    H245743   2.852   1.106  14.477  1.7329 -2.4628 -2.2150
 8110TIP3   OH245744   0.370   6.532  17.233  0.6506 -0.3253  0.2891
 8110TIP3    H145745   0.456   6.543  17.274  0.2129 -0.8081  1.3682
 8110TIP3    H245746   0.310   6.520  17.306 -0.4907  0.8749 -0.4040
 8111TIP3   OH245747   4.837   6.231   2.967 -0.2344  0.3425 -0.2744
 8111TIP3    H145748   4.754   6.225   2.919  0.5447  0.3964 -1.6816
 8111TIP3    H245749   4.813   6.217   3.058 -1.5262 -1.6144 -0.8641
 8112TIP3   OH245750   3.909   5.591  12.887  0.1109  0.3614  0.1313
 8112TIP3    H145751   3.987   5.632  12.849  1.7993 -1.4747  1.3497
 8112TIP3    H245752   3.842   5.600  12.820  1.5404  1.4879 -1.2467
 8113TIP3   OH245753   4.571   3.706  11.385  0.0126  0.3671 -0.3052
 8113TIP3    H145754   4.632   3.633  11.395  0.9207  1.1845  0.3188
 8113TIP3    H245755   4.613   3.779  11.431 -1.4840  0.9271  0.2478
 8114TIP3   OH245756   3.557   2.801  15.647  0.0848 -0.3421 -0.2114
 8114TIP3    H145757   3.646   2.770  15.627  1.3169  2.4355  0.4059
 8114TIP3    H245758   3.527   2.744  15.718  1.4895 -1.1752 -0.2504
 8115TIP3   OH245759   4.387   1.421   0.351  0.4245  0.5480 -0.1209
 8115TIP3    H145760   4.384   1.377   0.436  1.7680  1.4099  0.4134
 8115TIP3    H245761   4.452   1.371   0.301  0.3057  0.5872 -0.3142
 8116TIP3   OH245762   0.266   6.318  12.888 -0.7491  0.5604  0.1254
 8116TIP3    H145763   0.273   6.283  12.976 -1.5169  1.9522  0.7656
 8116TIP3    H245764   0.173   6.341  12.878 -0.4335  1.6498 -0.5417
 8117TIP3   OH245765   3.922   3.450  14.024 -0.2406  0.3342  0.2506
 8117TIP3    H145766   3.921   3.543  13.999 -1.3209  1.0578  2.7214
 8117TIP3    H245767   4.012   3.434  14.052 -0.0864  0.6754 -0.0378
 8118TIP3   OH245768   5.802   3.100   1.774  0.4112  0.0389  0.7705
 8118TIP3    H145769   5.795   3.078   1.867  1.2848  0.9564  1.0752
 8118TIP3    H245770   5.775   3.192   1.769 -1.0018 -0.3911 -0.1201
 8119TIP3   OH245771   5.790   0.112   4.856  0.7345 -0.1239 -0.3424
 8119TIP3    H145772   5.785   0.074   4.768 -0.9408 -0.7045 -0.0311
 8119TIP3    H245773   5.743   0.195   4.849  2.8344  1.1243 -0.5782
 8120TIP3   OH245774   6.597   3.334   1.950  0.1110 -0.0478 -0.1632
 8120TIP3    H145775   6.586   3.252   1.998 -0.4875 -0.0021 -0.2208
 8120TIP3    H245776   6.629   3.307   1.864 -0.3636 -0.2447 -0.2810
 8121TIP3   OH245777   6.180   0.563  13.164 -0.1227 -0.2177  0.4550
 8121TIP3    H145778   6.253   0.504  13.184  0.5264 -0.2389 -1.7093
 8121TIP3    H245779   6.139   0.525  13.087 -2.3589 -0.0846  1.5059
 8122TIP3   OH245780   2.201   3.648   1.318 -0.6594 -0.2088 -1.0973
 8122TIP3    H145781   2.216   3.639   1.224  1.0540  1.1402 -0.9886
 8122TIP3    H245782   2.116   3.692   1.325  0.0897  1.4835 -2.1068
 8123TIP3   OH245783   6.299   0.581  12.393  0.6050 -0.6467 -0.1564
 8123TIP3    H145784   6.358   0.607  12.464 -0.7121  2.0089  0.1183
 8123TIP3    H245785   6.217   0.628  12.412  0.2383  0.3332 -3.4658
 8124TIP3   OH245786   5.784   2.331  15.827  0.5901 -0.1729 -0.4671
 8124TIP3    H145787   5.863   2.297  15.784 -0.9669 -0.1453 -3.6112
 8124TIP3    H245788   5.789   2.426  15.813 -0.2016 -0.2175 -1.0926
 8125TIP3   OH245789   3.506   1.782   5.687 -0.0993  0.7477 -0.1541
 8125TIP3    H145790   3.466   1.834   5.756  0.2291  1.4544 -0.4833
 8125TIP3    H245791   3.435   1.767   5.624  0.0063  1.5541 -0.4817
 8126TIP3   OH245792   0.957   5.647  16.005 -0.2654  1.0469  0.4695
 8126TIP3    H145793   0.886   5.603  15.958  1.9500 -1.5582 -0.7224
 8126TIP3    H245794   0.969   5.730  15.958 -1.7325  1.0177 -0.0075
 8127TIP3   OH245795   3.618   2.089  14.174 -0.3509  0.3384 -0.0071
 8127TIP3    H145796   3.533   2.085  14.218 -0.3374 -0.0581 -0.0125
 8127TIP3    H245797   3.642   1.997  14.160  0.2970  0.4415  0.4054
 8128TIP3   OH245798   3.558   0.128   3.137  0.1575  0.6972 -0.1712
 8128TIP3    H145799   3.474   0.099   3.172  0.1915  0.8841  0.0647
 8128TIP3    H245800   3.585   0.200   3.194  0.2638  0.9328 -0.5122
 8129TIP3   OH245801   2.283   3.512  14.941  0.3970  0.5110 -0.0309
 8129TIP3    H145802   2.271   3.532  14.848 -0.0950 -1.4756 -0.4364
 8129TIP3    H245803   2.246   3.588  14.987  1.8518  2.1502 -1.4162
 8130TIP3   OH245804   4.002   1.584  10.824  0.2162 -0.5953  0.1817
 8130TIP3    H145805   3.920   1.634  10.829  0.3943 -0.0987 -1.2833
 8130TIP3    H245806   3.996   1.521  10.896 -0.4259  0.9280  1.5264
 8131TIP3   OH245807   4.746   2.729  16.670  0.6050  0.5181  0.5482
 8131TIP3    H145808   4.655   2.699  16.679 -0.0287  1.8853 -0.8313
 8131TIP3    H245809   4.791   2.691  16.746 -0.8109 -1.2259  0.5998
 8132TIP3   OH245810   5.352   1.116  17.275 -0.5923 -0.0881  0.4708
 8132TIP3    H145811   5.421   1.120  17.341 -0.5317 -0.8051  0.4615
 8132TIP3    H245812   5.382   1.175  17.206  0.6208 -1.2982 -0.0815
 8133TIP3   OH245813   5.824   2.567  14.307  0.1690  0.4759 -0.1379
 8133TIP3    H145814   5.771   2.600  14.235  0.8863 -1.0927 -1.4520
 8133TIP3    H245815   5.782   2.485  14.332  0.6148  0.4120  0.4231
 8134TIP3   OH245816   6.361   0.754  13.099  0.0191 -0.3423 -0.6505
 8134TIP3    H145817   6.415   0.713  13.167 -0.4675  1.4194  0.8703
 8134TIP3    H245818   6.277   0.708  13.105  0.2172 -0.7080 -0.5940
 8135TIP3   OH245819   4.839   1.776   4.472 -0.3440  0.4841  0.7161
 8135TIP3    H145820   4.758   1.777   4.421 -0.2720 -0.7251  0.5511
 8135TIP3    H245821   4.811   1.759   4.562 -0.3638  1.2825  0.8659
 8136TIP3   OH245822   5.029   0.996  12.879 -0.0049  0.0919 -0.7369
 8136TIP3    H145823   4.986   1.081  12.895 -0.3935  0.0970 -1.7640
 8136TIP3    H245824   5.025   0.952  12.964  0.5119  1.2288 -0.0849
 8137TIP3   OH245825   6.551   4.087  15.912  0.2456 -0.5145 -0.1529
 8137TIP3    H145826   6.566   4.028  15.838 -0.6980  0.9687 -1.5850
 8137TIP3    H245827   6.462   4.067  15.941 -0.7014  1.2356 -1.6889
 8138TIP3   OH245828   6.599   1.679  13.075  0.3735 -0.8115 -0.8303
 8138TIP3    H145829   6.662   1.629  13.025 -0.9235 -2.4651 -0.8998
 8138TIP3    H245830   6.515   1.636  13.058 -0.7591  1.1719 -0.5844
 8139TIP3   OH245831   3.239   6.335  14.044 -0.2306  0.1024  0.1468
 8139TIP3    H145832   3.200   6.302  13.963  0.3676 -1.8745  0.6291
 8139TIP3    H245833   3.167   6.334  14.107 -0.0262 -1.1701  0.3842
 8140TIP3   OH245834   1.152   6.746  10.889 -0.0410 -0.2721  0.2296
 8140TIP3    H145835   1.094   6.786  10.824  0.9585  0.8980  0.0055
 8140TIP3    H245836   1.218   6.700  10.837  1.5700  1.8065  0.2789
 8141TIP3   OH245837   4.913   2.532   2.091  0.4898 -0.7652 -0.0793
 8141TIP3    H145838   4.902   2.516   1.997  0.0630  0.8339 -0.3349
 8141TIP3    H245839   4.998   2.575   2.099 -0.0800  0.3965  0.0554
 8142TIP3   OH245840   0.537   4.875  15.709 -0.0859  0.3960 -0.0515
 8142TIP3    H145841   0.510   4.966  15.711 -1.7321 -0.0587  0.0414
 8142TIP3    H245842   0.489   4.837  15.635 -1.0082 -0.8146  1.1165
 8143TIP3   OH245843   1.872   5.370  16.345  0.1043 -0.3831  0.1105
 8143TIP3    H145844   1.896   5.294  16.293  0.0824  0.5376 -1.3217
 8143TIP3    H245845   1.793   5.345  16.391  0.0326 -1.1886 -0.4411
 8144TIP3   OH245846   2.599   2.482  10.865  0.2753 -0.8670 -0.0365
 8144TIP3    H145847   2.558   2.518  10.786 -0.3987 -0.6144  0.4254
 8144TIP3    H245848   2.603   2.388  10.848 -0.9341 -0.9608  0.1001
 8145TIP3   OH245849   2.450   0.155  15.350  0.0563 -0.4530  0.3765
 8145TIP3    H145850   2.492   0.240  15.367  1.0957 -1.1078  1.1792
 8145TIP3    H245851   2.412   0.131  15.434  0.9240 -1.3928  0.5163
 8146TIP3   OH245852   6.638   3.831  14.334 -0.5082  0.0595 -0.1585
 8146TIP3    H145853   6.664   3.870  14.250 -0.4472 -0.2501 -0.2851
 8146TIP3    H245854   6.554   3.872  14.354 -0.5084  0.1602 -0.3537
 8147TIP3   OH245855   0.997   1.889  11.896 -0.0400 -0.1266  0.3925
 8147TIP3    H145856   1.089   1.864  11.905  0.1754  0.0717 -1.0568
 8147TIP3    H245857   0.976   1.874  11.804 -1.0392  1.2112  0.3589
 8148TIP3   OH245858   5.626   3.904   2.450  0.3415 -0.1257 -0.1413
 8148TIP3    H145859   5.570   3.980   2.434 -0.5819 -0.6505  0.5018
 8148TIP3    H245860   5.698   3.938   2.502  0.5212  0.5248 -0.8063
 8149TIP3   OH245861   3.880   1.749  16.706  0.5978 -0.1741 -0.5737
 8149TIP3    H145862   3.826   1.741  16.785  1.7652  0.2794  0.3037
 8149TIP3    H245863   3.868   1.667  16.660 -1.7703  0.3576 -1.0374
 8150TIP3   OH245864   2.097   2.089  14.516 -0.1116 -0.5097 -0.7631
 8150TIP3    H145865   2.116   2.057  14.604  0.5620  0.6235 -0.4851
 8150TIP3    H245866   2.011   2.053  14.496 -0.7688  0.1013  0.8030
 8151TIP3   OH245867   5.950   3.753  16.334  0.1405 -0.0302 -0.1196
 8151TIP3    H145868   5.926   3.702  16.412  0.8160 -0.5619 -0.2529
 8151TIP3    H245869   6.035   3.792  16.356 -0.4194  1.1441  0.0225
 8152TIP3   OH245870   2.931   1.420  16.710 -0.1118 -0.1236  0.2688
 8152TIP3    H145871   2.919   1.392  16.619  1.0185  1.3984 -0.3897
 8152TIP3    H245872   3.009   1.372  16.739 -1.6082 -2.1641  1.1633
 8153TIP3   OH245873   0.940   4.151  12.449  0.4504  0.8196 -0.0206
 8153TIP3    H145874   1.026   4.192  12.442 -0.5197  3.3044  1.3740
 8153TIP3    H245875   0.888   4.192  12.381  0.2734 -0.5992 -0.7904
 8154TIP3   OH245876   5.245   4.481   5.171  0.5029 -0.0205 -0.2293
 8154TIP3    H145877   5.240   4.414   5.239  1.7033  0.7361  0.6539
 8154TIP3    H245878   5.247   4.564   5.219 -0.0737  0.6100 -1.2591
 8155TIP3   OH245879   5.358   0.687   6.614 -0.4904 -0.4331  0.3065
 8155TIP3    H145880   5.332   0.777   6.591  2.4854  0.3333 -0.5038
 8155TIP3    H245881   5.409   0.697   6.694 -1.3812 -1.6564  1.0624
 8156TIP3   OH245882   5.793   1.744  12.103  0.0651  0.1726 -0.4557
 8156TIP3    H145883   5.790   1.688  12.025  1.3946 -0.0314 -0.3829
 8156TIP3    H245884   5.785   1.684  12.177 -0.4559  0.2900 -0.4130
 8157TIP3   OH245885   6.478   4.288   1.856  0.1415  0.2518  0.1552
 8157TIP3    H145886   6.421   4.308   1.782  0.1346 -2.6308 -0.7267
 8157TIP3    H245887   6.436   4.332   1.931 -1.0160  1.4554 -1.1354
 8158TIP3   OH245888   1.465   0.885  12.240  0.2354  0.5927  0.4063
 8158TIP3    H145889   1.445   0.827  12.167 -0.7936 -2.4042  2.8606
 8158TIP3    H245890   1.557   0.869  12.261  0.9201  2.4188 -0.8974
 8159TIP3   OH245891   3.898   6.108   0.099  0.1480  0.1163 -0.0550
 8159TIP3    H145892   3.906   6.106   0.004 -1.5458  0.0489 -0.2219
 8159TIP3    H245893   3.820   6.057   0.118  2.1537 -2.6034  1.6520
 8160TIP3   OH245894   6.136   4.016   0.568 -0.0103  0.1021  0.8765
 8160TIP3    H145895   6.076   4.006   0.494 -1.1856  1.5614  1.5678
 8160TIP3    H245896   6.183   3.933   0.573 -1.9417 -1.0834  0.2732
 8161TIP3   OH245897   1.918   5.329   1.379 -0.0377 -0.0312 -0.0797
 8161TIP3    H145898   1.872   5.352   1.460 -0.9109  0.0984 -0.5961
 8161TIP3    H245899   2.003   5.371   1.387  1.1676 -2.6353  2.1917
 8162TIP3   OH245900   3.440   5.901   1.605  0.2904  0.3302 -0.4701
 8162TIP3    H145901   3.353   5.863   1.618  0.0217  1.5273  1.7626
 8162TIP3    H245902   3.424   5.994   1.588  1.0695  1.0585  2.1385
 8163TIP3   OH245903   0.220   1.941  14.339 -0.9701 -0.4843 -0.0449
 8163TIP3    H145904   0.196   1.864  14.390 -1.5056  0.1869  0.7272
 8163TIP3    H245905   0.139   1.968  14.297 -0.4382 -1.3526 -1.7540
 8164TIP3   OH245906   1.606   6.508  12.608 -0.1932 -0.1728  0.0616
 8164TIP3    H145907   1.674   6.459  12.562  0.3749 -0.6837  1.3796
 8164TIP3    H245908   1.536   6.445  12.623  0.1212 -0.3342  0.8979
 8165TIP3   OH245909   2.312   5.239   4.765  0.2456 -0.2318 -0.0404
 8165TIP3    H145910   2.308   5.312   4.827  1.5082  2.8871 -3.2806
 8165TIP3    H245911   2.252   5.174   4.801 -1.4710  2.6199  2.8021
 8166TIP3   OH245912   0.358   6.232   3.089  0.2236 -0.4596  0.4513
 8166TIP3    H145913   0.414   6.304   3.062  1.9955 -1.9212  0.0153
 8166TIP3    H245914   0.324   6.196   3.007  0.7554 -1.1754  0.5356
 8167TIP3   OH245915   0.059   2.461  16.150 -0.3967 -0.7999 -0.3776
 8167TIP3    H145916   0.076   2.443  16.057 -1.0356  2.2671 -1.2208
 8167TIP3    H245917   0.005   2.540  16.149 -2.8046 -2.1942  2.5711
 8168TIP3   OH245918   5.751   0.325   5.681  0.1754  0.1683  0.3468
 8168TIP3    H145919   5.725   0.254   5.622 -1.0696  1.2277 -0.4242
 8168TIP3    H245920   5.847   0.324   5.679  0.1733  0.1224 -1.6705
 8169TIP3   OH245921   3.848   0.046  14.206  0.1710  0.6140 -0.5396
 8169TIP3    H145922   3.853   0.141  14.199  1.1597  0.5935 -0.3192
 8169TIP3    H245923   3.803   0.031  14.290  1.2575  0.9090  0.1185
 8170TIP3   OH245924   0.260   3.304   4.938  0.0610 -0.1713 -0.9107
 8170TIP3    H145925   0.284   3.300   5.030 -0.0182 -0.3599 -0.8975
 8170TIP3    H245926   0.252   3.213   4.911 -1.0829 -0.1239 -0.7986
 8171TIP3   OH245927   2.065   2.542  11.475 -0.0477 -0.2352  0.6061
 8171TIP3    H145928   2.102   2.463  11.437  2.2247  0.9308  0.2292
 8171TIP3    H245929   1.986   2.559  11.422 -0.1523 -1.8094  0.2260
 8172TIP3   OH245930   4.255   2.628  14.375  0.0397 -0.6771 -1.0046
 8172TIP3    H145931   4.339   2.600  14.337 -0.4336 -0.4644 -2.2810
 8172TIP3    H245932   4.228   2.555  14.431  0.6047 -1.1721 -1.3645
 8173TIP3   OH245933   3.676   3.014   2.009  0.4965  0.2883 -0.4199
 8173TIP3    H145934   3.676   3.078   1.938  2.5253  0.7265 -0.0864
 8173TIP3    H245935   3.610   2.950   1.984  2.2028 -0.4448 -3.5601
 8174TIP3   OH245936   1.786   1.145   1.753 -0.4759 -0.2597 -0.7224
 8174TIP3    H145937   1.805   1.223   1.701  0.0814 -0.9206 -1.5351
 8174TIP3    H245938   1.691   1.148   1.767 -0.4720  0.5102 -0.8230
 8175TIP3   OH245939   3.669   6.700  16.762  0.1741 -0.5249 -0.6827
 8175TIP3    H145940   3.618   6.622  16.784  1.2474 -1.0950 -0.1073
 8175TIP3    H245941   3.677   6.747  16.845 -0.6515  0.3224 -1.0731
 8176TIP3   OH245942   1.877   6.364  11.973 -0.1762  0.7708  0.0558
 8176TIP3    H145943   1.809   6.359  12.040  1.0706 -0.7750  1.2806
 8176TIP3    H245944   1.868   6.452  11.937 -2.9668  0.5416 -0.0343
 8177TIP3   OH245945   6.752   2.819   4.380  0.1193  0.4300 -0.4235
 8177TIP3    H145946   6.731   2.882   4.449  2.0671 -0.2147  0.8359
 8177TIP3    H245947   6.815   2.865   4.325  0.2796  0.1605 -0.4644
 8178TIP3   OH245948   4.034   4.473  14.165 -0.0485  0.2343  0.0214
 8178TIP3    H145949   3.995   4.501  14.249 -0.3278 -0.6432  0.2042
 8178TIP3    H245950   4.069   4.386  14.184 -1.2292 -0.5250 -1.0798
 8179TIP3   OH245951   0.574   4.991   6.022  0.3428 -0.1229  0.0671
 8179TIP3    H145952   0.573   4.897   6.042  0.5280 -0.1704 -0.1429
 8179TIP3    H245953   0.527   5.031   6.094 -1.1965 -0.5368 -0.6593
 8180TIP3   OH245954   2.700   1.163  14.924  0.1828 -0.1986 -0.1808
 8180TIP3    H145955   2.618   1.190  14.966  0.6573  1.0841 -0.0234
 8180TIP3    H245956   2.676   1.147  14.833 -0.3816 -0.5681  0.0265
 8181TIP3   OH245957   1.305   2.352   0.242 -0.3032 -0.1213 -0.3922
 8181TIP3    H145958   1.258   2.284   0.291 -0.5737 -0.7342 -1.4792
 8181TIP3    H245959   1.276   2.434   0.281 -1.2606 -0.5558 -0.1698
 8182TIP3   OH245960   0.957   1.039  11.868  0.3807  0.3075 -0.2101
 8182TIP3    H145961   0.962   1.004  11.779  0.6141 -0.8199  0.2269
 8182TIP3    H245962   1.046   1.068  11.888  0.1574  1.3247 -0.6246
 8183TIP3   OH245963   3.351   1.964  14.190  0.6683  0.3330 -0.4737
 8183TIP3    H145964   3.319   1.875  14.176 -0.7167  0.8412 -0.6296
 8183TIP3    H245965   3.329   2.011  14.110  1.8057  0.7261 -0.5822
 8184TIP3   OH245966   1.723   4.456   5.681  0.2400  0.0455 -0.0926
 8184TIP3    H145967   1.683   4.502   5.607  1.6843 -1.1388 -1.7007
 8184TIP3    H245968   1.798   4.411   5.643  3.2359  2.1687  2.7181
 8185TIP3   OH245969   1.704   0.264  11.112 -0.7048 -0.3607 -0.0008
 8185TIP3    H145970   1.700   0.217  11.029 -0.5562 -0.5406  0.0967
 8185TIP3    H245971   1.786   0.238  11.152  0.1555  1.1752 -0.6647
 8186TIP3   OH245972   4.654   1.686   5.741  0.0400  0.3911  0.0399
 8186TIP3    H145973   4.743   1.692   5.777  0.4780 -0.7565 -0.7820
 8186TIP3    H245974   4.666   1.701   5.647 -0.3063 -1.7285 -0.3983
 8187TIP3   OH245975   4.950   4.559   1.605 -0.0605 -0.0417  0.3792
 8187TIP3    H145976   4.896   4.524   1.534 -1.0801  2.1935 -0.0109
 8187TIP3    H245977   5.020   4.606   1.561  0.9267 -0.9879  0.8945
 8188TIP3   OH245978   5.975   6.084  15.970  0.1185  0.0790  0.4841
 8188TIP3    H145979   5.952   6.139  15.895 -1.2713 -1.2878 -0.1474
 8188TIP3    H245980   6.049   6.032  15.939 -0.4340 -0.4635  0.0431
 8189TIP3   OH245981   0.280   6.260  11.453 -0.2601 -0.0825 -0.1164
 8189TIP3    H145982   0.371   6.250  11.425  0.3369 -1.4698  2.0722
 8189TIP3    H245983   0.268   6.355  11.459  0.1390  0.2363 -2.9598
 8190TIP3   OH245984   1.182   3.690   5.593 -0.7597 -0.1383  0.0155
 8190TIP3    H145985   1.186   3.779   5.558  0.3029 -0.3387 -0.3920
 8190TIP3    H245986   1.180   3.702   5.688 -0.0667  0.3036 -0.0228
 8191TIP3   OH245987   3.984   1.046   0.273 -0.3574 -0.1077  0.7554
 8191TIP3    H145988   4.019   0.968   0.229 -2.3351 -0.6856  0.0450
 8191TIP3    H245989   4.005   1.034   0.365 -0.3900 -1.3850  0.6133
 8192TIP3   OH245990   4.253   5.500   2.630 -0.4599 -0.1670  0.2638
 8192TIP3    H145991   4.238   5.510   2.536  2.6068 -0.3260 -0.3453
 8192TIP3    H245992   4.241   5.406   2.646  0.0787 -0.3269 -0.2209
 8193TIP3   OH245993   4.498   2.738   4.240 -0.2896 -0.0992  0.3400
 8193TIP3    H145994   4.452   2.668   4.193  0.5759 -1.0361  0.8422
 8193TIP3    H245995   4.563   2.692   4.293  1.3961  1.1787 -0.5295
 8194TIP3   OH245996   3.525   3.331   1.993  0.1418 -0.6574 -0.2673
 8194TIP3    H145997   3.442   3.296   1.959  1.7402 -2.8222 -2.3322
 8194TIP3    H245998   3.540   3.409   1.940 -0.5299 -0.2902  0.0684
 8195TIP3   OH245999   2.457   5.823   3.248 -0.2637 -0.2887 -0.7835
 8195TIP3    H146000   2.510   5.789   3.176  0.1327 -0.2886 -0.4916
 8195TIP3    H246001   2.411   5.898   3.209 -0.9889 -1.0164 -1.3716
 8196TIP3   OH246002   3.883   4.266   1.218 -0.0826 -0.0088  0.1520
 8196TIP3    H146003   3.803   4.229   1.257  0.4963 -0.2233  1.1738
 8196TIP3    H246004   3.865   4.267   1.124 -2.1080  1.8696  0.4679
 8197TIP3   OH246005   4.556   2.133  11.922  0.1694  0.1378  0.1345
 8197TIP3    H146006   4.489   2.080  11.879  0.3058  1.2874 -1.6125
 8197TIP3    H246007   4.585   2.194  11.854  1.7986  0.7761  1.3414
 8198TIP3   OH246008   4.034   0.759   5.280  0.4112  0.3225  0.6890
 8198TIP3    H146009   4.101   0.705   5.321  0.4578  1.4670  2.2125
 8198TIP3    H246010   4.071   0.847   5.277  0.3965  0.3379 -1.8744
 8199TIP3   OH246011   0.864   3.844   6.203  0.4308  0.0422  0.3441
 8199TIP3    H146012   0.895   3.766   6.250  0.5731 -0.5672 -0.7374
 8199TIP3    H246013   0.879   3.823   6.111  0.7027  1.4516  0.0543
 8200TIP3   OH246014   2.380   5.632  12.719 -0.1264 -0.2551  0.3436
 8200TIP3    H146015   2.466   5.676  12.718 -0.2540 -0.0090 -0.1899
 8200TIP3    H246016   2.398   5.545  12.684  0.0848 -0.5582  1.1840
 8201TIP3   OH246017   1.226   4.973   1.138 -0.3786  0.5312  0.1337
 8201TIP3    H146018   1.237   5.059   1.179 -1.0182  0.3758  0.6457
 8201TIP3    H246019   1.176   4.923   1.202 -2.5049  0.6482 -1.3483
 8202TIP3   OH246020   0.806   4.426   2.866 -0.0333 -0.2347  0.0837
 8202TIP3    H146021   0.812   4.467   2.780  0.4755  0.2300  0.3383
 8202TIP3    H246022   0.806   4.500   2.927 -0.4027 -0.5619  0.4837
 8203TIP3   OH246023   2.263   2.015  11.486 -0.1188  0.8829  0.5075
 8203TIP3    H146024   2.289   2.068  11.562  1.3461 -2.3741  2.4824
 8203TIP3    H246025   2.344   1.996  11.441 -0.7788  1.2817 -0.8965
 8204TIP3   OH246026   0.184   1.842  17.324  0.9260 -0.3214 -0.1534
 8204TIP3    H146027   0.149   1.882  17.404  1.2780 -0.2542 -0.0346
 8204TIP3    H246028   0.198   1.750  17.347 -1.2053 -0.8763 -0.8368
 8205TIP3   OH246029   6.408   1.469   6.450 -0.5887  0.4459  0.0952
 8205TIP3    H146030   6.358   1.486   6.529 -1.2584 -0.7387 -0.0368
 8205TIP3    H246031   6.416   1.554   6.407 -1.4912  0.8556  0.7113
 8206TIP3   OH246032   2.809   6.627   0.382  0.5093  0.1258  0.2281
 8206TIP3    H146033   2.789   6.620   0.289 -1.9387  4.8779  0.0931
 8206TIP3    H246034   2.751   6.563   0.424 -0.0543 -0.4451 -1.3639
 8207TIP3   OH246035   5.707   3.927  13.750  0.0741  0.5090 -0.3678
 8207TIP3    H146036   5.646   3.867  13.708  2.0261 -0.5036 -1.9606
 8207TIP3    H246037   5.668   3.946  13.835 -1.7739 -1.1326 -0.7824
 8208TIP3   OH246038   5.253   5.358   6.125 -0.1149 -0.4562  0.3365
 8208TIP3    H146039   5.348   5.353   6.122 -0.1868 -1.8152 -1.1825
 8208TIP3    H246040   5.231   5.344   6.217  1.1382 -0.2318  0.6887
 8209TIP3   OH246041   4.836   5.146   2.606 -0.0441  0.0297 -0.3504
 8209TIP3    H146042   4.836   5.052   2.624 -1.4077  0.3553  1.7232
 8209TIP3    H246043   4.850   5.187   2.692 -1.4856  1.7420 -0.8760
 8210TIP3   OH246044   3.591   0.669  10.898  0.6862  0.9259 -0.1758
 8210TIP3    H146045   3.563   0.630  10.815  0.4652 -0.7224  0.6471
 8210TIP3    H246046   3.579   0.763  10.885 -0.9266  0.5926 -1.4447
 8211TIP3   OH246047   0.935   5.518  10.816  0.1514 -0.1880 -0.2101
 8211TIP3    H146048   0.882   5.465  10.876  1.0934 -1.5551 -0.5405
 8211TIP3    H246049   0.872   5.553  10.753 -0.4395 -1.3494 -0.2887
 8212TIP3   OH246050   0.548   5.640   3.571 -0.2687  0.3464  0.3065
 8212TIP3    H146051   0.581   5.722   3.608 -1.1187  1.2493 -0.8688
 8212TIP3    H246052   0.616   5.612   3.510 -1.2390  1.7939 -1.5285
 8213TIP3   OH246053   4.688   3.235  14.914  0.1510 -0.3786 -0.1527
 8213TIP3    H146054   4.723   3.161  14.865  2.1761  1.0864 -1.0416
 8213TIP3    H246055   4.738   3.310  14.883 -1.4659  1.2943  1.1096
 8214TIP3   OH246056   1.324   6.013   0.893  0.3790 -0.0203  0.0957
 8214TIP3    H146057   1.233   5.994   0.869  0.1054  1.6882 -0.3600
 8214TIP3    H246058   1.364   5.927   0.903 -1.5552 -0.8589  1.4274
 8215TIP3   OH246059   5.955   1.494   1.060  0.2459 -0.2610  0.3308
 8215TIP3    H146060   6.023   1.435   1.029 -0.2754 -0.7899  0.1709
 8215TIP3    H246061   5.891   1.496   0.988  1.0763  1.8530 -0.4181
 8216TIP3   OH246062   1.919   6.525  10.640 -0.2639 -0.1563  0.2569
 8216TIP3    H146063   2.013   6.538  10.633 -0.2468 -1.0063 -1.8349
 8216TIP3    H246064   1.887   6.604  10.685  1.0944  1.7182 -1.8497
 8217TIP3   OH246065   4.440   3.809  17.332 -0.0120  0.0310  0.9517
 8217TIP3    H146066   4.460   3.735  17.275 -3.6388 -1.2648  1.1283
 8217TIP3    H246067   4.516   3.816  17.390  0.9490 -2.8419  0.1986
 8218TIP3   OH246068   6.018   3.261  13.360  0.0426 -0.8390 -0.3893
 8218TIP3    H146069   6.027   3.175  13.401 -3.4809 -1.0504  0.2342
 8218TIP3    H246070   6.014   3.243  13.267  0.0675 -1.2407 -0.3155
 8219TIP3   OH246071   1.951   6.064   5.212 -0.1204 -0.4577 -0.0299
 8219TIP3    H146072   1.981   6.155   5.208 -1.2019 -0.1470 -2.2459
 8219TIP3    H246073   2.022   6.018   5.256 -0.1732  1.6547  2.5457
 8220TIP3   OH246074   6.583   4.997   4.806 -0.2757 -0.0081  0.2923
 8220TIP3    H146075   6.500   5.030   4.842 -0.8217  0.6539 -1.4598
 8220TIP3    H246076   6.617   5.070   4.755  0.6619 -0.7662 -0.1919
 8221TIP3   OH246077   3.451   6.258  12.613  0.4813 -0.0478 -0.0654
 8221TIP3    H146078   3.394   6.330  12.640 -1.9922 -2.3170  1.2797
 8221TIP3    H246079   3.524   6.261  12.676 -1.3587 -0.6932  2.2416
 8222TIP3   OH246080   4.745   0.168  14.264  0.3860  0.2817  0.3079
 8222TIP3    H146081   4.703   0.084  14.283 -1.3234  1.2818  1.1968
 8222TIP3    H246082   4.775   0.160  14.173  0.9745 -1.5417  0.6202
 8223TIP3   OH246083   5.391   6.588  12.884  0.0364  0.0988  0.5855
 8223TIP3    H146084   5.328   6.599  12.956  2.1437  0.4059  2.4999
 8223TIP3    H246085   5.417   6.677  12.861 -2.6725  0.2410 -2.6757
 8224TIP3   OH246086   0.590   1.726  13.342  0.2573 -0.1976  0.4366
 8224TIP3    H146087   0.554   1.765  13.422 -0.2509  0.6359 -0.1825
 8224TIP3    H246088   0.607   1.801  13.285 -0.4677 -0.8531 -0.6643
 8225TIP3   OH246089   3.303   1.246   1.235 -0.3224 -0.0743 -0.2583
 8225TIP3    H146090   3.226   1.302   1.221 -1.3446 -0.5483  2.7260
 8225TIP3    H246091   3.290   1.173   1.175 -0.3718  1.5008 -2.2661
 8226TIP3   OH246092   3.490   4.856   5.692 -0.2430  0.3169  1.0068
 8226TIP3    H146093   3.394   4.862   5.691 -0.2385  1.7867 -2.0478
 8226TIP3    H246094   3.509   4.769   5.656 -0.4510  0.3630  0.7820
 8227TIP3   OH246095   5.852   4.784  11.458  0.0282  0.1137  0.1652
 8227TIP3    H146096   5.826   4.844  11.389  0.4340  1.1890  0.9123
 8227TIP3    H246097   5.879   4.841  11.530 -0.3797 -0.9702  1.2093
 8228TIP3   OH246098   2.870   2.582  11.527 -0.5148 -0.1524  0.2902
 8228TIP3    H146099   2.787   2.569  11.573 -0.3728 -0.9095  0.3514
 8228TIP3    H246100   2.927   2.622  11.592 -0.6548 -0.1817  0.4330
 8229TIP3   OH246101   4.328   4.423  11.405  0.0499  0.0144  0.7743
 8229TIP3    H146102   4.342   4.518  11.400  1.9066 -0.1825  1.3745
 8229TIP3    H246103   4.288   4.400  11.321 -1.1680  1.4202  0.9348
 8230TIP3   OH246104   3.161   1.332  16.078 -0.2537 -0.6219 -0.3284
 8230TIP3    H146105   3.180   1.424  16.060  1.2226 -0.9645 -0.6248
 8230TIP3    H246106   3.127   1.332  16.168 -0.0495  0.1751 -0.2367
 8231TIP3   OH246107   6.743   0.580   2.068 -0.3786  0.2044  0.3876
 8231TIP3    H146108   6.777   0.650   2.013  0.2592 -0.7196 -0.4452
 8231TIP3    H246109   6.672   0.541   2.017  1.7611 -2.2090 -0.9611
 8232TIP3   OH246110   3.973   0.505   2.362 -0.0281 -1.0905 -0.0424
 8232TIP3    H146111   3.933   0.420   2.342  0.8893 -2.0290  1.8909
 8232TIP3    H246112   4.025   0.489   2.440 -0.4453  1.4475  0.8383
 8233TIP3   OH246113   4.022   5.717  11.794 -0.6496 -0.2898 -0.0279
 8233TIP3    H146114   4.092   5.767  11.751 -0.4453  1.3567  2.0620
 8233TIP3    H246115   3.975   5.675  11.722  1.1274  0.3572 -1.6468
 8234TIP3   OH246116   5.140   3.829   4.132  0.2706  0.0156  0.5453
 8234TIP3    H146117   5.184   3.912   4.113  1.5316 -0.7948 -0.2356
 8234TIP3    H246118   5.209   3.763   4.125 -1.2655 -1.5096 -2.2157
 8235TIP3   OH246119   3.629   4.771  13.539 -0.0757  0.1111 -0.2887
 8235TIP3    H146120   3.654   4.762  13.447 -2.9639  1.0238 -1.2727
 8235TIP3    H246121   3.568   4.698  13.555 -0.0747  0.3138  0.7130
 8236TIP3   OH246122   0.710   1.019   4.739 -0.3662 -0.3640 -0.0153
 8236TIP3    H146123   0.714   1.044   4.647 -0.6410 -0.1117  0.0416
 8236TIP3    H246124   0.641   1.074   4.776 -0.9687 -1.1860  0.1163
 8237TIP3   OH246125   5.502   3.394   3.731  0.0496  0.1321 -0.0554
 8237TIP3    H146126   5.477   3.465   3.672 -2.2082 -0.5553 -0.0095
 8237TIP3    H246127   5.420   3.362   3.767  0.9712 -2.5959 -0.1462
 8238TIP3   OH246128   2.217   0.544  15.873 -0.0383 -0.3345 -0.0476
 8238TIP3    H146129   2.204   0.595  15.953  0.1493 -0.1764 -0.1177
 8238TIP3    H246130   2.186   0.601  15.803 -0.8690 -0.7477 -0.0219
 8239TIP3   OH246131   6.055   0.623  16.436 -0.2039  0.3952  0.1703
 8239TIP3    H146132   6.121   0.573  16.484 -0.3311 -0.3100 -0.3728
 8239TIP3    H246133   6.004   0.557  16.389 -0.4492  1.0238 -0.4697
 8240TIP3   OH246134   6.397   4.309   2.968  0.0643 -0.2413  0.6025
 8240TIP3    H146135   6.485   4.284   2.942  0.8540  1.9120  0.9792
 8240TIP3    H246136   6.378   4.387   2.916 -1.7151 -0.7815  0.3840
 8241TIP3   OH246137   1.453   6.077   4.519 -0.9323  0.1980  0.3517
 8241TIP3    H146138   1.481   6.100   4.608 -0.5758 -0.6959  0.4811
 8241TIP3    H246139   1.460   5.982   4.516 -3.9619 -0.1467  0.3943
 8242TIP3   OH246140   2.582   1.802   0.537  0.2408 -0.4220 -0.3621
 8242TIP3    H146141   2.603   1.858   0.462  1.1900 -1.3402 -0.8062
 8242TIP3    H246142   2.489   1.781   0.526 -0.2362  1.3152  0.0085
 8243TIP3   OH246143   5.450   1.909   2.890 -0.2184 -0.3276 -0.4988
 8243TIP3    H146144   5.396   1.849   2.838  1.4022 -1.8234 -0.5834
 8243TIP3    H246145   5.389   1.973   2.924 -1.9365 -1.5656 -1.0754
 8244TIP3   OH246146   0.570   4.409   0.342 -0.5022  0.0171  0.0164
 8244TIP3    H146147   0.557   4.428   0.249  0.2580  1.4122  0.1628
 8244TIP3    H246148   0.665   4.404   0.351 -0.5332  0.7437  0.8607
 8245TIP3   OH246149   1.431   0.497   0.064  0.3782  0.0051 -0.0499
 8245TIP3    H146150   1.381   0.464   0.139  1.2962  2.0771  1.5941
 8245TIP3    H246151   1.364   0.520  -0.001 -0.8468  1.9007  1.7522
 8246TIP3   OH246152   4.511   1.010  10.764 -0.3137  0.1662 -0.4758
 8246TIP3    H146153   4.471   0.972  10.842  2.0483 -0.2324  0.6533
 8246TIP3    H246154   4.561   0.937  10.725  4.0448  1.7099  1.5354
 8247TIP3   OH246155   3.225   3.754   3.473 -0.7935  0.0065  0.2670
 8247TIP3    H146156   3.267   3.834   3.502 -0.4150 -0.5807  1.4127
 8247TIP3    H246157   3.296   3.691   3.465 -0.6326  0.4460 -3.3833
 8248TIP3   OH246158   3.540   3.145  14.530 -0.2991  0.1664 -0.2800
 8248TIP3    H146159   3.521   3.051  14.529  1.8951 -0.4002  1.3788
 8248TIP3    H246160   3.469   3.185  14.480 -1.9183 -2.2542 -0.1008
 8249TIP3   OH246161   4.776   2.004   3.015  0.2506  0.3831 -1.1865
 8249TIP3    H146162   4.836   1.932   3.033  2.5307  2.4367  0.0825
 8249TIP3    H246163   4.739   2.027   3.101 -0.1324  0.9817 -1.5041
 8250TIP3   OH246164   3.316   5.474  14.526  0.0021 -0.1139 -0.4015
 8250TIP3    H146165   3.337   5.384  14.550  2.0169  0.2849 -0.4878
 8250TIP3    H246166   3.289   5.468  14.434  1.2363 -0.4961 -0.7496
 8251TIP3   OH246167   0.711   5.346  16.479 -0.2691 -0.3545 -0.3836
 8251TIP3    H146168   0.636   5.289  16.498 -1.4209  1.4714  0.7503
 8251TIP3    H246169   0.783   5.306  16.527 -0.9263 -1.1291 -0.0019
 8252TIP3   OH246170   0.010   1.885  10.799 -0.5106 -0.7167  0.1186
 8252TIP3    H146171  -0.063   1.946  10.788  0.2346  0.2850  0.5794
 8252TIP3    H246172  -0.029   1.798  10.785 -1.6181 -0.1565 -0.4118
 8253TIP3   OH246173   5.797   5.657  12.329 -0.9011 -0.5705 -0.5282
 8253TIP3    H146174   5.857   5.682  12.259 -0.0688 -0.9593  0.0332
 8253TIP3    H246175   5.718   5.708  12.312  0.8441  2.8504  0.8091
 8254TIP3   OH246176   5.817   2.102  15.229  0.4228  0.4381  0.0855
 8254TIP3    H146177   5.760   2.171  15.194  0.8688  1.5475  1.4497
 8254TIP3    H246178   5.782   2.021  15.192 -1.2326  1.2172 -0.1596
 8255TIP3   OH246179   4.735   5.742  11.870 -0.3528  0.1827 -0.0810
 8255TIP3    H146180   4.651   5.751  11.823 -0.6459 -0.7288  0.2587
 8255TIP3    H246181   4.727   5.661  11.919  0.6516  0.2097  0.1490
 8256TIP3   OH246182   4.088   0.844  12.879  0.2395 -0.0476  0.7892
 8256TIP3    H146183   4.128   0.773  12.930 -0.2116 -0.4071  0.6497
 8256TIP3    H246184   4.079   0.916  12.941  1.0190  0.0074  0.8427
 8257TIP3   OH246185   6.185   0.658  14.665  0.3135 -0.1728  0.0617
 8257TIP3    H146186   6.165   0.743  14.627 -0.6606 -0.5075 -0.1911
 8257TIP3    H246187   6.118   0.644  14.732 -0.7243 -1.5728 -1.2032
 8258TIP3   OH246188   6.647   2.830  17.211  0.3324  0.0659  0.4451
 8258TIP3    H146189   6.709   2.824  17.138  1.2439  0.0909  1.2039
 8258TIP3    H246190   6.568   2.867  17.171  0.4134 -0.9794 -0.7609
 8259TIP3   OH246191   4.174   3.924  17.008 -0.2642  0.5564 -0.0486
 8259TIP3    H146192   4.142   3.940  16.919  0.7447  0.4666 -0.4431
 8259TIP3    H246193   4.246   3.861  16.997 -1.1848 -0.7639  0.9999
 8260TIP3   OH246194   4.550   0.922   0.310  0.0403  0.0946 -0.1573
 8260TIP3    H146195   4.459   0.920   0.278 -0.2753  0.8788  0.6636
 8260TIP3    H246196   4.599   0.871   0.245 -0.8794  0.1873 -0.9453
 8261TIP3   OH246197   5.020   0.920   0.618  0.3359  0.8089 -0.1709
 8261TIP3    H146198   4.959   0.919   0.545 -2.4702  1.4722  2.0007
 8261TIP3    H246199   5.073   0.999   0.605  0.1038  0.7456 -1.5925
 8262TIP3   OH246200   1.164   3.801   3.486  0.0930  0.1697 -0.4048
 8262TIP3    H146201   1.109   3.790   3.564 -0.3283 -1.3017 -0.8617
 8262TIP3    H246202   1.247   3.761   3.510 -0.7143 -2.2536 -1.3461
 8263TIP3   OH246203   4.383   6.319  13.958  0.1037 -0.5187  0.0043
 8263TIP3    H146204   4.313   6.270  13.916  0.1617 -0.4741 -0.1440
 8263TIP3    H246205   4.455   6.256  13.965  0.1799 -0.4539 -0.1903
 8264TIP3   OH246206   3.324   0.917  15.943 -0.0853 -0.2673  0.9412
 8264TIP3    H146207   3.329   0.842  15.883  2.1866  1.3252 -1.0764
 8264TIP3    H246208   3.232   0.919  15.971 -0.7130 -2.4982 -0.6276
 8265TIP3   OH246209   2.353   5.217   3.542  0.2022 -0.2486 -0.2835
 8265TIP3    H146210   2.340   5.137   3.593 -0.2655 -0.7229 -1.1227
 8265TIP3    H246211   2.383   5.281   3.606 -0.9319 -0.6584  0.7044
 8266TIP3   OH246212   5.242   2.536   2.148 -0.5834  0.2567 -0.2185
 8266TIP3    H146213   5.235   2.612   2.089 -0.8054  1.6932  1.5732
 8266TIP3    H246214   5.332   2.539   2.180 -0.3543 -0.7362 -0.7462
 8267TIP3   OH246215   1.614   1.076   0.006  0.3509 -0.7213 -0.7161
 8267TIP3    H146216   1.674   1.140  -0.033  1.0488 -1.0529 -0.2137
 8267TIP3    H246217   1.528   1.118   0.001  0.6287 -0.2063 -1.3924
 8268TIP3   OH246218   5.551   5.478  10.742  0.2392 -0.0880  0.6675
 8268TIP3    H146219   5.616   5.476  10.812  1.3188  0.8861 -0.2714
 8268TIP3    H246220   5.532   5.570  10.728  1.7084 -0.0428 -1.7472
 8269TIP3   OH246221   5.249   0.627  17.264 -0.1585 -0.2774  0.1665
 8269TIP3    H146222   5.217   0.550  17.310  0.4121 -1.1787 -0.8939
 8269TIP3    H246223   5.264   0.692  17.333  0.8547 -1.6359  1.2861
 8270TIP3   OH246224   0.588   2.027   2.834  0.5748  0.0308  0.1744
 8270TIP3    H146225   0.609   1.957   2.772  0.7207  0.7382 -0.5962
 8270TIP3    H246226   0.494   2.043   2.821  0.2532 -0.8683  1.2528
 8271TIP3   OH246227   0.812   2.712  16.418 -0.2237  0.3032  0.7060
 8271TIP3    H146228   0.864   2.663  16.354 -0.1166  0.2964  0.7995
 8271TIP3    H246229   0.739   2.653  16.440  0.4547 -0.2283  1.5864
 8272TIP3   OH246230   1.763   2.195   1.467 -0.6588 -0.2586 -0.0973
 8272TIP3    H146231   1.831   2.129   1.482 -0.7226 -0.3162 -0.0630
 8272TIP3    H246232   1.811   2.278   1.461 -0.5346 -0.3713 -0.6206
 8273TIP3   OH246233   0.060   1.469   3.885 -0.5127 -0.0667  0.0194
 8273TIP3    H146234  -0.008   1.536   3.890 -0.0681  0.3033  3.4662
 8273TIP3    H246235   0.138   1.512   3.920  0.9082 -1.2409 -1.5187
 8274TIP3   OH246236   4.895   0.454  15.027  0.3413  0.8102 -0.2541
 8274TIP3    H146237   4.926   0.503  14.951  0.6935 -0.7009 -1.1263
 8274TIP3    H246238   4.903   0.362  15.001  1.3131  0.2155  1.9363
 8275TIP3   OH246239   1.241   4.795  10.965 -1.0241  0.6800 -0.3774
 8275TIP3    H146240   1.216   4.870  11.018 -1.0554 -1.5582  3.0548
 8275TIP3    H246241   1.336   4.790  10.974 -1.0871 -0.0298 -0.0345
 8276TIP3   OH246242   5.583   5.062  12.629  0.1841 -0.4706  0.4537
 8276TIP3    H146243   5.567   5.021  12.714 -2.4185 -1.0284 -0.2259
 8276TIP3    H246244   5.550   4.998  12.566 -0.0381  0.9062 -0.8563
 8277TIP3   OH246245   0.146   6.752  15.240  0.3338  0.1040  0.2284
 8277TIP3    H146246   0.152   6.798  15.156 -0.0479 -2.2854 -1.1798
 8277TIP3    H246247   0.187   6.667  15.225  0.8144 -0.1753  2.6669
 8278TIP3   OH246248   2.160   2.255   0.195 -0.1634  0.2183  0.4819
 8278TIP3    H146249   2.169   2.261   0.290  1.9202 -0.3880  0.3644
 8278TIP3    H246250   2.176   2.163   0.174  0.8866  0.6153 -0.5648
 8279TIP3   OH246251   5.029   0.864  15.615  0.1913 -0.0881 -0.3240
 8279TIP3    H146252   4.948   0.899  15.654  0.4565 -0.1281  0.2777
 8279TIP3    H246253   5.005   0.776  15.586  0.6606 -1.1689  2.2629
 8280TIP3   OH246254   3.628   4.218  14.671 -0.5762  0.2528 -0.1951
 8280TIP3    H146255   3.691   4.289  14.677 -0.3094 -0.0913  2.3965
 8280TIP3    H246256   3.682   4.138  14.668 -0.8816  0.0428 -0.1579
 8281TIP3   OH246257   5.173   2.199  12.984  0.5404  0.0976 -0.2519
 8281TIP3    H146258   5.153   2.244  12.902  1.4494  0.9591 -0.0223
 8281TIP3    H246259   5.217   2.265  13.037  0.1547 -0.5119  0.8591
 8282TIP3   OH246260   0.342   3.153   3.923  0.1483 -0.7394  0.0509
 8282TIP3    H146261   0.370   3.224   3.982 -0.0093 -0.9774  0.4129
 8282TIP3    H246262   0.310   3.198   3.845  0.4272 -0.4234  0.1177
 8283TIP3   OH246263   4.920   4.496  16.368 -0.0440  0.6468 -0.6869
 8283TIP3    H146264   4.885   4.508  16.457 -0.6472  0.5810 -0.9121
 8283TIP3    H246265   5.004   4.543  16.369  0.7099 -0.6323  0.3848
 8284TIP3   OH246266   3.969   6.151   3.424  0.0882 -0.1334  0.3283
 8284TIP3    H146267   3.957   6.087   3.354  1.1793 -0.3781  0.3587
 8284TIP3    H246268   4.056   6.187   3.410  0.3685 -0.2657  1.6154
 8285TIP3   OH246269   4.514   3.175  16.502 -0.2228 -0.4080  0.5184
 8285TIP3    H146270   4.585   3.238  16.488  0.7618 -1.4385  0.7079
 8285TIP3    H246271   4.458   3.216  16.569  1.4153 -0.5228  2.0219
 8286TIP3   OH246272   1.360   5.480  12.227  0.4431  0.4151  0.0454
 8286TIP3    H146273   1.278   5.435  12.247  1.3540 -1.3406  0.0291
 8286TIP3    H246274   1.357   5.495  12.133 -0.0344  0.7224  0.1111
 8287TIP3   OH246275   5.209   5.447  11.836  0.0870 -0.5696  0.1546
 8287TIP3    H146276   5.267   5.416  11.766 -0.6713 -1.1464 -0.2301
 8287TIP3    H246277   5.155   5.514  11.793  0.1292 -0.3828  0.3907
 8288TIP3   OH246278   2.842   0.196  12.563 -0.9966 -0.1382  0.3658
 8288TIP3    H146279   2.796   0.196  12.479 -2.1341  0.3961  0.9557
 8288TIP3    H246280   2.780   0.154  12.623 -0.1421 -0.6436  0.9128
 8289TIP3   OH246281   6.592   3.698   0.099 -0.1304 -0.6509 -0.3466
 8289TIP3    H146282   6.573   3.660   0.185  0.5389 -0.1195  0.0495
 8289TIP3    H246283   6.507   3.701   0.055 -0.3507 -1.6539 -0.0067
 8290TIP3   OH246284   5.745   1.801   2.397 -0.1888 -0.2146  0.2046
 8290TIP3    H146285   5.830   1.840   2.379 -0.0337  0.0142  1.3415
 8290TIP3    H246286   5.739   1.799   2.493 -0.7338 -1.7953  0.1709
 8291TIP3   OH246287   5.820   6.743  12.534  0.3684 -0.1395 -0.1492
 8291TIP3    H146288   5.738   6.721  12.489 -0.7972  1.0367  1.2753
 8291TIP3    H246289   5.818   6.691  12.614  0.3973  0.7704  0.4624
 8292TIP3   OH246290   1.166   1.064   5.297 -0.1728  0.0663 -0.1911
 8292TIP3    H146291   1.077   1.046   5.264 -1.5009  2.0094  1.9856
 8292TIP3    H246292   1.154   1.074   5.391  2.6944 -1.1318  0.3863
 8293TIP3   OH246293   4.250   3.128  15.013  0.3725  0.3247  0.2778
 8293TIP3    H146294   4.299   3.048  15.033  0.3414  0.0984 -0.5130
 8293TIP3    H246295   4.308   3.177  14.955 -0.8039 -0.5254 -1.7196
 8294TIP3   OH246296   2.308   5.652   5.532 -0.2426  0.0023  0.3252
 8294TIP3    H146297   2.314   5.742   5.501 -2.2587  1.2286  3.0735
 8294TIP3    H246298   2.375   5.646   5.600 -0.4392 -0.4336  0.4786
 8295TIP3   OH246299   2.195   0.950  17.047 -0.8580 -0.1274  0.3118
 8295TIP3    H146300   2.264   0.986  17.102 -0.9864  0.5640  0.0246
 8295TIP3    H246301   2.232   0.868  17.013  0.5552  1.1120 -1.3219
 8296TIP3   OH246302   1.870   2.001   0.238  0.3867  0.6605  0.3062
 8296TIP3    H146303   1.842   2.062   0.170  1.4685  1.3953  0.4925
 8296TIP3    H246304   1.860   2.050   0.320  2.1029  0.9168  0.3817
 8297TIP3   OH246305   3.953   6.274  16.122 -0.6648  0.0680  0.0875
 8297TIP3    H146306   4.025   6.311  16.174  1.4766 -2.3529 -0.8975
 8297TIP3    H246307   3.952   6.327  16.042  0.9474 -0.6081 -0.4240
 8298TIP3   OH246308   1.376   3.542  16.494 -0.1512  0.3954 -0.1025
 8298TIP3    H146309   1.449   3.515  16.438  0.6504 -0.6510  1.3425
 8298TIP3    H246310   1.304   3.486  16.468  0.0815  0.2279 -0.3920
 8299TIP3   OH246311   6.011   0.907  14.272 -0.1968 -0.0626  0.2019
 8299TIP3    H146312   6.076   0.951  14.218 -0.4926 -1.5191 -1.4196
 8299TIP3    H246313   5.933   0.963  14.267  0.0187  0.2020 -0.2571
 8300TIP3   OH246314   4.328   2.794  15.796  0.3881 -0.2371  0.1483
 8300TIP3    H146315   4.343   2.756  15.710  2.2538 -1.0368  0.7880
 8300TIP3    H246316   4.370   2.880  15.792 -1.8969  0.9356 -0.5677
 8301TIP3   OH246317   0.912   5.740   3.750  0.1075  0.7906 -0.2426
 8301TIP3    H146318   0.898   5.772   3.839  1.2544 -0.0553  0.2747
 8301TIP3    H246319   0.924   5.645   3.761 -1.1902  0.4537 -1.4773
 8302TIP3   OH246320   4.815   6.073   5.968  0.1450  0.3774 -0.0750
 8302TIP3    H146321   4.805   5.982   5.939 -0.9937  0.4336  0.0646
 8302TIP3    H246322   4.828   6.123   5.888 -0.8606  0.2716 -0.3255
 8303TIP3   OH246323   5.394   4.676   2.091  0.2068 -0.1215  0.2261
 8303TIP3    H146324   5.488   4.691   2.084  0.4158  0.2404  2.7518
 8303TIP3    H246325   5.371   4.625   2.013  2.5058 -0.2998 -0.3826
 8304TIP3   OH246326   6.053   2.892   2.194 -0.0804 -0.0350 -0.1641
 8304TIP3    H146327   6.104   2.972   2.197  0.0942 -0.1357  3.0790
 8304TIP3    H246328   5.982   2.906   2.257 -0.7740 -1.9525 -0.4366
 8305TIP3   OH246329   4.970   1.841   1.273 -0.0806 -0.2652 -0.0613
 8305TIP3    H146330   5.033   1.828   1.203 -1.7800  1.0397 -1.9580
 8305TIP3    H246331   4.923   1.758   1.278 -2.6233  0.7154 -3.4553
 8306TIP3   OH246332   5.222   1.050   5.365  0.5979  0.4508 -0.0895
 8306TIP3    H146333   5.312   1.052   5.332 -0.1861 -0.0323 -2.4596
 8306TIP3    H246334   5.212   0.961   5.399  1.0201  0.5184  0.2232
 8307TIP3   OH246335   6.177   3.629   6.321  0.0020  0.0827 -0.2974
 8307TIP3    H146336   6.202   3.692   6.388  0.0513  0.0264 -0.2622
 8307TIP3    H246337   6.237   3.555   6.333 -1.4826 -0.9543  1.1232
 8308TIP3   OH246338   3.277   6.255   3.402 -0.8439 -0.2628 -0.0058
 8308TIP3    H146339   3.294   6.222   3.490 -1.2563 -1.3258 -0.3038
 8308TIP3    H246340   3.360   6.244   3.355 -1.0102 -1.0338 -0.1377
 8309TIP3   OH246341   1.050   0.538  15.139 -0.5488  0.1001  0.0175
 8309TIP3    H146342   1.105   0.536  15.061 -0.1561  0.3804  0.2829
 8309TIP3    H246343   1.051   0.448  15.172 -0.0354  0.1559  0.1627
 8310TIP3   OH246344   4.908   6.060  15.806  0.0392 -0.2728 -0.1911
 8310TIP3    H146345   4.863   6.021  15.731 -1.7388  1.5280 -0.1430
 8310TIP3    H246346   4.843   6.064  15.875  0.1156  2.4952 -0.1431
 8311TIP3   OH246347   4.739   2.528   4.352  0.0126  0.2646 -0.1859
 8311TIP3    H146348   4.809   2.587   4.323  0.6911 -0.1440  0.5849
 8311TIP3    H246349   4.779   2.476   4.422 -0.7157 -0.7858 -0.5315
 8312TIP3   OH246350   6.339   1.798  14.265 -0.3907  0.8981  1.0996
 8312TIP3    H146351   6.335   1.788  14.169 -0.1997 -2.0917  1.2949
 8312TIP3    H246352   6.289   1.877  14.283 -0.6286  1.4317 -1.4496
 8313TIP3   OH246353   5.444   1.450  16.838 -0.3165 -0.4765  0.4895
 8313TIP3    H146354   5.436   1.445  16.743  0.5089 -1.0419  0.4375
 8313TIP3    H246355   5.468   1.541  16.855 -0.7119 -0.3131  0.1736
 8314TIP3   OH246356   3.415   3.922  15.040  0.2679  0.1070 -0.0404
 8314TIP3    H146357   3.358   3.942  15.114  0.4666 -0.1882  0.1902
 8314TIP3    H246358   3.490   3.877  15.078  0.8460  0.8379 -0.2937
 8315TIP3   OH246359   3.947   5.697  13.140  0.0975  0.1055  0.1661
 8315TIP3    H146360   3.901   5.666  13.063 -0.2532 -0.4995  0.6093
 8315TIP3    H246361   3.945   5.623  13.201  3.7705 -0.8737 -0.6570
 8316TIP3   OH246362   2.659   6.512  16.250  1.0314 -0.1299  0.1556
 8316TIP3    H146363   2.705   6.504  16.167  1.0763 -0.9426  0.2535
 8316TIP3    H246364   2.729   6.516  16.316  1.0460  1.8099  0.0852
 8317TIP3   OH246365   4.239   4.066  16.620  0.5599 -0.5059 -0.1790
 8317TIP3    H146366   4.295   4.140  16.643  0.6095 -1.3517  2.8392
 8317TIP3    H246367   4.300   3.995  16.599  0.5651 -0.5611  0.0246
 8318TIP3   OH246368   1.899   4.119  17.332  0.0472 -0.2774  0.7998
 8318TIP3    H146369   1.920   4.046  17.391  0.2082 -0.1494  0.9050
 8318TIP3    H246370   1.818   4.093  17.289 -0.4196 -0.1027  1.5440
 8319TIP3   OH246371   0.810   4.273   1.964  0.3261 -0.1323 -0.4586
 8319TIP3    H146372   0.821   4.282   1.869  2.6382 -1.1113 -0.3588
 8319TIP3    H246373   0.881   4.325   2.001  0.6789 -1.3556  0.6465
 8320TIP3   OH246374   5.482   2.114  12.401 -0.1197 -0.3077  0.7760
 8320TIP3    H146375   5.440   2.156  12.476  0.7359  0.0294  1.0791
 8320TIP3    H246376   5.555   2.065  12.440  1.0756  0.8478  0.0589
 8321TIP3   OH246377   6.559   4.040   2.184  0.1795 -0.3121 -0.3698
 8321TIP3    H146378   6.552   4.016   2.091 -0.0101 -1.0642 -0.1675
 8321TIP3    H246379   6.528   3.963   2.231 -0.7660  0.4602  0.3039
 8322TIP3   OH246380   4.966   0.886   5.381 -0.2121  0.5268  0.1521
 8322TIP3    H146381   4.971   0.808   5.326 -1.1993 -1.3283  2.5177
 8322TIP3    H246382   5.058   0.906   5.401  0.0272 -0.8330  0.5282
 8323TIP3   OH246383   3.606   1.886   0.004  0.1945 -0.0708 -0.2830
 8323TIP3    H146384   3.641   1.974   0.014 -0.4933  0.0906  0.9800
 8323TIP3    H246385   3.679   1.829   0.029 -0.3913  0.2702  2.6355
 8324TIP3   OH246386   3.156   6.193  16.077  0.4769  0.5000 -0.2402
 8324TIP3    H146387   3.074   6.224  16.116  0.0536 -1.1277  0.2346
 8324TIP3    H246388   3.149   6.215  15.984 -0.0246  1.3106 -0.0176
 8325TIP3   OH246389   0.975   1.101  16.499  0.1181 -0.7592  0.7064
 8325TIP3    H146390   0.906   1.112  16.434  0.5574 -1.0899  0.1701
 8325TIP3    H246391   0.929   1.095  16.583 -0.6223 -2.5041  0.2153
 8326TIP3   OH246392   2.644   1.189   1.364 -0.6768  0.0059 -0.3893
 8326TIP3    H146393   2.718   1.138   1.331  0.0088 -0.5750  1.8516
 8326TIP3    H246394   2.679   1.233   1.442 -2.5385  0.2032  0.3748
 8327TIP3   OH246395   5.716   0.063  14.123  0.2573  0.0229 -0.2930
 8327TIP3    H146396   5.695  -0.030  14.128  0.2175  0.0782  1.3696
 8327TIP3    H246397   5.810   0.067  14.142  0.0432  0.3760  0.7762
 8328TIP3   OH246398   5.133   2.929  13.150  0.6224  0.8688 -0.3122
 8328TIP3    H146399   5.115   3.010  13.102 -2.4379  0.3036 -0.3296
 8328TIP3    H246400   5.093   2.860  13.097 -0.5876 -0.0982  1.7412
 8329TIP3   OH246401   0.603   4.797   3.924  0.1915 -0.0302 -0.2876
 8329TIP3    H146402   0.692   4.806   3.892 -0.3503  2.0887 -1.4080
 8329TIP3    H246403   0.599   4.709   3.960  2.7415 -0.1521 -0.1189
 8330TIP3   OH246404   6.672   0.850  16.699  0.1219  0.4046  0.6063
 8330TIP3    H146405   6.690   0.863  16.606 -0.2775  1.6342  0.6871
 8330TIP3    H246406   6.602   0.784  16.701 -0.1751  0.6921  0.0154
 8331TIP3   OH246407   2.493   6.216   4.941  0.0546  0.4368  0.6571
 8331TIP3    H146408   2.465   6.279   5.008  3.7028  0.6895  2.1701
 8331TIP3    H246409   2.584   6.240   4.922  0.7932 -2.8168 -0.5999
 8332TIP3   OH246410   4.900   0.252  16.561  0.1572  0.7585  0.7362
 8332TIP3    H146411   4.825   0.214  16.514 -0.0065  0.7045  1.0423
 8332TIP3    H246412   4.930   0.322  16.504  1.1084 -0.4788 -0.3380
 8333TIP3   OH246413   1.994   6.600   2.636  0.1860 -0.3238  0.0710
 8333TIP3    H146414   2.059   6.670   2.626  0.4129 -0.6033 -0.4953
 8333TIP3    H246415   2.014   6.561   2.721  0.8975 -0.5332 -0.1806
 8334TIP3   OH246416   0.755   0.314   3.546 -0.1734 -0.0600  0.0272
 8334TIP3    H146417   0.709   0.234   3.572 -0.9419  0.1687 -0.5868
 8334TIP3    H246418   0.710   0.383   3.595  2.4397 -0.2423  3.0313
 8335TIP3   OH246419   3.747   3.814   3.811 -0.2394 -0.2419 -0.3135
 8335TIP3    H146420   3.827   3.849   3.849 -0.4034  0.4152 -0.5523
 8335TIP3    H246421   3.759   3.719   3.811  0.3100 -0.1743  0.1475
 8336TIP3   OH246422   3.142   4.642  15.433  0.0910  0.0632 -0.3391
 8336TIP3    H146423   3.217   4.631  15.375 -0.8704  0.3644 -1.6809
 8336TIP3    H246424   3.067   4.646  15.375 -0.8422  1.1401  0.8823
 8337TIP3   OH246425   6.128   5.646   5.710 -0.2776  0.5793 -0.5272
 8337TIP3    H146426   6.169   5.576   5.761 -1.4284  1.9140  2.4769
 8337TIP3    H246427   6.200   5.706   5.691  0.2710 -0.2052 -1.0132
 8338TIP3   OH246428   4.432   2.545  11.830  0.1211 -0.2958 -0.1482
 8338TIP3    H146429   4.336   2.554  11.826  0.0551  0.1738  1.6483
 8338TIP3    H246430   4.447   2.472  11.890  0.8643  1.0348  1.3721
 8339TIP3   OH246431   2.549   4.183  15.319 -0.3213 -0.2059  0.3105
 8339TIP3    H146432   2.608   4.181  15.244 -1.5120  0.6207 -0.6990
 8339TIP3    H246433   2.556   4.096  15.358  0.5655 -0.5430 -0.5608
 8340TIP3   OH246434   4.921   0.343  17.153  0.1606  0.3043 -0.0196
 8340TIP3    H146435   5.012   0.355  17.180 -0.4507  0.4282  2.1640
 8340TIP3    H246436   4.894   0.263  17.198 -1.5090  1.6180  1.4559
 8341TIP3   OH246437   3.820   0.180   4.051  0.0310  0.1610 -0.8611
 8341TIP3    H146438   3.742   0.159   3.999 -0.6820  0.4806  0.0529
 8341TIP3    H246439   3.854   0.095   4.079 -1.0549  0.0697  0.2470
 8342TIP3   OH246440   5.077   0.810   5.744 -0.7345 -0.3811 -0.3380
 8342TIP3    H146441   5.002   0.799   5.686 -0.4999  0.4594 -0.8092
 8342TIP3    H246442   5.080   0.904   5.763  0.3924 -0.3551 -0.5827
 8343TIP3   OH246443   0.241   2.433   0.073 -0.2178 -0.0186  0.2811
 8343TIP3    H146444   0.166   2.458   0.128 -2.9936 -0.6436 -2.8949
 8343TIP3    H246445   0.249   2.504   0.010  1.5685 -0.2383  0.2271
 8344TIP3   OH246446   5.136   1.935   4.251  0.0815 -0.0243 -0.1301
 8344TIP3    H146447   5.052   1.929   4.297  0.7100 -0.8591  0.9492
 8344TIP3    H246448   5.123   1.885   4.170 -1.0340  1.4567 -0.9202
 8345TIP3   OH246449   5.319   6.396   5.034  0.4562 -0.3905 -0.1144
 8345TIP3    H146450   5.400   6.442   5.011  1.3915 -1.4200  0.9525
 8345TIP3    H246451   5.327   6.311   4.992  0.0001 -0.5532  0.1238
 8346TIP3   OH246452   2.548   4.093  12.639 -0.5697  0.2049 -0.9000
 8346TIP3    H146453   2.638   4.066  12.656 -0.8988  0.2156  0.9887
 8346TIP3    H246454   2.510   4.020  12.590 -0.7157 -1.7643  1.9619
 8347TIP3   OH246455   2.788   0.687   3.298  0.0026 -0.1015  0.0089
 8347TIP3    H146456   2.792   0.664   3.205 -0.5207 -1.9957  0.4078
 8347TIP3    H246457   2.766   0.605   3.342  0.9955  0.5798  1.8908
 8348TIP3   OH246458   1.951   5.243   3.503  0.5194 -0.1048  0.5276
 8348TIP3    H146459   1.966   5.264   3.595  1.2765  2.1861 -0.0330
 8348TIP3    H246460   1.994   5.315   3.456 -1.5372 -0.1335 -1.5541
 8349TIP3   OH246461   2.594   3.129   2.080  0.2930  0.3934 -0.0540
 8349TIP3    H146462   2.625   3.150   2.168  2.6675 -0.9621 -0.4574
 8349TIP3    H246463   2.507   3.090   2.093  0.6892  0.0097  1.7301
 8350TIP3   OH246464   3.281   5.092  16.099  0.4999 -0.0906 -0.0862
 8350TIP3    H146465   3.347   5.133  16.043  1.9963 -1.0368  0.8988
 8350TIP3    H246466   3.253   5.162  16.158  0.2606  0.4356 -0.8120
 8351TIP3   OH246467   2.318   6.727  13.321 -0.6761  0.0113 -0.0493
 8351TIP3    H146468   2.364   6.750  13.241 -1.3272  0.5405 -0.2756
 8351TIP3    H246469   2.233   6.695  13.292  0.2762 -3.1437  0.2022
 8352TIP3   OH246470   4.643   5.085   2.160  0.1685  0.1499 -0.1748
 8352TIP3    H146471   4.627   5.060   2.251 -0.6107 -0.6591 -0.5161
 8352TIP3    H246472   4.688   5.169   2.165  0.8069 -0.2377  0.9770
 8353TIP3   OH246473   4.362   3.318   5.198 -0.6837  0.3226 -0.0751
 8353TIP3    H146474   4.268   3.325   5.214 -0.6586 -0.7667  0.6683
 8353TIP3    H246475   4.390   3.246   5.254  1.1011  2.3334  1.7770
 8354TIP3   OH246476   2.539   0.409  15.471 -0.0416  0.5459 -0.6538
 8354TIP3    H146477   2.480   0.428  15.545  0.4897 -1.1030  0.2256
 8354TIP3    H246478   2.593   0.488  15.464  0.4947  0.4196  1.3231
 8355TIP3   OH246479   3.547   2.629  12.784  0.2112  1.1037  0.1194
 8355TIP3    H146480   3.615   2.696  12.797  2.1943 -0.9857  1.1558
 8355TIP3    H246481   3.591   2.559  12.736 -0.9376 -0.6725  1.5163
 8356TIP3   OH246482   6.745   4.221   3.246 -0.4721  0.3626  0.0821
 8356TIP3    H146483   6.823   4.250   3.199 -1.2781  0.5823 -1.1889
 8356TIP3    H246484   6.711   4.301   3.287 -0.2144  0.3302  0.3607
 8357TIP3   OH246485   1.057   5.438   4.622 -0.4023 -0.5084 -0.1139
 8357TIP3    H146486   0.990   5.471   4.563 -0.5773 -0.9808 -0.1874
 8357TIP3    H246487   1.011   5.422   4.704 -0.7920 -2.4892 -0.6637
 8358TIP3   OH246488   0.364   6.178  13.916  0.1607 -0.0056  0.0265
 8358TIP3    H146489   0.391   6.188  14.007  0.4643 -1.1693  0.0719
 8358TIP3    H246490   0.396   6.258  13.873  0.6618  0.2097  0.7882
 8359TIP3   OH246491   6.095   1.739   6.031 -0.2846 -0.2700 -0.2682
 8359TIP3    H146492   6.022   1.687   6.063  0.1072 -0.0279  1.0991
 8359TIP3    H246493   6.169   1.713   6.087 -0.0353  1.5944  0.3298
 8360TIP3   OH246494   5.948   0.924   1.277  0.4595 -0.4744  0.1881
 8360TIP3    H146495   5.869   0.918   1.330 -0.3140  0.8937 -0.7387
 8360TIP3    H246496   5.925   0.878   1.196  0.9329 -0.8398  0.2588
 8361TIP3   OH246497   5.782   0.563  16.008 -0.2005  1.1313  0.4351
 8361TIP3    H146498   5.708   0.609  15.969 -1.3080 -0.0577  1.0428
 8361TIP3    H246499   5.850   0.629  16.016 -0.9629  2.1021 -0.7423
 8362TIP3   OH246500   6.600   5.766  11.607  0.6049 -0.3118 -0.1609
 8362TIP3    H146501   6.596   5.806  11.694  2.0122  0.3051 -0.3500
 8362TIP3    H246502   6.634   5.678  11.623 -1.0324 -0.9417  0.0905
 8363TIP3   OH246503   3.156   5.739   1.015 -0.1241 -0.4162  0.3011
 8363TIP3    H146504   3.235   5.692   0.988 -0.7737 -0.5782 -1.4403
 8363TIP3    H246505   3.085   5.699   0.965 -1.6018 -1.2342  2.8480
 8364TIP3   OH246506   5.447   1.051   3.540  0.3663  0.1840  0.0941
 8364TIP3    H146507   5.354   1.063   3.560 -0.2706 -1.3287 -1.7128
 8364TIP3    H246508   5.492   1.110   3.600 -1.8340  2.2058 -0.1039
 8365TIP3   OH246509   2.382   2.747   3.486 -0.0024  0.1571  0.1787
 8365TIP3    H146510   2.356   2.674   3.429 -0.2337  0.2572  0.1564
 8365TIP3    H246511   2.344   2.824   3.445  1.2382  0.4580 -0.4574
 8366TIP3   OH246512   6.477   2.351  12.915 -0.0200  0.0765  0.4969
 8366TIP3    H146513   6.389   2.388  12.923  0.9820  2.3765  2.0823
 8366TIP3    H246514   6.502   2.332  13.006  0.8663 -1.2558 -0.0019
 8367TIP3   OH246515   4.206   4.343  13.190 -0.4807  0.6831 -0.3370
 8367TIP3    H146516   4.116   4.363  13.214 -0.7958  0.7533 -1.4960
 8367TIP3    H246517   4.259   4.389  13.255 -1.2555 -1.6705  2.1202
 8368TIP3   OH246518   3.214   5.577   2.493  0.4996  0.1304  0.7367
 8368TIP3    H146519   3.219   5.500   2.549  0.4254  0.0772  0.6709
 8368TIP3    H246520   3.182   5.544   2.409  0.1185  0.2932  0.8169
 8369TIP3   OH246521   3.476   5.792   1.225 -0.8869  0.2763  0.1760
 8369TIP3    H146522   3.471   5.876   1.179  0.7403 -0.8747 -2.3357
 8369TIP3    H246523   3.570   5.776   1.235 -1.1784 -0.7133  1.7889
 8370TIP3   OH246524   2.122   1.230   1.648  0.0761  0.4360  0.3950
 8370TIP3    H146525   2.188   1.263   1.710 -0.9361 -0.3969  1.9740
 8370TIP3    H246526   2.050   1.293   1.654 -0.4084 -0.1481  0.7803
 8371TIP3   OH246527   2.474   1.086   5.452  0.3617 -0.2510  0.1912
 8371TIP3    H146528   2.509   1.142   5.383 -0.1457  0.1166  0.2222
 8371TIP3    H246529   2.379   1.100   5.448  0.2917 -0.5465  0.6876
 8372TIP3   OH246530   2.625   5.197   3.726 -0.0850  0.0797 -0.2018
 8372TIP3    H146531   2.705   5.171   3.772 -0.2259  0.9965  0.5800
 8372TIP3    H246532   2.625   5.144   3.647 -0.2278 -2.1497  1.2009
 8373TIP3   OH246533   3.292   6.022   4.168  0.4006 -0.5491  0.9445
 8373TIP3    H146534   3.303   6.117   4.178 -1.7507 -0.0961 -0.2745
 8373TIP3    H246535   3.364   5.995   4.111  1.6636  0.1299  2.1705
 8374TIP3   OH246536   1.221   1.520  17.214 -0.2417  0.5539  0.4349
 8374TIP3    H146537   1.155   1.493  17.278  1.0028  0.2005  1.6160
 8374TIP3    H246538   1.194   1.609  17.189 -0.9458  0.5729  1.1869
 8375TIP3   OH246539   0.167   3.472   3.451 -0.4139 -0.0436 -0.6134
 8375TIP3    H146540   0.135   3.455   3.362 -1.1901 -0.3560 -0.2883
 8375TIP3    H246541   0.175   3.384   3.490  5.0634 -0.4958 -2.0120
 8376TIP3   OH246542   2.442   2.929  11.830 -0.6140  0.3846  0.1589
 8376TIP3    H146543   2.511   2.992  11.809 -0.4997  0.3434  0.4064
 8376TIP3    H246544   2.365   2.961  11.783  0.0194 -0.5700 -1.6394
 8377TIP3   OH246545   6.568   0.644  15.291  0.0508 -0.5044 -0.7633
 8377TIP3    H146546   6.660   0.638  15.319 -0.3407 -0.3221  0.5787
 8377TIP3    H246547   6.545   0.736  15.303 -0.4601 -0.6515 -0.6249
 8378TIP3   OH246548   1.625   0.313  16.152  0.4060 -0.2909  0.2500
 8378TIP3    H146549   1.541   0.289  16.190  0.5579  1.6754  2.0539
 8378TIP3    H246550   1.603   0.350  16.066 -0.3570 -1.3785 -0.0424
 8379TIP3   OH246551   4.410   5.166  10.977 -0.2158 -0.0213 -0.0337
 8379TIP3    H146552   4.430   5.138  10.888  0.1985 -0.2978  0.1427
 8379TIP3    H246553   4.315   5.176  10.979 -0.1764  0.5739 -0.6752
 8380TIP3   OH246554   6.370   4.482  15.631  0.2616  0.0513 -0.2684
 8380TIP3    H146555   6.282   4.488  15.668  0.1960  0.3157 -0.4627
 8380TIP3    H246556   6.426   4.460  15.706 -0.0029 -0.3756 -0.1931
 8381TIP3   OH246557   2.141   6.156   0.557  0.1827  0.2214 -0.1209
 8381TIP3    H146558   2.111   6.110   0.636  2.9793  1.2377  1.7046
 8381TIP3    H246559   2.120   6.248   0.574  0.5664  0.4217 -0.7051
 8382TIP3   OH246560   0.448   0.128  12.221 -0.1877 -0.1957  0.3799
 8382TIP3    H146561   0.416   0.039  12.205  0.5099 -0.3903  0.0596
 8382TIP3    H246562   0.429   0.175  12.140 -0.1081 -0.1779  0.3715
 8383TIP3   OH246563   3.458   6.563   5.345 -0.2095  0.5220  0.6273
 8383TIP3    H146564   3.437   6.656   5.355 -0.0083  0.3890  2.4573
 8383TIP3    H246565   3.546   6.562   5.308 -1.0689  1.0347 -1.6226
 8384TIP3   OH246566   0.460   3.855   2.645 -0.4469  0.2590  0.0133
 8384TIP3    H146567   0.396   3.908   2.693 -1.0653  0.5458 -1.0890
 8384TIP3    H246568   0.495   3.914   2.579  0.5017 -0.0891  0.1836
 8385TIP3   OH246569   6.760   0.645  14.190 -0.1778 -0.3293  0.0433
 8385TIP3    H146570   6.771   0.569  14.133  0.0463 -0.7725  0.6662
 8385TIP3    H246571   6.735   0.608  14.275  0.9882  0.2170  0.6445
 8386TIP3   OH246572   4.845   4.725   4.754  0.4297  0.2372  0.2433
 8386TIP3    H146573   4.751   4.710   4.739  0.3582  1.3748 -0.5514
 8386TIP3    H246574   4.864   4.675   4.834 -1.1588  1.0192  1.1761
 8387TIP3   OH246575   0.112   2.719   0.884 -0.5621  0.4107  0.4405
 8387TIP3    H146576   0.086   2.676   0.966 -0.9438 -0.1205  0.0518
 8387TIP3    H246577   0.207   2.720   0.886 -0.5683  1.6047  1.4949
 8388TIP3   OH246578   2.303   5.066  10.320  0.4729  0.6008  0.0792
 8388TIP3    H146579   2.213   5.096  10.330  0.9727  1.8954  0.9175
 8388TIP3    H246580   2.334   5.052  10.409  1.1571  0.3350 -0.1892
 8389TIP3   OH246581   4.214   4.492   3.208 -0.3265 -0.6378  0.0539
 8389TIP3    H146582   4.249   4.433   3.141  0.6493 -0.4502  0.3783
 8389TIP3    H246583   4.120   4.494   3.191 -0.1684 -1.0170 -0.9668
 8390TIP3   OH246584   6.059   6.694   1.121 -0.9957 -0.4322 -0.1023
 8390TIP3    H146585   6.151   6.715   1.105 -1.8492  1.9420 -2.8808
 8390TIP3    H246586   6.054   6.676   1.214  2.3146 -1.0501  0.0794
 8391TIP3   OH246587   4.313   2.926   3.587  0.1674  0.8082  0.0950
 8391TIP3    H146588   4.325   3.006   3.535 -1.1830  1.0211  0.0692
 8391TIP3    H246589   4.329   2.855   3.525 -0.4737  1.0653 -0.3829
 8392TIP3   OH246590   3.881   6.045  16.008 -0.3237  0.6807 -0.0907
 8392TIP3    H146591   3.878   6.127  16.057 -0.5069 -0.4293  1.8545
 8392TIP3    H246592   3.791   6.033  15.977 -0.4805  0.8222  0.3020
 8393TIP3   OH246593   2.477   1.302  15.001  0.5887  0.0255 -0.2027
 8393TIP3    H146594   2.417   1.309  15.075  0.2416  1.1521 -0.5786
 8393TIP3    H246595   2.429   1.336  14.926  2.1989  2.5679 -0.2020
 8394TIP3   OH246596   5.276   6.066   2.257  0.1641  0.0569 -0.0479
 8394TIP3    H146597   5.186   6.043   2.281 -0.6738  0.7220 -2.1915
 8394TIP3    H246598   5.328   5.989   2.276 -1.0162 -0.6107  0.5455
 8395TIP3   OH246599   4.648   6.747  15.065 -0.8875  0.4163  0.4973
 8395TIP3    H146600   4.644   6.696  14.984  0.5353 -0.0946  0.7287
 8395TIP3    H246601   4.556   6.760  15.089 -1.3243  0.0710 -0.8730
 8396TIP3   OH246602   4.440   2.280   0.004  0.1540  0.1240  0.5991
 8396TIP3    H146603   4.528   2.266  -0.031 -0.1138 -1.1968  0.4054
 8396TIP3    H246604   4.453   2.341   0.077  1.1464  0.3870  0.2190
 8397TIP3   OH246605   2.996   1.479   4.086 -0.0474  0.5860  0.8888
 8397TIP3    H146606   2.998   1.509   4.177 -0.1511 -1.3266  1.5660
 8397TIP3    H246607   3.074   1.424   4.078 -0.0697  0.7023 -0.1780
 8398TIP3   OH246608   6.265   2.633   0.580 -0.2200  0.5149 -0.0236
 8398TIP3    H146609   6.304   2.571   0.641  0.2377  1.6176  0.8344
 8398TIP3    H246610   6.303   2.610   0.495  1.8576  1.1347  0.6716
 8399TIP3   OH246611   4.837   1.235  14.790 -0.2730 -0.1584  0.0608
 8399TIP3    H146612   4.772   1.269  14.729 -0.0428  1.5114  0.6868
 8399TIP3    H246613   4.911   1.209  14.735  0.2889  2.1401 -0.3596
 8400TIP3   OH246614   4.376   6.220   4.599 -0.2434 -0.1887 -0.5636
 8400TIP3    H146615   4.307   6.232   4.664  0.0845 -1.4681  0.0465
 8400TIP3    H246616   4.451   6.190   4.649 -0.0635 -1.4831 -1.5513
 8401TIP3   OH246617   2.879   5.664   5.548 -0.2323  0.0722 -0.5123
 8401TIP3    H146618   2.888   5.718   5.627  1.5550  0.4449 -0.9297
 8401TIP3    H246619   2.966   5.667   5.507 -0.4215 -2.1692 -1.1765
 8402TIP3   OH246620   6.532   5.855  11.891  0.5489 -0.6182 -0.1932
 8402TIP3    H146621   6.524   5.951  11.889 -0.3060 -0.4350  3.7370
 8402TIP3    H246622   6.441   5.824  11.900  0.7568 -1.9073 -2.0529
 8403TIP3   OH246623   5.847   0.713  12.796 -0.8596  0.0970  0.1482
 8403TIP3    H146624   5.758   0.720  12.763 -0.9193 -2.2221 -0.3508
 8403TIP3    H246625   5.861   0.793  12.847 -1.6336  2.7535 -3.3865
 8404TIP3   OH246626   0.300   5.907   3.666  0.1662 -0.1514 -0.9686
 8404TIP3    H146627   0.391   5.902   3.694 -0.2229  0.1231  0.4050
 8404TIP3    H246628   0.254   5.840   3.716 -0.2883 -0.7470 -2.1401
 8405TIP3   OH246629   5.318   4.723  17.058 -0.5311 -0.3347  0.2053
 8405TIP3    H146630   5.382   4.705  16.990 -1.2347 -0.0206 -0.5527
 8405TIP3    H246631   5.360   4.693  17.139  0.2539 -0.8378 -0.3772
 8406TIP3   OH246632   1.166   3.774   4.632  0.1069 -0.8209  0.6366
 8406TIP3    H146633   1.119   3.746   4.554  0.4267  1.0866 -0.3102
 8406TIP3    H246634   1.210   3.695   4.664 -1.7782 -2.1155  0.1777
 8407TIP3   OH246635   0.291   1.822  12.720  0.2186  0.2925 -0.2512
 8407TIP3    H146636   0.229   1.781  12.660  0.0596  2.1438 -1.4563
 8407TIP3    H246637   0.371   1.834  12.668  1.5247 -1.6624  1.1478
 8408TIP3   OH246638   0.446   5.892  11.672 -0.3362  0.3379  0.3489
 8408TIP3    H146639   0.491   5.807  11.662 -1.5254 -0.3293  0.5410
 8408TIP3    H246640   0.358   5.869  11.700 -1.0301  1.5852 -0.7154
 8409TIP3   OH246641   1.076   2.231   6.603 -0.0446  0.0706  0.4072
 8409TIP3    H146642   0.997   2.252   6.653  0.0900 -0.8333  1.0175
 8409TIP3    H246643   1.058   2.263   6.515 -1.5964 -1.2109  0.2168
 8410TIP3   OH246644   5.834   0.891  13.032 -0.1970  0.1717  0.3492
 8410TIP3    H146645   5.927   0.900  13.008 -0.2028 -0.0461  0.2418
 8410TIP3    H246646   5.835   0.827  13.104 -0.3443 -0.4702 -0.2119
 8411TIP3   OH246647   0.667   0.475  15.102  0.3378 -0.5375  0.2831
 8411TIP3    H146648   0.730   0.425  15.050  0.5064 -1.6525  1.5209
 8411TIP3    H246649   0.658   0.426  15.183 -1.8033 -0.1693  0.3218
 8412TIP3   OH246650   2.196   4.020   3.325  0.4147  0.3404  0.2615
 8412TIP3    H146651   2.248   4.100   3.320  0.6344  0.2296  0.7113
 8412TIP3    H246652   2.207   3.990   3.415 -0.8700  0.6080  0.5361
 8413TIP3   OH246653   0.111   2.442  15.272 -0.3480 -0.2092  0.1379
 8413TIP3    H146654   0.154   2.497  15.206 -3.0995  0.8311 -0.9522
 8413TIP3    H246655   0.118   2.353  15.237  0.0380  0.0575 -0.4971
 8414TIP3   OH246656   5.875   0.424   0.219  0.4440  0.2238 -0.4611
 8414TIP3    H146657   5.909   0.405   0.132 -0.6231 -1.3326 -0.5833
 8414TIP3    H246658   5.833   0.509   0.210  3.7544  2.0259 -0.4075
 8415TIP3   OH246659   3.036   3.889  13.783 -0.2768 -0.1417  0.9812
 8415TIP3    H146660   3.002   3.807  13.820 -2.1217  0.7790  1.4420
 8415TIP3    H246661   3.099   3.861  13.717 -1.6547 -1.9953  0.3553
 8416TIP3   OH246662   6.093   6.723   1.439 -0.3967  0.9389 -0.3060
 8416TIP3    H146663   6.018   6.777   1.462  0.5447  1.5480  1.5975
 8416TIP3    H246664   6.166   6.760   1.490  0.7806 -0.7309 -0.6807
 8417TIP3   OH246665   3.463   2.213   6.093 -0.0792 -0.1328 -0.2855
 8417TIP3    H146666   3.558   2.223   6.102 -0.1048 -0.3476  0.2206
 8417TIP3    H246667   3.435   2.291   6.044  0.2268  0.4219  0.4083
 8418TIP3   OH246668   4.941   6.064   0.805  0.1982 -0.2714  0.0504
 8418TIP3    H146669   4.934   6.151   0.764 -1.0401 -0.7986 -0.9289
 8418TIP3    H246670   5.004   6.017   0.750  0.5240 -0.1425  0.3119
 8419TIP3   OH246671   4.123   4.744   3.078 -0.2833 -0.3606 -0.9522
 8419TIP3    H146672   4.146   4.678   3.013  2.4434  0.9053 -1.4262
 8419TIP3    H246673   4.148   4.705   3.162 -1.2675 -0.9465 -0.9153
 8420TIP3   OH246674   1.858   5.254   5.437 -0.0707 -0.6504  0.0697
 8420TIP3    H146675   1.814   5.334   5.406  2.3027  0.3055 -1.0770
 8420TIP3    H246676   1.852   5.258   5.532  1.1761  1.6916  0.1229
 8421TIP3   OH246677   2.754   4.310   0.759  0.7599 -0.2775  0.1726
 8421TIP3    H146678   2.836   4.261   0.745  1.1283 -0.5581  2.7967
 8421TIP3    H246679   2.773   4.368   0.833 -0.3069  2.4651 -1.5612
 8422TIP3   OH246680   1.345   2.909   0.977  0.3308 -0.3744  0.2509
 8422TIP3    H146681   1.285   2.984   0.979  0.6434 -0.1304  0.6414
 8422TIP3    H246682   1.328   2.867   0.892  0.9406  0.7954 -0.4846
 8423TIP3   OH246683   0.521   3.056   4.196 -0.4018  0.2095 -0.2301
 8423TIP3    H146684   0.594   2.996   4.182 -0.9156 -0.3049 -0.7542
 8423TIP3    H246685   0.482   3.026   4.278 -0.3775  0.1149 -0.2527
 8424TIP3   OH246686   0.949   4.223  16.849 -0.3483 -0.1171 -0.5054
 8424TIP3    H146687   0.952   4.308  16.805  0.1399  0.8311  1.2736
 8424TIP3    H246688   0.861   4.191  16.832 -0.4474  0.6079 -1.4449
 8425TIP3   OH246689   1.401   4.719  15.351 -0.0464  0.5328  0.7795
 8425TIP3    H146690   1.364   4.752  15.269  0.3473  2.0535  1.1783
 8425TIP3    H246691   1.382   4.788  15.415 -0.7482 -0.8367  2.0784
 8426TIP3   OH246692   0.768   2.022   0.385  0.5835 -0.5810 -0.0431
 8426TIP3    H146693   0.819   2.005   0.306 -0.1394  0.5467 -0.7813
 8426TIP3    H246694   0.775   2.117   0.399  0.2232 -0.6783  0.9174
 8427TIP3   OH246695   6.379   0.861   2.612  0.4371  0.7537 -0.0480
 8427TIP3    H146696   6.303   0.920   2.615 -1.3526 -1.4395  2.0816
 8427TIP3    H246697   6.424   0.875   2.694 -1.6241 -2.5495  1.8795
 8428TIP3   OH246698   6.050   5.292   4.825  0.0367 -0.2661  0.3900
 8428TIP3    H146699   6.023   5.224   4.886 -0.0362 -0.7495 -0.1713
 8428TIP3    H246700   6.126   5.255   4.780  1.1634  0.7514  1.3787
 8429TIP3   OH246701   5.905   2.000  12.099  0.1571 -0.2327 -0.0941
 8429TIP3    H146702   5.844   2.074  12.101 -0.7898 -0.9303 -1.4196
 8429TIP3    H246703   5.850   1.924  12.120  0.7853 -0.7648 -0.3579
 8430TIP3   OH246704   2.713   5.399   2.400 -0.0636 -0.3107  0.7842
 8430TIP3    H146705   2.683   5.308   2.395  1.1119 -0.6367 -2.7936
 8430TIP3    H246706   2.802   5.397   2.367  0.2924  2.0581  1.4491
 8431TIP3   OH246707   6.211   4.796   1.181  0.1640  0.3111 -0.0932
 8431TIP3    H146708   6.166   4.749   1.111  0.4998  0.5437 -0.4721
 8431TIP3    H246709   6.176   4.759   1.262 -0.4659  0.2660 -0.3827
 8432TIP3   OH246710   4.138   2.040  12.096 -0.0228  0.1197  0.3536
 8432TIP3    H146711   4.206   1.975  12.077 -0.3051 -0.0554 -0.0711
 8432TIP3    H246712   4.159   2.071  12.184  0.3899 -0.2049  0.3742
 8433TIP3   OH246713   0.880   4.634   4.690 -0.3023  0.1973 -0.3251
 8433TIP3    H146714   0.787   4.658   4.691 -0.0640  1.3291 -1.9945
 8433TIP3    H246715   0.927   4.717   4.692  0.7245 -0.3812  1.2046
 8434TIP3   OH246716   0.450   0.175  11.609  0.1892 -0.6149 -0.4126
 8434TIP3    H146717   0.428   0.259  11.650  1.3204  0.0946 -1.2046
 8434TIP3    H246718   0.427   0.109  11.675  0.4065  0.3995  0.7017
 8435TIP3   OH246719   3.112   3.795   3.820 -0.9460 -0.4138  0.1182
 8435TIP3    H146720   3.077   3.745   3.746 -0.2975  0.6430 -0.9406
 8435TIP3    H246721   3.037   3.844   3.853 -0.7903  0.9256 -1.3815
 8436TIP3   OH246722   4.647   3.842  10.876 -0.5030  0.2525  0.0015
 8436TIP3    H146723   4.711   3.821  10.808 -2.0623  1.3280 -1.9023
 8436TIP3    H246724   4.573   3.783  10.859 -0.2414 -0.7166  1.9281
 8437TIP3   OH246725   0.994   2.460  16.960  0.8025 -0.2293  0.0791
 8437TIP3    H146726   0.939   2.534  16.987 -0.3810 -1.6855  1.9046
 8437TIP3    H246727   1.079   2.500  16.939  0.5391  1.5547  2.0283
 8438TIP3   OH246728   3.582   1.359   3.595 -0.5394  0.2573 -0.0246
 8438TIP3    H146729   3.644   1.287   3.604 -0.7697 -0.0093 -0.5468
 8438TIP3    H246730   3.631   1.437   3.622 -0.9165 -0.3490  2.7766
 8439TIP3   OH246731   0.825   1.374   3.983 -0.8224 -0.4348  0.0020
 8439TIP3    H146732   0.861   1.414   3.904  2.7973  1.3653  2.3115
 8439TIP3    H246733   0.865   1.288   3.988 -0.3173 -0.1873  0.3023
 8440TIP3   OH246734   2.960   4.453  16.123 -0.4516 -0.0229  0.1346
 8440TIP3    H146735   2.946   4.544  16.096  0.7711  1.0379  2.7788
 8440TIP3    H246736   2.872   4.420  16.144 -1.0129  0.1873 -1.6705
 8441TIP3   OH246737   1.492   1.454   4.087 -0.4769 -0.1309 -0.5804
 8441TIP3    H146738   1.486   1.495   4.173  2.6862  1.1359 -0.8300
 8441TIP3    H246739   1.465   1.522   4.026  0.1618  0.0139 -0.7156
 8442TIP3   OH246740   6.401   3.750   2.017 -1.0916 -0.3804 -0.7877
 8442TIP3    H146741   6.443   3.693   1.953 -0.0255 -0.1752 -0.2864
 8442TIP3    H246742   6.445   3.835   2.007 -0.7944 -0.3891  0.3251
 8443TIP3   OH246743   5.176   4.615  16.458  0.0633 -0.3186  0.7471
 8443TIP3    H146744   5.191   4.543  16.520  2.2424  0.0899  0.7665
 8443TIP3    H246745   5.230   4.686  16.490  2.8274 -0.6802 -2.5471
 8444TIP3   OH246746   3.517   4.302   0.103 -0.2795 -0.4260  0.4745
 8444TIP3    H146747   3.582   4.242   0.065  0.8579  0.3684  1.1156
 8444TIP3    H246748   3.545   4.389   0.075 -0.5978  0.0014  1.4489
 8445TIP3   OH246749   0.406   4.584  12.156 -0.0455  0.0862 -0.2488
 8445TIP3    H146750   0.376   4.538  12.078 -0.4740 -0.9279  0.4859
 8445TIP3    H246751   0.448   4.516  12.209  0.0534  0.7058  0.4857
 8446TIP3   OH246752   1.004   4.284   3.688 -0.4916 -1.2214 -0.2715
 8446TIP3    H146753   1.036   4.194   3.696  2.2667 -0.4456 -1.3427
 8446TIP3    H246754   1.043   4.330   3.761 -0.9878 -0.6550 -0.3586
 8447TIP3   OH246755   6.083   3.980   2.953 -0.0605 -0.2265  0.1273
 8447TIP3    H146756   6.110   3.889   2.963 -1.6821 -0.7079  0.3950
 8447TIP3    H246757   6.099   4.019   3.039 -1.2901 -0.8218  0.6473
 8448TIP3   OH246758   3.114   2.639   5.501 -0.0470 -0.2013 -0.6281
 8448TIP3    H146759   3.163   2.672   5.577 -0.6153 -0.9128  0.0638
 8448TIP3    H246760   3.159   2.559   5.477 -0.2805 -0.3392 -0.6057
 8449TIP3   OH246761   4.357   4.112   2.970 -0.1150  0.1662 -0.4269
 8449TIP3    H146762   4.385   4.112   3.062 -0.0163 -1.1463 -0.4385
 8449TIP3    H246763   4.300   4.036   2.962 -0.1077  0.2501 -1.4639
 8450TIP3   OH246764   3.094   2.428  17.268  0.3572 -0.3334  0.6282
 8450TIP3    H146765   3.002   2.415  17.290  0.5166 -0.7552  1.0599
 8450TIP3    H246766   3.114   2.516  17.300 -0.4998  0.7295 -1.5584
 8451TIP3   OH246767   1.600   3.428  15.691 -0.2491  0.0861  0.4647
 8451TIP3    H146768   1.505   3.414  15.694 -0.3383  0.7824  1.1841
 8451TIP3    H246769   1.627   3.425  15.783  0.2083  1.2529  0.3850
 8452TIP3   OH246770   4.005   1.756  12.904  0.5078 -0.2202 -0.4101
 8452TIP3    H146771   3.937   1.754  12.837 -1.0549 -2.6379  1.0686
 8452TIP3    H246772   3.959   1.779  12.984  1.5266 -1.2433  0.5067
 8453TIP3   OH246773   3.414   0.063  16.090 -0.1646  0.1401  0.0045
 8453TIP3    H146774   3.365   0.007  16.030  0.5993 -0.1878 -0.3206
 8453TIP3    H246775   3.476   0.110  16.034  0.4973 -0.1024  0.5185
 8454TIP3   OH246776   1.467   4.366  16.338 -0.2080 -0.1395  0.2073
 8454TIP3    H146777   1.545   4.386  16.390  1.9312 -0.2664 -2.7615
 8454TIP3    H246778   1.447   4.275  16.359  0.8712 -0.3243  0.4887
 8455TIP3   OH246779   0.796   1.768  17.302  0.3878 -0.4086  0.7866
 8455TIP3    H146780   0.730   1.784  17.370 -0.2566 -0.0611  0.1013
 8455TIP3    H246781   0.778   1.835  17.235  1.0213 -0.7246  0.2860
 8456TIP3   OH246782   0.972   1.934  11.617  0.1141 -0.1848  0.0295
 8456TIP3    H146783   0.955   1.905  11.527  1.1725 -1.5923  0.2573
 8456TIP3    H246784   0.902   1.997  11.635 -1.1967 -1.2309 -1.1390
 8457TIP3   OH246785   4.684   1.467   5.300  0.0505 -0.3564  0.3511
 8457TIP3    H146786   4.650   1.381   5.325  0.8593 -0.5149  0.9549
 8457TIP3    H246787   4.772   1.449   5.267 -0.8237 -0.1032 -2.3584
 8458TIP3   OH246788   4.578   4.898  13.126 -0.2049 -0.3699 -0.0436
 8458TIP3    H146789   4.657   4.851  13.152  0.7905  0.5733 -1.1649
 8458TIP3    H246790   4.609   4.988  13.111 -1.8812  0.4780  1.3234
 8459TIP3   OH246791   3.327   6.767   3.226 -0.2634  0.0771 -0.1229
 8459TIP3    H146792   3.236   6.746   3.251 -0.7986  1.7519 -0.5556
 8459TIP3    H246793   3.380   6.715   3.286 -1.5078  0.3435  1.2766
 8460TIP3   OH246794   3.335   3.535   3.167  0.1590 -0.0277 -0.2771
 8460TIP3    H146795   3.339   3.616   3.116 -0.3942  0.4953  0.4980
 8460TIP3    H246796   3.286   3.475   3.111  0.3059  0.2603 -0.7255
 8461TIP3   OH246797   6.197   1.700  11.405  0.2627 -0.2315 -0.2411
 8461TIP3    H146798   6.221   1.655  11.325 -0.9390  0.1094 -0.8190
 8461TIP3    H246799   6.112   1.740  11.386 -0.3811 -0.7088  1.4133
 8462TIP3   OH246800   0.861   6.541   4.496 -0.5099 -0.1808 -0.1637
 8462TIP3    H146801   0.920   6.532   4.421  0.0216 -4.1847  0.5025
 8462TIP3    H246802   0.808   6.617   4.476  1.2949  0.4214 -3.3717
 8463TIP3   OH246803   0.800   2.032   0.770  0.4971 -0.4060  0.0161
 8463TIP3    H146804   0.858   2.038   0.846 -0.3228  0.4418  0.5975
 8463TIP3    H246805   0.760   2.119   0.764 -1.4950 -1.2528  0.2830
 8464TIP3   OH246806   4.066   1.365   1.652  0.1885 -0.4219 -0.4049
 8464TIP3    H146807   4.104   1.437   1.601 -1.4067  0.6779 -0.1371
 8464TIP3    H246808   4.080   1.389   1.743  0.3799 -0.8661 -0.3161
 8465TIP3   OH246809   3.161   1.546  14.899  0.5933  0.0059  0.1376
 8465TIP3    H146810   3.130   1.636  14.914 -0.6647 -0.5845  1.3373
 8465TIP3    H246811   3.082   1.493  14.904  1.6631 -1.5092  2.7250
 8466TIP3   OH246812   6.490   6.763  14.497 -0.4685  0.1268  0.3813
 8466TIP3    H146813   6.458   6.799  14.415  1.4934  0.8226 -0.1384
 8466TIP3    H246814   6.464   6.826  14.564 -1.3039 -0.0033  0.1919
 8467TIP3   OH246815   6.233   3.886   4.559 -0.2673  0.1087  0.1578
 8467TIP3    H146816   6.327   3.873   4.567  0.0635  2.0332 -0.1551
 8467TIP3    H246817   6.201   3.805   4.518  0.7704 -1.8096  2.8316
 8468TIP3   OH246818   4.349   2.192  16.906  0.8764  0.3602 -0.1555
 8468TIP3    H146819   4.292   2.147  16.843  2.3838 -2.4744  0.3417
 8468TIP3    H246820   4.422   2.225  16.853  0.7219  0.5277 -0.2651
 8469TIP3   OH246821   2.103   4.590  13.001 -0.9980 -0.5997 -0.0787
 8469TIP3    H146822   2.061   4.587  13.087  3.8116 -0.5316  2.6381
 8469TIP3    H246823   2.112   4.498  12.976 -2.2635 -0.6264 -0.5078
 8470TIP3   OH246824   4.747   5.466  13.230  0.2611 -0.1453 -0.2528
 8470TIP3    H146825   4.716   5.393  13.284 -0.1226 -0.3194 -0.7121
 8470TIP3    H246826   4.685   5.472  13.158  0.2236  0.7088 -0.1632
 8471TIP3   OH246827   1.909   1.103   3.740  0.4194  0.0969  0.1196
 8471TIP3    H146828   1.946   1.025   3.699 -1.9884 -0.0945 -1.8568
 8471TIP3    H246829   1.960   1.176   3.704 -0.4121 -0.2266 -1.7855
 8472TIP3   OH246830   1.643   5.463   5.618  0.3390 -0.4559  0.1756
 8472TIP3    H146831   1.673   5.492   5.704  0.7006  0.8728 -0.3759
 8472TIP3    H246832   1.548   5.475   5.621  0.0771 -2.4091  1.0918
 8473TIP3   OH246833   3.108   0.227   0.082 -0.1160 -0.1240 -0.2768
 8473TIP3    H146834   3.053   0.180   0.020  0.9153  0.4951 -1.7046
 8473TIP3    H246835   3.077   0.197   0.168 -2.5886  0.1105 -0.9892
 8474TIP3   OH246836   2.435   2.746   2.806 -0.3007 -0.3934 -0.4397
 8474TIP3    H146837   2.510   2.716   2.755  1.1115 -0.5198  1.5847
 8474TIP3    H246838   2.393   2.666   2.837 -0.8564 -0.3123 -0.9595
 8475TIP3   OH246839   1.198   3.319   1.185 -0.3946  0.3036  0.2069
 8475TIP3    H146840   1.198   3.318   1.089  0.2416  2.2511  0.1441
 8475TIP3    H246841   1.179   3.229   1.210 -0.5016 -0.2573 -1.7476
 8476TIP3   OH246842   2.752   4.110  11.815  0.7256  0.0258 -0.1600
 8476TIP3    H146843   2.726   4.036  11.869 -0.8710  0.0155 -0.8851
 8476TIP3    H246844   2.766   4.181  11.876 -0.2417 -0.2062  0.3506
 8477TIP3   OH246845   0.420   6.239  17.229 -0.1147  0.0510 -0.0133
 8477TIP3    H146846   0.362   6.167  17.205  0.4441 -0.7093  0.8918
 8477TIP3    H246847   0.379   6.316  17.188 -0.0182 -0.9399 -2.1206
 8478TIP3   OH246848   3.228   3.931  10.912 -0.5559 -0.5452  0.0642
 8478TIP3    H146849   3.206   3.874  10.985  0.2103 -1.0825 -0.1203
 8478TIP3    H246850   3.275   3.875  10.850 -1.7926 -0.2674 -1.1666
 8479TIP3   OH246851   6.367   4.942  11.510 -0.0496 -0.1123  0.0772
 8479TIP3    H146852   6.450   4.921  11.553  0.2198  0.8246  0.0485
 8479TIP3    H246853   6.374   5.036  11.489 -0.3216 -0.4328 -1.6572
 8480TIP3   OH246854   0.164   2.101  16.731 -1.0690  0.1503 -0.2147
 8480TIP3    H146855   0.215   2.029  16.695 -1.9694 -0.9004  0.5675
 8480TIP3    H246856   0.198   2.114  16.820  0.4156  2.0233 -0.9860
 8481TIP3   OH246857   5.649   4.594  12.048  0.1748  0.3805 -0.4228
 8481TIP3    H146858   5.656   4.616  12.141 -1.4384 -0.1042 -0.1550
 8481TIP3    H246859   5.579   4.530  12.044  0.3928  0.2011 -1.9625
 8482TIP3   OH246860   5.052   3.980   6.409  0.0034  0.5570  0.1137
 8482TIP3    H146861   5.077   4.022   6.491  1.6342 -0.4736  0.1933
 8482TIP3    H246862   4.998   3.906   6.435 -0.1081  0.6635  0.1900
 8483TIP3   OH246863   2.917   5.268   4.529 -0.3610  0.1623 -0.2379
 8483TIP3    H146864   2.963   5.201   4.579 -0.7792  1.0011  1.3395
 8483TIP3    H246865   2.979   5.297   4.463 -0.0733 -1.5513 -0.7628
 8484TIP3   OH246866   6.270   1.202  11.258 -0.4171 -0.1941 -0.3607
 8484TIP3    H146867   6.354   1.158  11.274  0.9069  2.0715 -0.5888
 8484TIP3    H246868   6.231   1.154  11.185  1.5402 -0.2674 -1.4297
 8485TIP3   OH246869   5.153   6.667   6.497 -0.3882 -0.0172  0.0920
 8485TIP3    H146870   5.133   6.599   6.561  1.4784  0.7704  1.5892
 8485TIP3    H246871   5.069   6.709   6.480 -0.9321 -0.1595  2.1517
 8486TIP3   OH246872   4.752   6.107   5.205  0.4900  0.4178 -0.1174
 8486TIP3    H146873   4.729   6.128   5.115  0.7359 -0.3999 -0.3835
 8486TIP3    H246874   4.752   6.191   5.251 -1.9327  0.6050 -0.3407
 8487TIP3   OH246875   4.720   2.248   4.977  0.3672 -0.0051  0.3312
 8487TIP3    H146876   4.690   2.191   4.907  1.2346  0.3771 -0.3746
 8487TIP3    H246877   4.661   2.324   4.973 -0.7616 -0.8011  1.2482
 8488TIP3   OH246878   5.095   4.219   1.939 -0.0584  0.1126 -0.0497
 8488TIP3    H146879   5.124   4.128   1.931 -0.4930  0.0524 -1.0523
 8488TIP3    H246880   5.002   4.217   1.916 -0.3469  0.6540  0.9590
 8489TIP3   OH246881   0.236   5.978  11.265  0.4181 -0.2886 -0.1341
 8489TIP3    H146882   0.317   5.950  11.309  2.7269  1.7506 -2.7037
 8489TIP3    H246883   0.237   5.931  11.182 -0.8634  0.0753 -0.3688
 8490TIP3   OH246884   3.090   1.793   5.899  0.0610 -0.2902 -0.1094
 8490TIP3    H146885   3.115   1.704   5.926 -2.4392 -0.8791  0.4889
 8490TIP3    H246886   3.065   1.783   5.807 -1.2216 -0.4590  0.2428
 8491TIP3   OH246887   5.294   2.600  12.220 -0.3961  0.2215 -0.1267
 8491TIP3    H146888   5.227   2.627  12.283 -0.8993 -2.0134  0.3582
 8491TIP3    H246889   5.341   2.528  12.263  0.7497  0.1505 -1.4163
 8492TIP3   OH246890   6.366   4.105  15.064 -0.2118 -0.4954 -0.1566
 8492TIP3    H146891   6.319   4.144  14.991  3.2597  0.2624 -2.2517
 8492TIP3    H246892   6.364   4.011  15.047 -2.2260 -0.6514  0.7153
 8493TIP3   OH246893   2.369   1.425   3.595 -0.0114 -0.0273  0.1151
 8493TIP3    H146894   2.354   1.334   3.623  1.5191 -0.1473  0.6411
 8493TIP3    H246895   2.402   1.469   3.673  1.5202  0.3731 -0.7052
 8494TIP3   OH246896   3.362   4.008   0.046 -0.0262  0.3553 -0.3887
 8494TIP3    H146897   3.364   4.074  -0.023 -0.3798 -0.5680 -1.3182
 8494TIP3    H246898   3.332   3.928   0.002 -0.6978 -0.1582  0.9307
 8495TIP3   OH246899   2.112   5.445   4.377 -0.4064 -0.7921  0.0225
 8495TIP3    H146900   2.180   5.430   4.443 -1.0576 -1.2863  0.6113
 8495TIP3    H246901   2.032   5.410   4.418 -1.3233  1.1508 -0.0152
 8496TIP3   OH246902   3.289   6.324  15.337  0.3883 -0.3378 -0.0267
 8496TIP3    H146903   3.325   6.412  15.323 -0.5768  0.3324  1.4871
 8496TIP3    H246904   3.210   6.321  15.285 -0.3895  0.2672  1.0778
 8497TIP3   OH246905   0.618   4.038   5.092 -0.3253  0.0759  0.4697
 8497TIP3    H146906   0.533   4.052   5.051  0.5833  0.8402 -1.2456
 8497TIP3    H246907   0.599   4.032   5.186 -2.7351 -3.5968 -0.0445
 8498TIP3   OH246908   3.872   2.655   0.563 -0.4974 -0.3192 -0.1998
 8498TIP3    H146909   3.804   2.629   0.626  0.5637 -0.9012  0.7493
 8498TIP3    H246910   3.907   2.737   0.598  0.6832 -1.0846  0.4824
 8499TIP3   OH246911   2.792   4.714  16.442  0.4027  0.7128 -0.1602
 8499TIP3    H146912   2.789   4.809  16.453  1.1753  0.6904  0.3194
 8499TIP3    H246913   2.723   4.695  16.379  1.0269  1.7286 -1.1855
 8500TIP3   OH246914   5.311   6.409   3.805 -0.5851  0.2224  0.4247
 8500TIP3    H146915   5.349   6.394   3.718  0.5309 -1.0075  1.1057
 8500TIP3    H246916   5.217   6.400   3.791 -0.2810 -3.4798 -0.0466
 8501TIP3   OH246917   0.878   5.997  16.053 -0.1902 -0.5567 -0.4014
 8501TIP3    H146918   0.951   6.020  16.111 -0.7111 -2.2779  1.0127
 8501TIP3    H246919   0.920   5.977  15.969  0.8281 -0.2590  0.0160
 8502TIP3   OH246920   5.085   0.186  14.726  0.1417  0.0432 -0.3002
 8502TIP3    H146921   5.015   0.120  14.730  0.2293 -0.0980 -0.8752
 8502TIP3    H246922   5.162   0.141  14.761  0.0681  0.0292 -0.1547
 8503TIP3   OH246923   0.330   3.571  14.045 -0.3814 -0.2785 -0.1281
 8503TIP3    H146924   0.386   3.540  13.974 -0.4548  0.9009 -0.7189
 8503TIP3    H246925   0.371   3.536  14.125  1.5185  0.9726 -0.4944
 8504TIP3   OH246926   0.349   4.817  16.506  0.0731  0.6359  0.5102
 8504TIP3    H146927   0.405   4.856  16.439 -1.7004  0.8396 -0.9365
 8504TIP3    H246928   0.378   4.726  16.512  1.3791  1.0582  0.7276
 8505TIP3   OH246929   0.235   0.951  14.632  0.8773 -0.1715 -0.0687
 8505TIP3    H146930   0.152   0.970  14.675  0.6960 -0.3997 -0.3188
 8505TIP3    H246931   0.290   1.027  14.652  0.9216 -0.4382  0.8875
 8506TIP3   OH246932   1.854   4.322   0.167 -0.1296  0.7663  0.0935
 8506TIP3    H146933   1.931   4.377   0.183  0.4113 -0.4883  2.0884
 8506TIP3    H246934   1.890   4.235   0.147 -1.0192  0.2467  0.6977
 8507TIP3   OH246935   0.174   4.243   2.056 -0.4696 -0.7490  0.5766
 8507TIP3    H146936   0.191   4.194   1.976 -0.8564  1.3517 -0.8791
 8507TIP3    H246937   0.078   4.245   2.063 -0.4311 -1.1073  1.2081
 8508TIP3   OH246938   0.319   2.073   2.265 -0.0993  0.4147 -0.2600
 8508TIP3    H146939   0.305   2.058   2.359  0.8054  1.8173  0.1302
 8508TIP3    H246940   0.413   2.090   2.258 -0.0903 -0.0832 -1.5010
 8509TIP3   OH246941   6.736   4.260  13.930 -0.3705 -0.4128  0.4149
 8509TIP3    H146942   6.790   4.182  13.921  1.2054  0.5190  1.3121
 8509TIP3    H246943   6.694   4.271  13.845  1.8634 -0.4758 -0.7643
 8510TIP3   OH246944   3.924   4.646  15.092 -0.0085  0.4750 -0.1675
 8510TIP3    H146945   3.863   4.690  15.032  0.8365 -0.0848 -1.4490
 8510TIP3    H246946   3.983   4.716  15.122  0.2020  0.5578 -0.7790
 8511TIP3   OH246947   6.190   2.933   3.066  0.6436  0.2703 -0.5279
 8511TIP3    H146948   6.217   3.019   3.098 -1.7588  1.0401 -0.3130
 8511TIP3    H246949   6.148   2.892   3.142 -0.7092  0.0898 -1.3271
 8512TIP3   OH246950   5.616   4.732   0.178  0.1581 -0.0193  0.3531
 8512TIP3    H146951   5.550   4.771   0.120 -0.6115 -0.9705  0.5607
 8512TIP3    H246952   5.565   4.687   0.245  1.0384 -0.2058  0.9130
 8513TIP3   OH246953   3.205   3.678  12.602  0.3550  0.1972 -0.5722
 8513TIP3    H146954   3.217   3.708  12.512  1.1523  1.6204 -0.0281
 8513TIP3    H246955   3.198   3.582  12.595  0.0686  0.3133 -2.1614
 8514TIP3   OH246956   2.327   3.342  14.226 -0.3953 -0.5247 -0.6091
 8514TIP3    H146957   2.243   3.383  14.207 -1.1967 -0.1463  3.0414
 8514TIP3    H246958   2.317   3.252  14.194 -2.4597 -0.6643  0.2606
 8515TIP3   OH246959   5.562   3.140  12.789  0.2388  0.0113  0.2885
 8515TIP3    H146960   5.520   3.139  12.875 -1.1957 -1.0645 -0.3864
 8515TIP3    H246961   5.541   3.055  12.751  1.8631 -0.0065 -0.6681
 8516TIP3   OH246962   0.927   5.578  16.752 -0.4752  0.5524  0.0181
 8516TIP3    H146963   0.833   5.580  16.734 -0.8993  1.5276  2.0632
 8516TIP3    H246964   0.957   5.666  16.731 -0.8194  1.4477  2.8087
 8517TIP3   OH246965   6.254   1.011   5.054 -0.1639 -0.3291 -0.5001
 8517TIP3    H146966   6.229   1.080   5.116 -2.5979 -0.6173 -1.0387
 8517TIP3    H246967   6.245   1.051   4.968  1.9792 -0.2953 -0.7397
 8518TIP3   OH246968   6.494   4.840  14.405 -0.5717  0.1254  0.2669
 8518TIP3    H146969   6.546   4.782  14.350  0.7318  2.5676 -1.2450
 8518TIP3    H246970   6.405   4.833  14.371 -0.7725 -1.9943  1.0690
 8519TIP3   OH246971   5.663   4.292   0.711 -0.3370 -0.2095  0.5070
 8519TIP3    H146972   5.573   4.317   0.689 -0.2844  0.5717  1.1309
 8519TIP3    H246973   5.701   4.264   0.628 -1.0021 -0.0597  0.1427
 8520TIP3   OH246974   4.966   2.852   4.578  0.8002 -0.3596 -0.2595
 8520TIP3    H146975   4.907   2.793   4.626  0.4274  0.4286  0.2722
 8520TIP3    H246976   5.021   2.892   4.645  1.2670 -0.3428 -0.6479
 8521TIP3   OH246977   1.710   1.683   2.212 -0.4016  0.0049  0.0262
 8521TIP3    H146978   1.635   1.742   2.224 -0.3520 -0.2544  1.9891
 8521TIP3    H246979   1.670   1.598   2.190 -0.8146 -0.3959  2.1058
 8522TIP3   OH246980   0.885   3.003  16.396  0.1824 -0.2925 -0.3879
 8522TIP3    H146981   0.967   3.020  16.350  1.0980  1.2000  1.6149
 8522TIP3    H246982   0.866   2.911  16.379  0.7178  0.0255 -3.1922
 8523TIP3   OH246983   3.322   6.179   4.755  0.3825  0.2515  0.0439
 8523TIP3    H146984   3.289   6.147   4.671  1.7371  0.4020 -0.5572
 8523TIP3    H246985   3.343   6.100   4.804  1.7162  0.1582 -0.6337
 8524TIP3   OH246986   3.610   4.082   0.995 -0.2203  0.5358 -0.6196
 8524TIP3    H146987   3.571   4.133   1.065 -0.1713 -1.1764  0.7190
 8524TIP3    H246988   3.694   4.125   0.977  0.9442 -0.3745  2.1498
 8525TIP3   OH246989   4.120   1.834  11.271  0.0739  1.2321 -0.2833
 8525TIP3    H146990   4.141   1.748  11.308  1.0771  1.0258 -1.2674
 8525TIP3    H246991   4.142   1.826  11.178 -1.4895  2.0199 -0.7627
 8526TIP3   OH246992   1.036   0.968   2.837 -0.2048 -0.2640  0.1707
 8526TIP3    H146993   1.102   1.028   2.803 -2.7096  3.3370  1.0649
 8526TIP3    H246994   1.011   0.915   2.762  1.4149  0.4573 -0.9441
 8527TIP3   OH246995   2.523   5.671  11.934 -0.6735  0.0294 -0.1267
 8527TIP3    H146996   2.474   5.732  11.878 -0.0587 -0.9721 -1.8324
 8527TIP3    H246997   2.456   5.628  11.987 -1.6544 -0.9999 -2.1070
 8528TIP3   OH246998   1.924   3.514  12.984  0.1601 -0.1014  0.4762
 8528TIP3    H146999   1.999   3.466  13.019  0.1618 -0.8640 -0.5584
 8528TIP3    H247000   1.855   3.500  13.049  0.7389  0.1837  1.1788
 8529TIP3   OH247001   0.580   4.770   5.753  0.0780 -0.3899  0.0906
 8529TIP3    H147002   0.594   4.768   5.659  1.5796  1.1524  0.2332
 8529TIP3    H247003   0.485   4.769   5.763 -0.1333  0.5574 -1.4863
 8530TIP3   OH247004   3.934   1.414  15.656  0.0074 -0.1966 -0.1036
 8530TIP3    H147005   3.897   1.336  15.697  0.0765 -0.3185 -0.2707
 8530TIP3    H247006   3.861   1.451  15.606 -0.3146  0.4290  0.8088
 8531TIP3   OH247007   2.223   4.729  12.115  0.2517  0.2767 -0.4491
 8531TIP3    H147008   2.293   4.667  12.096 -1.3863 -1.5896 -0.7339
 8531TIP3    H247009   2.153   4.706  12.054 -1.2489  0.9351  0.9460
 8532TIP3   OH247010   3.176   1.275   4.077 -0.2088 -0.8971 -0.2180
 8532TIP3    H147011   3.164   1.293   3.984 -2.2670  0.8676  0.3084
 8532TIP3    H247012   3.255   1.324   4.100  0.5293 -1.6435 -1.0759
 8533TIP3   OH247013   0.164   5.015  12.977  0.3298 -0.2169  0.2948
 8533TIP3    H147014   0.224   4.962  12.926  1.4213  0.6174  0.6899
 8533TIP3    H247015   0.219   5.061  13.040 -0.3860  2.3474 -0.8125
 8534TIP3   OH247016   1.596   1.312   3.208 -0.4139 -0.0772  0.4452
 8534TIP3    H147017   1.645   1.394   3.219  0.2001 -0.3756 -0.0060
 8534TIP3    H247018   1.629   1.255   3.277 -0.6498 -0.0295  0.5951
 8535TIP3   OH247019   1.349   4.398  14.278 -0.1243 -0.1628  0.1785
 8535TIP3    H147020   1.322   4.354  14.198  1.8944 -0.6788 -0.2900
 8535TIP3    H247021   1.350   4.491  14.256 -0.7631 -0.1986 -0.0073
 8536TIP3   OH247022   4.170   2.482  12.153 -0.1545  0.2966  0.0887
 8536TIP3    H147023   4.082   2.463  12.119  0.0142 -0.7341  0.2276
 8536TIP3    H247024   4.228   2.425  12.103  0.0955 -1.4082  2.1918
 8537TIP3   OH247025   3.176   5.970   4.597  0.2731 -0.0600 -0.4393
 8537TIP3    H147026   3.153   6.044   4.540  1.1215  2.8898  2.7477
 8537TIP3    H247027   3.092   5.941   4.633  0.0837  0.5616 -0.3658
 8538TIP3   OH247028   5.136   6.537   3.444 -0.1431 -0.1128 -0.2359
 8538TIP3    H147029   5.095   6.509   3.526  0.5479  1.3536  0.6470
 8538TIP3    H247030   5.082   6.498   3.375 -0.3997 -1.8733  0.8859
 8539TIP3   OH247031   6.287   5.377  17.221  0.0970  0.2633  0.2379
 8539TIP3    H147032   6.236   5.453  17.191 -0.1422  0.4408  1.0928
 8539TIP3    H247033   6.353   5.414  17.279  0.1683 -0.1565  0.4275
 8540TIP3   OH247034   4.462   5.038   1.948 -0.4688  0.2965  0.3688
 8540TIP3    H147035   4.502   5.050   2.034  2.9512 -0.1019 -0.9967
 8540TIP3    H247036   4.431   5.125   1.923  0.4637  0.8572  1.1192
 8541TIP3   OH247037   0.154   1.088  12.242 -0.5569 -0.4202  0.3800
 8541TIP3    H147038   0.154   1.123  12.153  0.8529  0.0236  0.5370
 8541TIP3    H247039   0.070   1.041  12.249 -0.6281 -0.5888 -1.2169
 8542TIP3   OH247040   1.721   0.359  16.528  0.1904  0.2720  0.0187
 8542TIP3    H147041   1.653   0.425  16.542 -0.6588 -0.3087 -1.1458
 8542TIP3    H247042   1.801   0.409  16.515 -0.2434  1.0305  0.2074
 8543TIP3   OH247043   1.959   4.002   6.308 -0.0644 -0.3638  0.2751
 8543TIP3    H147044   1.930   3.912   6.291  0.7723 -0.2659 -2.0818
 8543TIP3    H247045   2.038   3.992   6.362  0.1478 -1.0696 -0.1528
 8544TIP3   OH247046   3.676   5.951   3.348  0.4677 -0.4961 -0.0045
 8544TIP3    H147047   3.651   5.858   3.353 -0.0035 -0.3450  0.4115
 8544TIP3    H247048   3.714   5.970   3.434 -1.0961  0.1758  0.5702
 8545TIP3   OH247049   4.538   3.399  11.966 -0.5358  0.1486 -0.0061
 8545TIP3    H147050   4.572   3.462  12.030  0.6539 -1.8715  1.4523
 8545TIP3    H247051   4.597   3.406  11.892  0.5951 -0.3776  0.8194
 8546TIP3   OH247052   1.214   1.074   0.678 -0.2667  0.0186  0.3470
 8546TIP3    H147053   1.125   1.059   0.710  0.6398 -3.9078  1.5867
 8546TIP3    H247054   1.269   1.063   0.756  1.4272  0.5286 -0.7209
 8547TIP3   OH247055   6.165   5.098  16.115 -0.0201  0.1326  0.0442
 8547TIP3    H147056   6.224   5.023  16.102 -0.4556 -0.3017  0.4860
 8547TIP3    H247057   6.222   5.174  16.112  0.4024 -0.1951 -0.6606
 8548TIP3   OH247058   0.973   3.330   5.355  0.9342 -0.6771  0.0190
 8548TIP3    H147059   0.966   3.250   5.407  0.1942 -0.2757  0.5689
 8548TIP3    H247060   0.948   3.400   5.416 -1.7547 -0.3549 -1.2903
 8549TIP3   OH247061   3.994   6.601   5.357 -0.3720 -0.2192 -0.0269
 8549TIP3    H147062   3.977   6.584   5.450  0.4513 -1.1187 -0.0235
 8549TIP3    H247063   4.038   6.686   5.356 -0.7564 -0.0137  0.3729
 8550TIP3   OH247064   6.237   1.607   0.423 -0.5066 -0.1136 -0.2743
 8550TIP3    H147065   6.328   1.632   0.408 -0.0728 -1.0383  0.6984
 8550TIP3    H247066   6.197   1.611   0.336  0.4666  0.2732 -0.7248
 8551TIP3   OH247067   1.834   5.015   2.551  0.0187 -0.1362 -0.0233
 8551TIP3    H147068   1.786   5.088   2.591 -0.2414 -1.3276  1.9208
 8551TIP3    H247069   1.793   5.005   2.465  0.3054  2.2085 -0.4957
 8552TIP3   OH247070   3.940   6.167  15.178  0.2615 -0.0566  0.1837
 8552TIP3    H147071   4.026   6.126  15.189  0.8084  1.4538  1.9731
 8552TIP3    H247072   3.953   6.258  15.201 -2.0977 -0.0677  1.9539
 8553TIP3   OH247073   2.216   1.986   1.826 -0.1075 -0.1930 -0.5192
 8553TIP3    H147074   2.223   2.081   1.834 -3.3191  0.0804  0.9399
 8553TIP3    H247075   2.223   1.954   1.916  1.3012 -1.4261 -1.0307
 8554TIP3   OH247076   4.406   0.516   0.354 -0.2428  0.7378 -0.2046
 8554TIP3    H147077   4.449   0.483   0.276 -2.5298 -0.9270 -0.8836
 8554TIP3    H247078   4.445   0.467   0.426 -0.2959 -0.0024 -0.6755
 8555TIP3   OH247079   6.464   5.729  13.038 -0.1316  0.3740 -0.0751
 8555TIP3    H147080   6.498   5.656  12.986  0.5126  2.0647 -2.1566
 8555TIP3    H247081   6.384   5.755  12.993 -2.3759 -1.1749  2.6652
 8556TIP3   OH247082   3.832   5.634   2.814  0.1202 -0.6103  0.4319
 8556TIP3    H147083   3.768   5.655   2.883  0.7988  0.6771  0.6976
 8556TIP3    H247084   3.847   5.540   2.823 -2.7841 -1.2574 -0.5588
 8557TIP3   OH247085   3.714   5.682   1.237 -0.3625 -0.2455  0.1991
 8557TIP3    H147086   3.787   5.643   1.286  0.5221  0.5506 -0.4636
 8557TIP3    H247087   3.672   5.607   1.194  0.1453 -0.6957  0.4665
 8558TIP3   OH247088   6.598   3.878  16.797 -0.7215  1.2676 -0.0711
 8558TIP3    H147089   6.624   3.923  16.877 -2.5373  3.3352 -0.5571
 8558TIP3    H247090   6.680   3.869  16.747  0.5616 -0.6119  2.1522
 8559TIP3   OH247091   3.178   2.328   4.390 -0.3361  0.4810  0.3374
 8559TIP3    H147092   3.261   2.302   4.431  0.5922  0.2479 -1.5956
 8559TIP3    H247093   3.153   2.253   4.336 -2.1674  0.3095  1.3316
 8560TIP3   OH247094   4.938   3.835  16.467 -0.0970  0.1150  0.3660
 8560TIP3    H147095   4.919   3.927  16.452 -0.7967 -0.2193 -0.8808
 8560TIP3    H247096   4.966   3.831  16.559  0.3294  1.6125  0.3191
 8561TIP3   OH247097   2.392   2.778   4.565  0.3430 -0.0385  0.6945
 8561TIP3    H147098   2.486   2.798   4.564  0.5869 -0.9264  2.1956
 8561TIP3    H247099   2.388   2.683   4.554 -0.4147  0.0130  0.4368
 8562TIP3   OH247100   2.429   5.777   1.587 -0.2881  0.2100  0.1570
 8562TIP3    H147101   2.364   5.760   1.518 -1.4584 -1.8507  1.6576
 8562TIP3    H247102   2.510   5.737   1.553 -1.3446 -2.6236  0.6946
 8563TIP3   OH247103   3.784   4.339  14.860 -0.3496 -0.0526  0.3175
 8563TIP3    H147104   3.848   4.268  14.849 -0.2767 -0.2331  1.7309
 8563TIP3    H247105   3.758   4.333  14.952 -0.6066  1.5460  0.3672
 8564TIP3   OH247106   1.715   3.641  12.484  0.2408 -0.0762  0.0034
 8564TIP3    H147107   1.706   3.569  12.545 -0.8966  0.4831  0.5092
 8564TIP3    H247108   1.810   3.654  12.477  0.3933  0.1661  2.0249
 8565TIP3   OH247109   1.966   0.750  16.480  0.1121  0.7810 -0.4192
 8565TIP3    H147110   2.007   0.765  16.395 -1.2199  0.2243 -1.1891
 8565TIP3    H247111   1.873   0.764  16.465 -0.1560  0.6152  0.9386
 8566TIP3   OH247112   2.169   0.864  12.840  0.3267 -0.1113 -0.4692
 8566TIP3    H147113   2.159   0.952  12.876  1.1559 -0.0510 -0.3631
 8566TIP3    H247114   2.249   0.831  12.880 -1.5289 -2.1195  1.9734
 8567TIP3   OH247115   2.783   3.224  12.321 -0.9334 -0.0790  0.0954
 8567TIP3    H147116   2.787   3.222  12.226 -0.7275 -2.5231  0.0991
 8567TIP3    H247117   2.874   3.229  12.349 -0.8569 -1.3270  0.1304
 8568TIP3   OH247118   6.201   3.764   2.406 -0.1186  0.4809 -0.6291
 8568TIP3    H147119   6.194   3.858   2.389 -1.3688  0.4700 -0.3005
 8568TIP3    H247120   6.251   3.757   2.487  2.7658  0.6853 -2.2629
 8569TIP3   OH247121   5.944   2.261   4.102 -0.1353 -0.0737 -0.3026
 8569TIP3    H147122   5.948   2.355   4.119 -1.6490  0.0862 -0.7388
 8569TIP3    H247123   5.853   2.244   4.080  0.5908 -1.2033 -2.8604
 8570TIP3   OH247124   5.683   0.968   3.727  0.0463  0.2201  0.3594
 8570TIP3    H147125   5.731   1.042   3.690  1.5586 -1.7394 -1.9601
 8570TIP3    H247126   5.730   0.891   3.695 -2.9716 -1.8134  0.4048
 8571TIP3   OH247127   1.643   5.540   2.606 -0.1018  0.1042  0.9007
 8571TIP3    H147128   1.588   5.515   2.680 -1.7558 -0.4662 -0.4692
 8571TIP3    H247129   1.648   5.461   2.551 -0.3784  1.0034 -0.4765
 8572TIP3   OH247130   1.691   5.532   0.418  0.1419 -0.3118  0.3299
 8572TIP3    H147131   1.605   5.513   0.381  0.1646 -2.8630  1.4101
 8572TIP3    H247132   1.703   5.626   0.403 -1.6407 -0.3874 -2.2617
 8573TIP3   OH247133   2.811   2.506  15.234 -0.6050  0.1941  0.0154
 8573TIP3    H147134   2.719   2.534  15.230 -0.6688  0.5547  2.4535
 8573TIP3    H247135   2.816   2.450  15.311  0.8928 -1.2852 -1.0928
 8574TIP3   OH247136   3.057   2.471   2.758  0.3666 -0.0191 -0.0739
 8574TIP3    H147137   3.014   2.385   2.755 -2.1646  1.1377 -0.3150
 8574TIP3    H247138   3.049   2.504   2.669 -1.1242  1.4806  0.5584
 8575TIP3   OH247139   6.164   4.279   0.638  0.1836  0.2669 -0.2009
 8575TIP3    H147140   6.255   4.307   0.628  0.4086 -0.6916 -0.8714
 8575TIP3    H247141   6.164   4.186   0.617 -0.7296 -0.0595  1.0885
 8576TIP3   OH247142   6.413   3.480   1.067 -0.0120  0.1418 -0.1222
 8576TIP3    H147143   6.391   3.388   1.081  1.8857 -0.7982 -2.5075
 8576TIP3    H247144   6.486   3.496   1.127  1.4809 -0.8328 -1.5689
 8577TIP3   OH247145   0.400   3.866  13.736 -0.1468 -0.0047 -0.0306
 8577TIP3    H147146   0.386   3.945  13.683  0.7528 -0.6110 -1.2098
 8577TIP3    H247147   0.481   3.829  13.702 -1.2131 -2.1453 -0.4032
 8578TIP3   OH247148   5.256   4.201   1.612 -0.0018 -0.6443  0.7094
 8578TIP3    H147149   5.172   4.156   1.605  0.1071 -0.7858  0.2895
 8578TIP3    H247150   5.237   4.279   1.664 -0.3082 -0.8818  0.9546
 8579TIP3   OH247151   1.046   2.756   3.611  0.6758  0.4104  0.0664
 8579TIP3    H147152   1.063   2.737   3.519 -1.7243  0.8321 -0.5422
 8579TIP3    H247153   1.038   2.851   3.614 -0.5055  0.3174  0.4220
 8580TIP3   OH247154   1.688   4.365   1.857  0.0953  0.2502  0.0914
 8580TIP3    H147155   1.779   4.396   1.863  0.5249 -0.6932 -1.1019
 8580TIP3    H247156   1.689   4.302   1.785 -1.3848 -0.2466  0.4691
 8581TIP3   OH247157   5.760   6.196   3.744 -0.1215  0.2063 -0.4265
 8581TIP3    H147158   5.700   6.123   3.729  0.7194 -0.4204 -0.7898
 8581TIP3    H247159   5.844   6.167   3.708  0.4595  0.9916  0.2383
 8582TIP3   OH247160   6.404   1.692  13.510 -0.1302  0.0459 -0.1935
 8582TIP3    H147161   6.334   1.632  13.486 -1.0728  1.1440 -0.2400
 8582TIP3    H247162   6.485   1.642  13.492 -0.8628 -0.8388 -1.1666
 8583TIP3   OH247163   5.613   3.770   3.004  0.1123 -0.2481  0.0322
 8583TIP3    H147164   5.520   3.754   2.986  0.5102 -1.2634 -1.2714
 8583TIP3    H247165   5.620   3.768   3.099 -1.1252 -0.5700  0.1335
 8584TIP3   OH247166   1.025   3.396  17.067  0.5978  0.3250  0.0356
 8584TIP3    H147167   1.060   3.421  16.981 -0.1951  3.3692  0.4949
 8584TIP3    H247168   1.073   3.450  17.129  0.7504 -1.4309  1.5087
 8585TIP3   OH247169   2.932   1.108   2.851 -0.1353  0.1969  0.0083
 8585TIP3    H147170   2.922   1.057   2.932 -1.5365  1.5064  0.7219
 8585TIP3    H247171   2.926   1.043   2.781  2.0715 -1.0988  0.9175
 8586TIP3   OH247172   4.911   4.206   3.490 -0.0023  0.4424 -0.3765
 8586TIP3    H147173   4.953   4.257   3.560  0.7169  0.5197 -0.8445
 8586TIP3    H247174   4.964   4.126   3.484 -1.0312 -0.3008  0.2488
 8587TIP3   OH247175   3.922   1.949  11.917 -0.2535 -0.1040 -0.7617
 8587TIP3    H147176   3.977   1.952  11.995 -1.4104 -1.8436  0.2214
 8587TIP3    H247177   3.983   1.938  11.844  0.7946  0.4399  0.0107
 8588TIP3   OH247178   2.655   2.053  14.079  0.0471  0.8470 -0.2914
 8588TIP3    H147179   2.700   1.969  14.067  0.5842  0.7675  1.8646
 8588TIP3    H247180   2.725   2.115  14.098 -0.4606  1.5183 -0.5779
 8589TIP3   OH247181   2.763   6.399   4.200  0.3486  0.0247  0.5515
 8589TIP3    H147182   2.756   6.483   4.246 -0.8549  0.0271  0.3951
 8589TIP3    H247183   2.853   6.369   4.218  0.6134  1.0735  1.0634
 8590TIP3   OH247184   1.986   1.147  17.075  0.4802  0.5761 -0.2144
 8590TIP3    H147185   2.066   1.094  17.074  0.1399  0.0422 -1.3477
 8590TIP3    H247186   1.981   1.185  16.987  0.3945  2.0305  0.3957
 8591TIP3   OH247187   6.456   4.677   4.595 -0.3995  0.4650 -0.0814
 8591TIP3    H147188   6.460   4.675   4.690 -2.5363 -0.5293  0.0267
 8591TIP3    H247189   6.548   4.668   4.567  0.1884  0.0882  1.8547
 8592TIP3   OH247190   0.241   4.414   5.208  0.2992  0.0796 -0.1493
 8592TIP3    H147191   0.168   4.368   5.250  0.8399  0.3311  1.0882
 8592TIP3    H247192   0.318   4.388   5.257  0.9738  0.2725 -1.0883
 8593TIP3   OH247193   1.727   3.464  13.178  0.4138  0.3955 -0.1466
 8593TIP3    H147194   1.710   3.487  13.270 -0.7638  0.4680 -0.3662
 8593TIP3    H247195   1.695   3.374  13.170  0.5739  0.3673 -0.4783
 8594TIP3   OH247196   5.473   2.868   4.210  0.2479  0.3138  0.0878
 8594TIP3    H147197   5.541   2.879   4.277  1.3442  0.4185 -1.0163
 8594TIP3    H247198   5.500   2.926   4.139  0.2319 -1.3216 -1.3099
 8595TIP3   OH247199   0.588   2.713   3.077 -0.1480 -0.4480  0.1375
 8595TIP3    H147200   0.578   2.621   3.104 -0.6472 -0.6618 -0.7234
 8595TIP3    H247201   0.578   2.710   2.981 -0.7288  0.5772  0.1626
 8596TIP3   OH247202   4.911   3.205  13.406 -0.1940  0.2282 -0.3256
 8596TIP3    H147203   4.978   3.214  13.338  1.2501 -0.3892  0.9483
 8596TIP3    H247204   4.935   3.125  13.453 -0.7585  0.9579  1.2962
 8597TIP3   OH247205   0.888   0.171   4.135  0.1655  0.0207  0.4345
 8597TIP3    H147206   0.855   0.202   4.051  0.6608 -0.4023  0.0779
 8597TIP3    H247207   0.944   0.242   4.167  2.1303 -0.8603 -0.8623
 8598TIP3   OH247208   3.319   2.657   0.705 -0.6669 -0.1422  0.1148
 8598TIP3    H147209   3.339   2.585   0.765 -1.9281 -0.5667  0.0735
 8598TIP3    H247210   3.384   2.650   0.636 -0.8169 -1.3163  0.0703
 8599TIP3   OH247211   0.043   5.403   4.956  0.5046  0.5922 -0.4898
 8599TIP3    H147212  -0.044   5.364   4.954  0.6052  0.3577 -2.8507
 8599TIP3    H247213   0.045   5.462   4.881  2.1587  1.0836 -0.0994
 8600TIP3   OH247214   1.947   3.783   1.927  0.1702 -0.4921 -0.3871
 8600TIP3    H147215   1.961   3.710   1.867  1.6491  0.9990 -1.9656
 8600TIP3    H247216   1.883   3.839   1.883  0.0058 -0.1981  0.2110
 8601TIP3   OH247217   6.530   1.290   2.315  0.2312 -0.2445  0.0921
 8601TIP3    H147218   6.504   1.359   2.254 -1.2775 -0.4624  0.4703
 8601TIP3    H247219   6.469   1.218   2.298  2.8577 -2.2810 -1.5716
 8602TIP3   OH247220   6.336   4.655  14.618  0.2011  0.3587  0.2814
 8602TIP3    H147221   6.326   4.563  14.639 -0.9954  0.1864 -0.9226
 8602TIP3    H247222   6.398   4.657  14.545 -0.3282  0.4310 -0.1743
 8603TIP3   OH247223   2.088   3.078   2.992 -0.2834  0.0390 -0.3243
 8603TIP3    H147224   2.019   3.071   2.926  0.1367  3.4018 -1.3399
 8603TIP3    H247225   2.164   3.111   2.944  0.1308  2.3284  1.6777
 8604TIP3   OH247226   3.040   0.229   5.666  0.3934  0.1211 -0.0760
 8604TIP3    H147227   2.993   0.297   5.618  1.7879 -0.1578 -1.9100
 8604TIP3    H247228   3.102   0.278   5.721  0.2647  0.3731 -0.1518
 8605TIP3   OH247229   4.493   4.216  13.441  0.1241  0.0785 -0.2152
 8605TIP3    H147230   4.399   4.217  13.425 -0.1620 -0.3189  1.3327
 8605TIP3    H247231   4.514   4.304  13.471  0.2523  0.1660 -0.5563
 8606TIP3   OH247232   1.552   0.527  12.908  0.5004 -0.8532  0.1491
 8606TIP3    H147233   1.533   0.519  13.001  0.2732 -0.9393  0.0963
 8606TIP3    H247234   1.575   0.439  12.880  0.7317 -0.7958  0.1599
 8607TIP3   OH247235   6.717   1.409  14.759  1.1029 -0.1085  0.2429
 8607TIP3    H147236   6.655   1.474  14.792  0.1052 -1.7214  1.7041
 8607TIP3    H247237   6.719   1.425  14.664 -1.3937  0.1851  0.1644
 8608TIP3   OH247238   1.056   0.156   4.831  0.3923  0.3780  0.0957
 8608TIP3    H147239   1.143   0.118   4.846  1.0909  2.4075  1.8006
 8608TIP3    H247240   1.055   0.179   4.739  2.2690  1.6078  0.3317
 8609TIP3   OH247241   6.663   3.645  13.251  0.4624 -0.2124 -0.0759
 8609TIP3    H147242   6.684   3.715  13.313  2.3702 -1.5056  0.8152
 8609TIP3    H247243   6.601   3.590  13.299 -0.2399  0.2812 -0.3969
 8610TIP3   OH247244   6.734   3.778   5.548  0.7697  0.1642  0.2138
 8610TIP3    H147245   6.742   3.705   5.487 -0.5301  0.6978 -0.6277
 8610TIP3    H247246   6.779   3.850   5.505  0.3526  0.3907  0.1634
 8611TIP3   OH247247   1.586   4.483  12.013  0.3182  0.2855  0.3762
 8611TIP3    H147248   1.639   4.437  12.078  2.3108  2.0820  0.1602
 8611TIP3    H247249   1.647   4.545  11.972 -1.2845  0.4399 -1.9981
 8612TIP3   OH247250   3.597   5.566  14.023  0.4583  0.2968  0.4360
 8612TIP3    H147251   3.529   5.503  13.998  1.1340  0.7084 -2.8054
 8612TIP3    H247252   3.566   5.603  14.106 -2.3492 -0.8096 -0.0150
 8613TIP3   OH247253   6.320   5.023   5.807 -0.5748 -0.1058 -0.0460
 8613TIP3    H147254   6.309   4.951   5.745  0.5931  0.3142 -0.7688
 8613TIP3    H247255   6.387   4.992   5.868 -2.2294 -0.8122  1.5098
 8614TIP3   OH247256   5.158   0.676  12.099 -0.3940  0.2942  0.3997
 8614TIP3    H147257   5.113   0.743  12.047 -2.4748 -0.1676  1.5117
 8614TIP3    H247258   5.224   0.724  12.148 -1.9323  1.6320  1.2806
 8615TIP3   OH247259   3.688   3.608   3.447  0.1320  0.4460 -0.1447
 8615TIP3    H147260   3.723   3.530   3.490 -0.9995  1.6286  3.1783
 8615TIP3    H247261   3.593   3.594   3.446  0.0078  1.2759 -0.6044
 8616TIP3   OH247262   0.782   3.677   1.316 -0.1188 -0.5634 -0.0622
 8616TIP3    H147263   0.710   3.677   1.252 -0.4659 -1.9332  0.3036
 8616TIP3    H247264   0.852   3.629   1.272  0.3614  0.2193 -0.1685
 8617TIP3   OH247265   0.974   3.147   5.621 -0.4395  0.7907  0.4752
 8617TIP3    H147266   0.931   3.221   5.663 -2.2756 -0.4248  0.8311
 8617TIP3    H247267   0.965   3.075   5.683 -1.4879 -0.5495 -1.1455
 8618TIP3   OH247268   5.457   0.619   5.827 -0.1383  0.1472  0.3078
 8618TIP3    H147269   5.371   0.657   5.811  0.0933 -0.0652 -1.5656
 8618TIP3    H247270   5.453   0.531   5.790  1.0765  0.3673 -0.4221
 8619TIP3   OH247271   3.763   4.403   4.749 -0.7817  0.0797  0.0315
 8619TIP3    H147272   3.706   4.395   4.825  1.4309 -0.0654  1.7996
 8619TIP3    H247273   3.725   4.474   4.697 -2.3486  0.1977  1.2849
 8620TIP3   OH247274   0.684   5.668   1.349 -0.5986  0.7288  0.2567
 8620TIP3    H147275   0.748   5.638   1.284  0.2842  1.6265  0.6776
 8620TIP3    H247276   0.731   5.664   1.432 -1.9572 -1.1789  1.0084
 8621TIP3   OH247277   3.227   0.254   5.309 -0.0452 -0.0982  0.0483
 8621TIP3    H147278   3.244   0.344   5.281 -2.1445  0.3872  0.1998
 8621TIP3    H247279   3.143   0.232   5.269 -0.8367 -1.0524  2.1112
 8622TIP3   OH247280   0.080   4.808   1.333 -0.1606  0.5170  0.1043
 8622TIP3    H147281   0.122   4.762   1.260 -0.4809  1.4858 -0.7071
 8622TIP3    H247282   0.150   4.823   1.396  0.6936  1.9411 -1.1425
 8623TIP3   OH247283   4.814   0.939   1.896  0.4056 -0.1127 -0.2007
 8623TIP3    H147284   4.762   0.864   1.868  0.6796 -1.6950  3.1006
 8623TIP3    H247285   4.899   0.926   1.853 -0.2731 -0.3528 -1.5181
 8624TIP3   OH247286   6.677   1.583   2.414  0.4440 -0.1068 -0.0216
 8624TIP3    H147287   6.725   1.626   2.485 -0.2588 -1.6222  1.4427
 8624TIP3    H247288   6.672   1.491   2.440 -0.0128 -0.6813 -1.9596
 8625TIP3   OH247289   3.768   1.103   0.092  0.4447  0.0683  0.2600
 8625TIP3    H147290   3.721   1.020   0.107  0.6211  0.0872  0.9263
 8625TIP3    H247291   3.839   1.102   0.156  0.2070  0.9198  0.5402
 8626TIP3   OH247292   6.684   5.751   5.741 -0.4315  0.3401  0.2377
 8626TIP3    H147293   6.594   5.782   5.730 -0.9055 -0.6693  1.1496
 8626TIP3    H247294   6.677   5.656   5.747  0.6528  0.2766  0.7871
 8627TIP3   OH247295   2.271   2.670   4.173  0.7248 -0.1326  0.7461
 8627TIP3    H147296   2.222   2.615   4.111  0.5268  0.7293  0.1202
 8627TIP3    H247297   2.357   2.681   4.133  0.6993  0.1682  0.7702
 8628TIP3   OH247298   2.584   5.354   1.360 -0.1509 -0.1746  0.6950
 8628TIP3    H147299   2.524   5.425   1.383  0.9163  0.5328  1.4071
 8628TIP3    H247300   2.628   5.384   1.281  0.2982 -0.0268  0.9940
 8629TIP3   OH247301   4.570   1.166  17.074  0.4349 -0.4684  0.2783
 8629TIP3    H147302   4.481   1.200  17.077  1.6107  2.9996 -0.0785
 8629TIP3    H247303   4.598   1.164  17.165 -0.0126 -1.7120  0.4058
 8630TIP3   OH247304   6.381   3.348  12.981 -0.4406 -0.0906 -0.8825
 8630TIP3    H147305   6.297   3.385  13.008  0.2348  1.2411 -0.5087
 8630TIP3    H247306   6.429   3.336  13.063 -0.4411 -1.3241 -1.0489
 8631TIP3   OH247307   1.888   6.113   3.231 -0.4942 -0.0884  0.7263
 8631TIP3    H147308   1.809   6.150   3.269 -2.8662 -1.4234 -2.4956
 8631TIP3    H247309   1.913   6.042   3.291 -0.8164  1.2534  2.5221
 8632TIP3   OH247310   0.374   2.140   2.679  0.2935 -0.0814  0.5164
 8632TIP3    H147311   0.460   2.155   2.639  0.3975  0.9442  1.0827
 8632TIP3    H247312   0.355   2.048   2.662  0.2131  0.3397 -2.0845
 8633TIP3   OH247313   3.201   0.981  16.723 -0.4491 -0.1100  0.3635
 8633TIP3    H147314   3.120   0.958  16.769 -0.5038 -0.0225  0.3092
 8633TIP3    H247315   3.180   0.973  16.630 -0.5814  0.5489  0.3329
 8634TIP3   OH247316   2.451   5.934  14.100 -0.0427 -0.0950  0.0762
 8634TIP3    H147317   2.373   5.927  14.044 -1.5736  0.3063  2.0690
 8634TIP3    H247318   2.479   5.843  14.112 -1.4522 -0.4428  0.9799
 8635TIP3   OH247319   1.890   4.087   5.346 -0.1905  0.1005 -0.4196
 8635TIP3    H147320   1.800   4.055   5.344 -0.1316 -0.1243  0.3204
 8635TIP3    H247321   1.943   4.010   5.323  0.0035 -0.5841  2.1109
 8636TIP3   OH247322   6.264   3.014   2.031  0.1967  0.3108 -0.2415
 8636TIP3    H147323   6.257   2.922   2.055 -1.3008  0.3514 -0.4714
 8636TIP3    H247324   6.356   3.036   2.048  0.0129 -0.5484  2.1808
 8637TIP3   OH247325   1.957   4.411   1.396  0.2461 -0.0073  0.0806
 8637TIP3    H147326   1.868   4.426   1.428  0.2239 -0.8024  0.4118
 8637TIP3    H247327   2.009   4.481   1.436  0.5667 -1.9618  3.3664
 8638TIP3   OH247328   0.347   5.383   3.062 -0.1909 -0.3531  0.4638
 8638TIP3    H147329   0.378   5.412   2.977  0.7683 -1.1628  0.5198
 8638TIP3    H247330   0.354   5.460   3.118  0.0040 -0.0501  0.0222
 8639TIP3   OH247331   3.948   1.842   3.283 -0.3929 -1.1852  0.1586
 8639TIP3    H147332   3.884   1.839   3.212 -0.7653  1.9506  0.2088
 8639TIP3    H247333   3.895   1.834   3.363 -0.5765 -0.1612  0.1560
 8640TIP3   OH247334   4.167   1.068  15.592  0.1369  0.0872  0.1580
 8640TIP3    H147335   4.247   1.016  15.585 -1.2560 -2.4267  1.6773
 8640TIP3    H247336   4.109   1.031  15.525 -0.3596  0.7652  0.2031
 8641TIP3   OH247337   0.953   2.458   3.496  0.2145  0.3077  0.0397
 8641TIP3    H147338   1.026   2.421   3.546 -0.7709 -1.0851  0.5080
 8641TIP3    H247339   0.926   2.536   3.545  1.4254  0.8969 -0.1960
 8642TIP3   OH247340   0.600   2.249  12.460  0.2352  0.3966  0.0842
 8642TIP3    H147341   0.619   2.224  12.551 -0.8596  0.8287  0.4462
 8642TIP3    H247342   0.653   2.327  12.445  1.1320 -0.2067  0.0320
 8643TIP3   OH247343   5.619   3.738   0.256 -0.2866  0.6193  0.3315
 8643TIP3    H147344   5.605   3.804   0.188  1.4263 -1.3874 -2.2224
 8643TIP3    H247345   5.653   3.787   0.331 -2.3572  2.9816 -0.1495
 8644TIP3   OH247346   6.394   2.075  11.932  0.4253 -0.0539  0.2363
 8644TIP3    H147347   6.460   2.010  11.911  2.4488  1.8546  0.3277
 8644TIP3    H247348   6.397   2.082  12.028  0.6060  0.5616  0.1862
 8645TIP3   OH247349   0.578   4.701   3.579  0.2281  0.3194 -0.4364
 8645TIP3    H147350   0.485   4.679   3.568  0.4071  0.4989 -2.8133
 8645TIP3    H247351   0.617   4.622   3.615 -0.3841 -0.7845 -2.0961
 8646TIP3   OH247352   3.204   0.189  11.944  0.2192 -0.4839 -0.2111
 8646TIP3    H147353   3.292   0.153  11.931  0.2710 -0.8095  0.9022
 8646TIP3    H247354   3.166   0.191  11.857  0.7462 -1.8993 -0.5058
 8647TIP3   OH247355   2.902   4.540   5.278  0.1721 -0.5217  1.0358
 8647TIP3    H147356   2.906   4.482   5.354 -1.6547 -0.5215  1.1886
 8647TIP3    H247357   2.892   4.628   5.314  1.6961 -0.2287  0.7928
 8648TIP3   OH247358   3.456   1.973   2.684  0.3267 -0.5502 -0.3551
 8648TIP3    H147359   3.466   1.947   2.776  0.4469 -0.9592 -0.4780
 8648TIP3    H247360   3.540   1.949   2.644 -0.3450 -2.0758 -0.9614
 8649TIP3   OH247361   1.915   5.029  13.313  0.9904 -0.2793 -0.0839
 8649TIP3    H147362   1.981   5.064  13.373 -0.1355 -1.0015  1.6558
 8649TIP3    H247363   1.920   5.085  13.236  1.1479  1.9728  1.4847
 8650TIP3   OH247364   3.004   4.703  14.534 -0.6815 -0.0297 -0.5969
 8650TIP3    H147365   2.960   4.782  14.503  0.4420  0.5802 -0.6939
 8650TIP3    H247366   3.072   4.735  14.593  1.0271 -0.7612 -2.0862
 8651TIP3   OH247367   2.768   2.590  14.205  0.1520  0.2871 -0.2019
 8651TIP3    H147368   2.844   2.582  14.264  0.0539 -2.0465 -0.2918
 8651TIP3    H247369   2.709   2.651  14.250  1.3019  0.7658  0.7228
 8652TIP3   OH247370   0.763   6.250  13.040 -0.4303  0.5440 -0.1355
 8652TIP3    H147371   0.782   6.184  12.974 -0.8419 -0.9584  1.1841
 8652TIP3    H247372   0.848   6.268  13.082 -0.6244 -0.6816  0.8395
 8653TIP3   OH247373   2.619   1.754   2.134  0.3370 -0.2304 -0.2601
 8653TIP3    H147374   2.669   1.834   2.118 -0.0792 -0.0497 -0.6976
 8653TIP3    H247375   2.549   1.781   2.194 -0.1620 -0.1179 -0.8754
 8654TIP3   OH247376   6.349   5.095  12.598  0.1838  0.1499  1.1908
 8654TIP3    H147377   6.393   5.140  12.526 -0.1633 -1.4277 -0.0632
 8654TIP3    H247378   6.413   5.030  12.628 -0.5521 -0.8657  0.6292
 8655TIP3   OH247379   6.390   0.173   2.999 -0.0300 -0.9070 -0.5248
 8655TIP3    H147380   6.378   0.084   3.032  0.8912 -0.7079  0.4059
 8655TIP3    H247381   6.485   0.183   2.991 -0.0599  0.3442  0.4195
 8656TIP3   OH247382   3.415   2.323  13.300  0.2325 -0.0125  0.3004
 8656TIP3    H147383   3.385   2.299  13.388 -0.8382 -0.2077 -0.1093
 8656TIP3    H247384   3.506   2.350  13.313 -0.0702  0.4889  1.5610
 8657TIP3   OH247385   4.704   3.466  11.371  0.3192  0.3105 -0.8542
 8657TIP3    H147386   4.683   3.458  11.464  1.9261  0.8319 -0.4129
 8657TIP3    H247387   4.729   3.377  11.345 -2.5872 -0.4369 -1.5098
 8658TIP3   OH247388   4.152   2.880   1.499  0.3631 -0.4097 -0.6091
 8658TIP3    H147389   4.146   2.974   1.485  0.0638 -0.4891 -1.0592
 8658TIP3    H247390   4.156   2.843   1.411 -1.1886 -0.9157 -0.5010
 8659TIP3   OH247391   3.511   3.432  13.591 -0.3752 -0.0904  0.0402
 8659TIP3    H147392   3.443   3.494  13.617  1.0433  2.2240 -1.3781
 8659TIP3    H247393   3.567   3.424  13.668 -0.4167  0.6359  0.1515
 8660TIP3   OH247394   0.240   5.001  14.287  0.0794 -0.0864  0.1616
 8660TIP3    H147395   0.203   4.966  14.369  1.0418 -0.4225  0.4635
 8660TIP3    H247396   0.289   5.079  14.314 -0.8576  0.6914 -0.3135
 8661TIP3   OH247397   4.978   6.411  16.134 -0.3177  0.2654  1.2625
 8661TIP3    H147398   5.040   6.365  16.191  0.1395  0.4474  0.9157
 8661TIP3    H247399   5.029   6.481  16.094 -0.2775 -0.6418 -0.3703
 8662TIP3   OH247400   6.732   2.295   3.543 -0.0002 -0.1069 -0.1074
 8662TIP3    H147401   6.660   2.358   3.549  0.5217  0.4508  0.2697
 8662TIP3    H247402   6.751   2.290   3.449 -2.1432 -2.1061 -0.5415
 8663TIP3   OH247403   3.903   0.160  17.143 -0.1592 -0.4384  0.2383
 8663TIP3    H147404   3.941   0.182  17.228 -1.5235  0.3663  0.6817
 8663TIP3    H247405   3.975   0.167  17.081  0.9284 -1.3457  1.3652
 8664TIP3   OH247406   2.082   2.766   5.517  0.7335 -0.4688 -0.3006
 8664TIP3    H147407   2.133   2.843   5.542 -0.5624  0.1919  0.4056
 8664TIP3    H247408   2.034   2.794   5.439 -0.3994 -0.2324  0.4509
 8665TIP3   OH247409   0.532   5.146  11.291  0.0658  0.3070 -0.1121
 8665TIP3    H147410   0.570   5.156  11.204  0.2223 -2.2522 -0.4170
 8665TIP3    H247411   0.439   5.133  11.275 -0.0076  0.4813  0.1649
 8666TIP3   OH247412   3.020   5.942  16.753  0.2217  0.4446 -0.5671
 8666TIP3    H147413   3.007   5.848  16.767  1.8248  0.2434 -0.1737
 8666TIP3    H247414   3.026   5.951  16.658  0.1915  0.1167 -0.6013
 8667TIP3   OH247415   2.845   1.254  13.682 -0.3351 -0.5696  0.0839
 8667TIP3    H147416   2.927   1.219  13.647 -0.6785  0.3064 -1.7069
 8667TIP3    H247417   2.789   1.178  13.692  0.6870 -1.1966  1.4215
 8668TIP3   OH247418   0.694   2.728  14.811  0.5194 -0.8575 -0.3491
 8668TIP3    H147419   0.731   2.655  14.762  0.0109 -0.6100 -1.1321
 8668TIP3    H247420   0.727   2.717  14.900 -0.4231 -2.6706 -0.1835
 8669TIP3   OH247421   5.978   3.806  16.893  0.2041 -0.3829 -0.2975
 8669TIP3    H147422   6.022   3.757  16.963  1.5325 -0.2117 -0.9794
 8669TIP3    H247423   5.885   3.803  16.917  0.6323 -0.1913  1.5569
 8670TIP3   OH247424   1.692   0.719  12.201  0.1168 -0.7014  0.1537
 8670TIP3    H147425   1.745   0.731  12.122  0.6444  2.2005  0.8295
 8670TIP3    H247426   1.725   0.638  12.240  1.0658 -1.2361 -1.6582
 8671TIP3   OH247427   6.487   1.120   4.225  0.2013  0.4173  0.4411
 8671TIP3    H147428   6.491   1.104   4.319  1.8624  3.1749  0.9466
 8671TIP3    H247429   6.397   1.148   4.209 -0.1966 -0.4178  1.0903
 8672TIP3   OH247430   0.135   6.739   5.666  0.2294  0.1232 -0.4295
 8672TIP3    H147431   0.042   6.731   5.646  0.6535  0.0502 -2.5580
 8672TIP3    H247432   0.159   6.826   5.635  0.7644  0.4106  0.7198
 8673TIP3   OH247433   6.003   1.064  11.226 -0.2454 -0.0964 -0.3090
 8673TIP3    H147434   6.032   0.979  11.190 -0.7545  0.4928 -2.2587
 8673TIP3    H247435   5.912   1.050  11.250  0.0522 -0.4500  0.6722
 8674TIP3   OH247436   6.614   5.315  14.907 -0.8097  0.6618 -0.4912
 8674TIP3    H147437   6.637   5.295  14.998  0.0943  0.0281 -0.8519
 8674TIP3    H247438   6.600   5.410  14.906  0.6531  0.9012 -0.0038
 8675TIP3   OH247439   0.370   5.094  12.562 -0.1864 -0.1573  0.2558
 8675TIP3    H147440   0.321   5.052  12.491  1.7531 -1.5060 -0.3750
 8675TIP3    H247441   0.437   5.146  12.518  1.9036 -2.0673  0.9928
 8676TIP3   OH247442   1.595   1.690  11.266 -0.2239  0.4533 -0.4868
 8676TIP3    H147443   1.593   1.660  11.175  0.2678  0.3288 -0.4622
 8676TIP3    H247444   1.637   1.619  11.314 -0.8627  0.3389 -0.0868
 8677TIP3   OH247445   6.034   4.185  12.861  0.2560 -0.4531  0.5080
 8677TIP3    H147446   5.954   4.188  12.914 -0.0837 -0.4706  0.0009
 8677TIP3    H247447   6.014   4.124  12.790  0.8597 -0.7648  0.5977
 8678TIP3   OH247448   0.852   3.720   0.113 -0.1616 -0.0537 -0.0163
 8678TIP3    H147449   0.885   3.776   0.183 -3.0971  0.2527  1.2605
 8678TIP3    H247450   0.908   3.642   0.116  1.4436  1.0854  0.8336
 8679TIP3   OH247451   4.508   5.534   0.724  0.6378  0.2522 -0.1354
 8679TIP3    H147452   4.501   5.628   0.713  0.7081  0.2796  0.0450
 8679TIP3    H247453   4.463   5.497   0.648 -0.7856  0.4243  0.5833
 8680TIP3   OH247454   3.563   4.961   5.382  0.0254  0.5115  0.2960
 8680TIP3    H147455   3.627   4.962   5.453  1.3656  1.7578 -0.8517
 8680TIP3    H247456   3.574   5.045   5.339  0.0292 -0.5940 -2.0249
 8681TIP3   OH247457   2.815   1.549  17.050  0.0702  0.8784  0.3919
 8681TIP3    H147458   2.866   1.501  16.985  0.6928  1.3721  0.5058
 8681TIP3    H247459   2.773   1.481  17.103  2.0312  0.4002  1.4353
 8682TIP3   OH247460   6.068   5.211   3.809 -0.2701 -0.0698  0.9747
 8682TIP3    H147461   6.113   5.191   3.892 -0.1593 -1.6654  0.5591
 8682TIP3    H247462   6.103   5.148   3.747 -1.2852  0.2854  0.0122
 8683TIP3   OH247463   4.421   0.377   4.047  0.1238 -0.0463  0.2901
 8683TIP3    H147464   4.436   0.412   3.959  0.8370  0.5208  0.6193
 8683TIP3    H247465   4.497   0.322   4.064 -0.4323 -0.8432  0.2282
 8684TIP3   OH247466   4.503   5.793  14.424 -0.1578 -0.9272 -0.0878
 8684TIP3    H147467   4.432   5.856  14.424  0.9097  0.3234  0.9818
 8684TIP3    H247468   4.511   5.765  14.515  0.8454 -0.8841 -0.1458
 8685TIP3   OH247469   6.723   1.829   6.344 -0.0109  0.0022  0.2059
 8685TIP3    H147470   6.709   1.867   6.431 -2.7980 -0.0630 -0.1127
 8685TIP3    H247471   6.669   1.749   6.345  1.5032 -1.0777 -0.9353
 8686TIP3   OH247472   5.781   2.602  15.768  0.0604  0.1097  0.3434
 8686TIP3    H147473   5.705   2.652  15.798 -0.0946 -0.1275  0.3539
 8686TIP3    H247474   5.857   2.650  15.800 -0.0270  1.3838 -1.2411
 8687TIP3   OH247475   2.696   2.956  13.135  0.0559  0.1740  0.8344
 8687TIP3    H147476   2.781   2.965  13.177  1.1650 -0.4607 -1.1149
 8687TIP3    H247477   2.696   2.866  13.101 -0.1502  1.0096 -1.6269
 8688TIP3   OH247478   5.172   4.425  15.263  0.1171  0.2787 -0.1953
 8688TIP3    H147479   5.099   4.365  15.280  0.9572 -0.5149  0.7034
 8688TIP3    H247480   5.248   4.368  15.253  0.9786  1.1974  0.9419
 8689TIP3   OH247481   1.190   6.230  14.243 -0.4393  0.2152 -0.6076
 8689TIP3    H147482   1.167   6.151  14.292 -1.1210 -0.5086 -2.0333
 8689TIP3    H247483   1.199   6.201  14.152  2.7063  1.1428 -0.7137
 8690TIP3   OH247484   1.173   3.742  16.427  0.1709 -0.0047 -0.7343
 8690TIP3    H147485   1.213   3.778  16.348 -1.0519 -0.3462 -1.5349
 8690TIP3    H247486   1.233   3.673  16.455  0.3401 -0.2650 -1.6969
 8691TIP3   OH247487   1.947   2.572   4.192 -0.5706 -1.1387  0.1536
 8691TIP3    H147488   1.968   2.499   4.250  0.1297 -2.0392 -1.1919
 8691TIP3    H247489   2.011   2.566   4.121 -0.9545  0.3611 -0.3552
 8692TIP3   OH247490   2.497   4.008   0.189 -0.2953 -0.0280  0.1344
 8692TIP3    H147491   2.465   4.077   0.247  0.1538  0.5492 -0.2952
 8692TIP3    H247492   2.454   4.023   0.106  0.1542  0.0177 -0.0956
 8693TIP3   OH247493   6.325   0.874   1.737 -0.0902  0.0028  0.3003
 8693TIP3    H147494   6.245   0.912   1.773 -0.5509 -0.3254 -0.3685
 8693TIP3    H247495   6.297   0.791   1.699  0.4810  0.1168 -0.3782
 8694TIP3   OH247496   2.398   6.125   0.499 -0.5283  0.3717  0.5691
 8694TIP3    H147497   2.314   6.105   0.541 -0.3714 -0.2675  0.5844
 8694TIP3    H247498   2.392   6.218   0.478 -2.4089 -0.2323 -2.0280
 8695TIP3   OH247499   4.419   3.058  15.720  0.4283 -0.7117  0.4101
 8695TIP3    H147500   4.463   3.143  15.724  0.4759 -0.7625  1.1130
 8695TIP3    H247501   4.326   3.080  15.709  0.4682 -0.5736  0.3441
 8696TIP3   OH247502   0.692   1.585   2.992  0.0203  0.0470 -0.1919
 8696TIP3    H147503   0.770   1.530   3.001 -0.6923 -0.8299  0.9762
 8696TIP3    H247504   0.626   1.528   2.952 -0.3557  0.4293 -0.1268
 8697TIP3   OH247505   1.674   5.975  15.739  0.4611 -0.2072  0.5338
 8697TIP3    H147506   1.622   5.986  15.659 -0.6820  1.1438  1.4012
 8697TIP3    H247507   1.703   5.884  15.736 -0.9836 -0.6813 -0.5786
 8698TIP3   OH247508   4.849   4.686  15.015  0.5757  0.0033 -0.3955
 8698TIP3    H147509   4.889   4.712  15.098 -1.3761 -1.6542  1.1819
 8698TIP3    H247510   4.765   4.647  15.040  0.8105 -2.4835 -2.9583
 8699TIP3   OH247511   5.591   4.639   1.441 -0.2143 -0.6487  0.0944
 8699TIP3    H147512   5.524   4.574   1.419 -1.4595  0.3736  0.7373
 8699TIP3    H247513   5.583   4.650   1.536 -0.1037  0.5137 -0.0141
 8700TIP3   OH247514   6.191   0.241  11.547  0.1273  0.6058  0.9276
 8700TIP3    H147515   6.231   0.325  11.570  0.2111  1.1945 -1.2003
 8700TIP3    H247516   6.242   0.209  11.473 -1.0581 -0.4133  0.5078
 8701TIP3   OH247517   4.944   5.127   2.349 -0.5205 -0.0251  0.1593
 8701TIP3    H147518   4.910   5.200   2.296  0.1021  0.7319  0.7890
 8701TIP3    H247519   4.906   5.140   2.435  1.6143  1.0975  1.0162
 8702TIP3   OH247520   3.786   0.909  15.117 -0.2095 -0.2552  0.4741
 8702TIP3    H147521   3.738   0.970  15.061 -0.1116 -0.8944 -0.3354
 8702TIP3    H247522   3.811   0.961  15.193 -0.2176  0.6815 -0.1410
 8703TIP3   OH247523   1.741   0.157   3.640  0.4528  0.5252 -0.5199
 8703TIP3    H147524   1.747   0.160   3.735  3.3967  1.5832 -0.6507
 8703TIP3    H247525   1.829   0.178   3.609 -0.2357 -0.4330 -3.4926
 8704TIP3   OH247526   4.938   6.736  16.221  0.5104  0.5220 -0.1522
 8704TIP3    H147527   4.932   6.810  16.160  0.8757  1.0366  0.4238
 8704TIP3    H247528   4.905   6.661  16.171  1.1983  0.8461 -1.1340
 8705TIP3   OH247529   3.942   2.094   0.867  0.2008  0.2742  0.5293
 8705TIP3    H147530   3.847   2.086   0.853  0.1864  1.6019 -0.2709
 8705TIP3    H247531   3.980   2.027   0.810 -0.2747 -1.4690  2.1323
 8706TIP3   OH247532   3.091   6.184   1.285 -0.5499  0.0219 -0.2342
 8706TIP3    H147533   3.036   6.256   1.253 -0.4382 -0.0268 -0.5435
 8706TIP3    H247534   3.128   6.146   1.205 -1.2367 -0.8828 -0.1327
 8707TIP3   OH247535   3.921   3.173   0.794 -0.1871 -0.3103  0.0094
 8707TIP3    H147536   3.929   3.113   0.719 -0.7594 -0.0683 -0.2477
 8707TIP3    H247537   4.010   3.207   0.806 -0.3515  0.7616 -1.4943
 8708TIP3   OH247538   3.643   3.720   6.115 -0.3644  0.5840  0.4858
 8708TIP3    H147539   3.736   3.738   6.127 -0.3607  1.5382 -0.8320
 8708TIP3    H247540   3.639   3.665   6.037 -0.9208  0.5554  0.5260
 8709TIP3   OH247541   3.997   6.033  14.077  0.1094  0.2358  0.3502
 8709TIP3    H147542   3.999   6.120  14.038  0.1800  0.0861  0.0178
 8709TIP3    H247543   3.913   5.996  14.049  0.7331 -0.3747 -0.7731
 8710TIP3   OH247544   6.089   0.900  13.247  0.2373  0.3815 -0.3826
 8710TIP3    H147545   6.026   0.832  13.223  0.9399 -1.1177  1.7223
 8710TIP3    H247546   6.175   0.860  13.231  0.6849  1.7931 -1.6577
 8711TIP3   OH247547   4.911   0.103  11.563  0.3107  0.1492 -0.4988
 8711TIP3    H147548   4.942   0.039  11.627  2.1929  0.5286 -0.9690
 8711TIP3    H247549   4.839   0.059  11.518 -0.3384 -0.5169  1.1358
 8712TIP3   OH247550   3.964   4.525   0.863  0.1487  0.0440 -0.4226
 8712TIP3    H147551   4.032   4.459   0.850 -0.5457 -0.8797  0.4087
 8712TIP3    H247552   4.004   4.607   0.835  1.0110 -0.7300 -1.5901
 8713TIP3   OH247553   4.409   0.457  12.333 -0.4324 -0.2237  0.3729
 8713TIP3    H147554   4.501   0.475  12.316 -0.0426 -0.7271  1.8430
 8713TIP3    H247555   4.362   0.526  12.286  0.5644 -1.0151 -1.9191
 8714TIP3   OH247556   2.329   0.960  15.974  0.5720 -0.1423 -0.1387
 8714TIP3    H147557   2.378   0.889  15.933  0.2506  0.1493 -1.0545
 8714TIP3    H247558   2.242   0.924  15.989  0.4363  0.0239 -0.5167
 8715TIP3   OH247559   1.118   2.140  16.676 -0.2905  0.2148 -0.1564
 8715TIP3    H147560   1.149   2.154  16.765 -1.8446  0.6838  0.3454
 8715TIP3    H247561   1.049   2.075  16.685  1.3604 -1.8414 -1.4186
 8716TIP3   OH247562   4.594   1.722  17.209  0.5530 -0.1974  0.6767
 8716TIP3    H147563   4.512   1.738  17.162  0.4655 -2.2467  0.0436
 8716TIP3    H247564   4.581   1.638  17.253  0.4316  1.8038  4.9635
 8717TIP3   OH247565   5.397   3.150   3.190 -0.4361  0.2021  0.0359
 8717TIP3    H147566   5.381   3.166   3.283 -1.0882  0.3455 -0.0959
 8717TIP3    H247567   5.477   3.098   3.188  1.2465  2.5762  0.5413
 8718TIP3   OH247568   3.356   2.492  12.979 -0.6644 -0.1580 -0.2204
 8718TIP3    H147569   3.378   2.555  12.910  1.1259 -0.1738  0.3089
 8718TIP3    H247570   3.434   2.486  13.033 -1.4414 -1.4574  0.8286
 8719TIP3   OH247571   6.419   2.490  11.247 -0.3600 -0.0603 -0.1841
 8719TIP3    H147572   6.508   2.526  11.244 -0.9578  1.5507  0.6932
 8719TIP3    H247573   6.429   2.408  11.296  0.5466  0.4289  0.4951
 8720TIP3   OH247574   5.311   0.011   3.976  0.1042  0.1589 -0.4673
 8720TIP3    H147575   5.365  -0.068   3.980  0.2929  0.3443  1.8614
 8720TIP3    H247576   5.371   0.082   3.997 -0.9493  0.3759  2.1125
 8721TIP3   OH247577   1.462   6.047  16.515 -0.4000  0.0133  0.6406
 8721TIP3    H147578   1.443   6.031  16.607  0.4172  0.6176  0.9273
 8721TIP3    H247579   1.534   6.109  16.516  0.5985 -1.0876 -0.4009
 8722TIP3   OH247580   4.480   2.744  14.120  0.0463 -0.0798  0.3214
 8722TIP3    H147581   4.476   2.690  14.199  0.8554 -0.2839  0.2302
 8722TIP3    H247582   4.512   2.829  14.151  1.6209 -0.5406  0.0447
 8723TIP3   OH247583   1.055   3.734  14.619  0.3934 -0.1081 -0.2753
 8723TIP3    H147584   1.091   3.688  14.543 -0.3580 -1.1130 -0.0464
 8723TIP3    H247585   1.093   3.821  14.614  0.2350 -0.0888 -1.9105
 8724TIP3   OH247586   2.822   0.410   0.664  0.3999  0.3929 -0.0274
 8724TIP3    H147587   2.858   0.497   0.647 -0.3970  0.3913 -1.9855
 8724TIP3    H247588   2.729   0.426   0.684  0.3431  0.0134  0.0148
 8725TIP3   OH247589   0.468   3.846  16.720  0.5403  0.3191 -0.5238
 8725TIP3    H147590   0.509   3.898  16.651 -0.0315 -1.3325 -2.2141
 8725TIP3    H247591   0.386   3.815  16.681 -0.6227  0.6697  1.5080
 8726TIP3   OH247592   6.051   4.531  11.901 -0.6118  0.4084  0.2201
 8726TIP3    H147593   6.138   4.543  11.863  0.2098  0.1917  1.9551
 8726TIP3    H247594   6.054   4.445  11.943 -1.5562  0.5523  0.6088
 8727TIP3   OH247595   3.018   3.575   1.384  0.2135  0.1658 -0.6267
 8727TIP3    H147596   3.036   3.522   1.461  0.8531 -2.3711 -2.3938
 8727TIP3    H247597   2.949   3.527   1.338  0.2031  1.3343 -1.8890
 8728TIP3   OH247598   2.542   3.345  12.431  0.8191  0.1082 -0.2142
 8728TIP3    H147599   2.628   3.343  12.389  1.3607 -0.1725  0.8612
 8728TIP3    H247600   2.558   3.310  12.519 -0.7901 -1.8604 -0.6557
 8729TIP3   OH247601   1.565   2.204  16.067 -0.1322 -0.2210  0.2818
 8729TIP3    H147602   1.627   2.255  16.120 -0.2156  0.4316 -0.2401
 8729TIP3    H247603   1.621   2.145  16.017  0.0076 -0.2382  0.4553
 8730TIP3   OH247604   1.022   2.763  14.701 -0.2668  0.1299  0.4610
 8730TIP3    H147605   0.990   2.830  14.762 -1.8808  0.0737 -0.2659
 8730TIP3    H247606   0.947   2.745  14.644  0.4759 -1.5051 -0.0636
 8731TIP3   OH247607   3.956   5.376  13.810 -0.0951  0.0826  0.0903
 8731TIP3    H147608   3.969   5.345  13.720 -1.6517  0.6820 -0.3708
 8731TIP3    H247609   4.014   5.452  13.817 -1.4683  1.3172 -1.1422
 8732TIP3   OH247610   2.134   4.423  14.576  0.5549 -0.2065 -0.1926
 8732TIP3    H147611   2.053   4.434  14.624  0.2706 -0.6627 -0.5631
 8732TIP3    H247612   2.199   4.397  14.642  0.3437 -0.0952  0.0584
 8733TIP3   OH247613   5.423   6.673  11.834  0.8368  0.1603  0.2743
 8733TIP3    H147614   5.358   6.731  11.794  0.0347  0.7179  2.2570
 8733TIP3    H247615   5.441   6.607  11.767 -1.4401  0.2516 -0.5125
 8734TIP3   OH247616   4.677   2.658   2.170 -0.5671 -0.1546 -0.6301
 8734TIP3    H147617   4.743   2.588   2.164 -0.4920 -0.1838  0.3590
 8734TIP3    H247618   4.668   2.690   2.080 -1.1770 -1.9488 -1.2321
 8735TIP3   OH247619   3.003   2.350   2.011 -0.3804 -0.1982  0.5911
 8735TIP3    H147620   3.058   2.323   2.085  0.6955  1.5791  0.4783
 8735TIP3    H247621   2.933   2.401   2.051 -0.0903  0.3206  0.4449
 8736TIP3   OH247622   2.401   6.575   5.666 -0.5041  0.3816 -0.7694
 8736TIP3    H147623   2.421   6.531   5.749  0.0357  0.6019 -0.7773
 8736TIP3    H247624   2.483   6.571   5.617 -0.1739  2.1098 -0.4428
 8737TIP3   OH247625   4.169   5.695   1.362  0.7905 -0.1173 -0.0117
 8737TIP3    H147626   4.217   5.612   1.354  1.9427  0.3805  1.3236
 8737TIP3    H247627   4.231   5.754   1.405 -1.5688  0.0715  3.4476
 8738TIP3   OH247628   1.211   3.773   1.806 -0.3151  0.1985  0.1372
 8738TIP3    H147629   1.198   3.843   1.870  0.1267 -0.1819  0.6496
 8738TIP3    H247630   1.263   3.707   1.852  0.7556  0.2926 -0.8681
 8739TIP3   OH247631   0.434   3.247  12.313  0.0475  0.3898 -0.0710
 8739TIP3    H147632   0.339   3.231  12.316 -0.2930  1.3297 -2.8380
 8739TIP3    H247633   0.470   3.165  12.277  0.3601 -0.0791  1.2641
 8740TIP3   OH247634   2.207   4.240  17.352 -0.4778  0.4951 -0.1549
 8740TIP3    H147635   2.115   4.239  17.380 -0.6636 -2.0292 -0.6599
 8740TIP3    H247636   2.204   4.213  17.260  0.7944 -0.0287 -0.0573
 8741TIP3   OH247637   5.058   1.155  17.056 -0.4502  0.0263  0.2526
 8741TIP3    H147638   5.121   1.222  17.029  0.2486  0.5065  2.8273
 8741TIP3    H247639   4.973   1.198  17.048 -0.1038  0.8349  0.7366
 8742TIP3   OH247640   1.302   1.059  15.248  0.2156 -0.4004  0.5008
 8742TIP3    H147641   1.256   1.070  15.165 -0.7504 -2.8302  0.6233
 8742TIP3    H247642   1.356   1.137  15.256 -1.2634  0.9201 -1.3605
 8743TIP3   OH247643   5.423   0.122   6.012 -0.5599 -0.0730  0.2530
 8743TIP3    H147644   5.476   0.081   6.081  0.1246  0.4891  0.0744
 8743TIP3    H247645   5.444   0.215   6.017 -0.7175  0.0158 -0.5235
 8744TIP3   OH247646   6.090   5.284  14.227  0.8535 -0.3444 -0.0189
 8744TIP3    H147647   6.150   5.273  14.154 -0.6888  0.5733 -1.5114
 8744TIP3    H247648   6.139   5.336  14.291  2.5505 -1.9579  0.0508
 8745TIP3   OH247649   0.177   3.744  15.649 -0.0134  0.1595 -0.9011
 8745TIP3    H147650   0.215   3.771  15.565  1.4829  0.4032 -0.1751
 8745TIP3    H247651   0.231   3.788  15.715  0.1440 -1.6635  0.2445
 8746TIP3   OH247652   6.148   4.843  12.611 -0.0449  0.0214 -0.1371
 8746TIP3    H147653   6.095   4.867  12.535 -1.2558  3.4943  1.6020
 8746TIP3    H247654   6.226   4.899  12.605  1.5618 -2.1196 -0.5010
 8747TIP3   OH247655   5.032   6.565  12.231  0.5069 -0.4354  0.1759
 8747TIP3    H147656   5.100   6.591  12.294 -0.2727  1.3094  0.3536
 8747TIP3    H247657   4.969   6.516  12.284 -0.4978  1.6098  1.0019
 8748TIP3   OH247658   4.460   3.984   0.694 -0.0746  0.5204  0.1125
 8748TIP3    H147659   4.510   3.902   0.696  1.5021  1.4132 -0.2789
 8748TIP3    H247660   4.370   3.957   0.675  0.5113 -1.0800 -0.6188
 8749TIP3   OH247661   3.154   1.589  11.446 -0.3429 -0.0439  0.3009
 8749TIP3    H147662   3.157   1.614  11.353 -0.5840 -0.2230  0.2431
 8749TIP3    H247663   3.241   1.608  11.479 -0.1850 -0.1988 -0.0212
 8750TIP3   OH247664   5.374   6.695   4.305 -0.6133 -0.0628  0.0184
 8750TIP3    H147665   5.462   6.724   4.283 -0.6739  0.3085  0.2434
 8750TIP3    H247666   5.360   6.728   4.394 -0.8300 -0.4582  0.1330
 8751TIP3   OH247667   1.717   6.436   6.266  0.0029 -0.3937  0.5675
 8751TIP3    H147668   1.738   6.347   6.294  3.8105 -0.3132 -1.3671
 8751TIP3    H247669   1.787   6.459   6.205 -1.9866  3.2039 -0.6491
 8752TIP3   OH247670   3.706   1.751   4.961 -0.3511  0.0238 -0.5863
 8752TIP3    H147671   3.718   1.659   4.938  0.7294 -0.3200  1.2049
 8752TIP3    H247672   3.620   1.773   4.924 -1.5542 -2.2769  0.6331
 8753TIP3   OH247673   4.928   2.690  16.466 -0.1236  0.2599 -0.2385
 8753TIP3    H147674   4.975   2.607  16.472 -1.5435 -0.6112 -0.7465
 8753TIP3    H247675   4.893   2.704  16.554  0.6859  0.7023  0.0312
 8754TIP3   OH247676   0.789   3.227  16.528 -0.0187  0.2591 -0.0613
 8754TIP3    H147677   0.819   3.139  16.505  0.4936 -0.0336  1.5371
 8754TIP3    H247678   0.693   3.220  16.529  0.0117 -0.2513 -0.0911
 8755TIP3   OH247679   6.402   2.671   3.824  0.2379  0.0925  0.1171
 8755TIP3    H147680   6.340   2.619   3.875  0.5221 -0.4175 -0.0526
 8755TIP3    H247681   6.348   2.719   3.762 -0.0363  0.0807  0.3462
 8756TIP3   OH247682   5.851   5.772   5.176  0.0768 -0.1781  0.2650
 8756TIP3    H147683   5.835   5.797   5.267 -0.6020  1.0020 -0.1444
 8756TIP3    H247684   5.771   5.728   5.148  1.0244 -2.3147  0.7841
 8757TIP3   OH247685   1.420   2.289  16.961  0.4458  0.6854  0.3469
 8757TIP3    H147686   1.332   2.264  16.933 -0.2219  0.6374  2.3153
 8757TIP3    H247687   1.409   2.376  16.997  0.9324  0.2031  1.7199
 8758TIP3   OH247688   2.782   6.115   4.675  0.0921 -0.5465 -0.2002
 8758TIP3    H147689   2.817   6.194   4.718  1.7908 -0.9155 -0.8347
 8758TIP3    H247690   2.695   6.141   4.647  0.1149  0.6952  0.7504
 8759TIP3   OH247691   6.299   1.079   0.493  0.7044 -0.2009 -0.2917
 8759TIP3    H147692   6.243   1.013   0.535 -2.0205  0.7716 -2.0549
 8759TIP3    H247693   6.298   1.153   0.552 -0.9365  0.2159 -0.7737
 8760TIP3   OH247694   4.489   5.635   2.677 -0.6317  0.4398  0.1936
 8760TIP3    H147695   4.525   5.647   2.589  1.2816  0.1532  0.8787
 8760TIP3    H247696   4.408   5.586   2.664  0.8581 -1.7965 -1.2581
 8761TIP3   OH247697   5.474   2.912  12.613  0.7093 -0.7349  0.2377
 8761TIP3    H147698   5.411   2.861  12.663  1.5482 -1.5078  0.5226
 8761TIP3    H247699   5.493   2.859  12.535  1.2983 -0.6900  0.3477
 8762TIP3   OH247700   0.454   1.899  11.823  0.0088 -0.0047 -0.0258
 8762TIP3    H147701   0.376   1.850  11.852 -1.1827  2.3159  0.9851
 8762TIP3    H247702   0.460   1.881  11.730 -1.1805 -0.9787  0.0525
 8763TIP3   OH247703   5.399   2.103  13.303 -0.1408  0.0966  0.0774
 8763TIP3    H147704   5.396   2.109  13.208  0.2174  2.0301  0.1486
 8763TIP3    H247705   5.365   2.187  13.334 -0.7465 -0.6871  1.6782
 8764TIP3   OH247706   3.271   4.480   5.477 -0.2859 -0.3482 -0.1981
 8764TIP3    H147707   3.319   4.415   5.528  0.2546  0.4572  0.3559
 8764TIP3    H247708   3.240   4.433   5.400  2.8177 -0.5924 -1.4447
 8765TIP3   OH247709   5.291   3.581   3.363 -0.3130 -0.1150 -0.6154
 8765TIP3    H147710   5.322   3.623   3.444 -0.8571  0.9446 -0.9522
 8765TIP3    H247711   5.215   3.632   3.337 -0.3953 -0.7162 -1.5760
 8766TIP3   OH247712   4.547   3.066   4.675  0.3301  0.5057  1.0140
 8766TIP3    H147713   4.560   3.014   4.754  1.6079  1.2374  1.3257
 8766TIP3    H247714   4.503   3.146   4.705 -1.5557 -0.3162  0.5499
 8767TIP3   OH247715   4.845   3.224  15.953  0.0143  0.1106  0.0306
 8767TIP3    H147716   4.919   3.183  15.997  1.3471  0.9242 -1.3346
 8767TIP3    H247717   4.812   3.288  16.017  1.6724  1.0239  0.0407
 8768TIP3   OH247718   1.686   6.283  16.549  0.0596 -0.7164  0.0482
 8768TIP3    H147719   1.686   6.204  16.604  0.7671 -0.5588  0.2942
 8768TIP3    H247720   1.647   6.350  16.605  1.5332 -0.3522  0.7066
 8769TIP3   OH247721   2.472   6.404  16.859  0.0135 -0.5098 -0.4408
 8769TIP3    H147722   2.532   6.358  16.918 -0.1729 -1.8696 -1.2453
 8769TIP3    H247723   2.390   6.356  16.867 -0.2189 -0.2512 -1.2294
 8770TIP3   OH247724   4.858   0.476  13.126  0.2233 -0.4086 -0.0930
 8770TIP3    H147725   4.915   0.553  13.127 -0.7589  0.3939 -1.8670
 8770TIP3    H247726   4.785   0.500  13.183 -0.6471  0.4980 -1.5084
 8771TIP3   OH247727   1.276   5.199  13.814 -0.0329  0.2319 -0.6940
 8771TIP3    H147728   1.218   5.143  13.866  0.3485 -1.5337 -2.0818
 8771TIP3    H247729   1.354   5.209  13.869 -0.7603  0.8224  0.2676
 8772TIP3   OH247730   3.091   1.338   3.386  0.3415  0.1411 -0.5208
 8772TIP3    H147731   3.160   1.343   3.451  0.5891 -2.1131 -0.5238
 8772TIP3    H247732   3.010   1.348   3.436  0.6088  1.7511 -0.3728
 8773TIP3   OH247733   5.904   2.390   2.045  0.1289 -0.0791  0.9411
 8773TIP3    H147734   5.827   2.405   2.100 -0.0746  0.5905  0.4824
 8773TIP3    H247735   5.870   2.393   1.956  0.6596  0.0702  0.7424
 8774TIP3   OH247736   2.021   5.046  17.208 -0.2947 -0.2394 -0.5266
 8774TIP3    H147737   1.964   5.123  17.212  0.3486  0.2159  0.2272
 8774TIP3    H247738   2.089   5.071  17.146 -0.3681 -0.4019 -0.6729
 8775TIP3   OH247739   2.211   6.627   4.696 -0.0114  0.5829  0.7428
 8775TIP3    H147740   2.217   6.591   4.785  0.9231 -1.0050  0.0879
 8775TIP3    H247741   2.286   6.589   4.650 -1.1344  0.4139 -1.0587
 8776TIP3   OH247742   3.584   0.706   0.402 -0.0404 -0.1456  0.2868
 8776TIP3    H147743   3.525   0.745   0.467 -0.8762 -1.7682  0.5557
 8776TIP3    H247744   3.671   0.718   0.438 -0.4025  0.0732  1.1112
 8777TIP3   OH247745   3.878   1.434  17.040  0.3733 -0.1557  0.0887
 8777TIP3    H147746   3.942   1.369  17.010 -0.8929 -0.7815 -1.4126
 8777TIP3    H247747   3.799   1.383  17.058 -0.3877  0.8716 -0.2686
 8778TIP3   OH247748   2.291   5.213   0.267 -0.9064 -1.0125 -0.1995
 8778TIP3    H147749   2.316   5.159   0.342 -0.1419 -1.1334 -0.5289
 8778TIP3    H247750   2.230   5.158   0.217 -1.7229 -0.7766  0.5372
 8779TIP3   OH247751   5.690   5.607  13.979  0.0252 -0.1391 -0.0020
 8779TIP3    H147752   5.745   5.531  13.995  1.0166  0.9277  2.0414
 8779TIP3    H247753   5.739   5.660  13.916  0.7739  0.2162  0.8649
 8780TIP3   OH247754   5.099   2.973  12.315  0.3106 -0.4696  0.3708
 8780TIP3    H147755   5.003   2.972  12.316  0.2022  2.2155  1.2524
 8780TIP3    H247756   5.124   2.880  12.314 -2.2663 -1.2503  0.0672
 8781TIP3   OH247757   2.513   5.919  15.215  0.3004 -0.0161  0.0269
 8781TIP3    H147758   2.467   5.848  15.260  1.1569 -1.0092 -0.6254
 8781TIP3    H247759   2.564   5.962  15.283 -1.0571  0.7061  0.6436
 8782TIP3   OH247760   6.360   2.798   0.800 -0.0236 -0.4434  0.1361
 8782TIP3    H147761   6.322   2.867   0.747 -1.1600 -0.1504  1.2923
 8782TIP3    H247762   6.353   2.719   0.746  0.6568  0.1967 -0.9100
 8783TIP3   OH247763   1.603   0.968  15.416 -0.5310  0.1779  0.0710
 8783TIP3    H147764   1.624   0.882  15.380  0.3577  0.3504  0.1483
 8783TIP3    H247765   1.552   1.011  15.348  2.4907  1.1283 -1.8053
 8784TIP3   OH247766   1.620   2.830   0.402 -0.1798 -0.3194 -0.0488
 8784TIP3    H147767   1.538   2.787   0.424  0.1981 -2.4208 -2.2910
 8784TIP3    H247768   1.686   2.761   0.405  1.8593  1.5378  2.8674
 8785TIP3   OH247769   3.348   3.779   3.070  0.0673 -0.4977 -0.2482
 8785TIP3    H147770   3.338   3.834   2.992 -3.2953 -2.1478 -1.1690
 8785TIP3    H247771   3.317   3.833   3.142 -0.3509 -0.1568 -0.6762
 8786TIP3   OH247772   4.996   2.519  13.207 -0.5468  0.0953 -1.1644
 8786TIP3    H147773   4.918   2.569  13.228 -0.7663 -1.3897  2.2529
 8786TIP3    H247774   5.067   2.568  13.249 -0.2487 -0.5970 -0.8536
 8787TIP3   OH247775   5.555   4.283   3.185  0.4792 -0.2528  0.2505
 8787TIP3    H147776   5.495   4.222   3.228  1.3659 -0.6185  1.0100
 8787TIP3    H247777   5.505   4.365   3.177 -0.1577 -0.5859  0.7366
 8788TIP3   OH247778   1.609   3.443  11.675  0.4249 -0.0798  0.0155
 8788TIP3    H147779   1.669   3.458  11.747 -1.0405  1.4614  0.9894
 8788TIP3    H247780   1.636   3.505  11.608  0.4871 -0.0495  0.0687
 8789TIP3   OH247781   5.792   3.670  15.576 -0.3653  0.3728  0.2007
 8789TIP3    H147782   5.859   3.603  15.590 -1.3431 -0.1656  2.8278
 8789TIP3    H247783   5.832   3.751  15.609  0.7267  1.1703 -2.7572
 8790TIP3   OH247784   4.782   2.605   5.519  0.6722 -0.3416 -0.1043
 8790TIP3    H147785   4.840   2.631   5.590 -1.1363  0.5779  1.1246
 8790TIP3    H247786   4.729   2.534   5.557 -1.0246  0.8614 -0.1147
 8791TIP3   OH247787   0.337   0.558  12.870 -0.3432  0.1336  0.2947
 8791TIP3    H147788   0.421   0.532  12.908 -0.1961 -2.7100 -1.7308
 8791TIP3    H247789   0.275   0.555  12.943  0.5852 -1.6955  1.0652
 8792TIP3   OH247790   6.365   4.894  16.124 -0.0872 -0.1661 -0.4576
 8792TIP3    H147791   6.426   4.954  16.169 -0.6570 -0.4537  0.7486
 8792TIP3    H247792   6.366   4.815  16.178  1.7780 -1.8910 -2.7995
 8793TIP3   OH247793   5.827   2.090  10.702 -0.0101  0.1460  0.1535
 8793TIP3    H147794   5.922   2.101  10.705 -0.1593  1.5048  0.6508
 8793TIP3    H247795   5.813   1.998  10.723  1.1578  0.0868  0.7526
 8794TIP3   OH247796   4.278   3.505   3.476 -0.2210  0.0911 -0.2848
 8794TIP3    H147797   4.189   3.538   3.466 -0.8629 -1.8102 -1.3597
 8794TIP3    H247798   4.287   3.440   3.407  1.7989 -0.2172  0.2106
 8795TIP3   OH247799   2.292   3.108  12.653 -0.0764  0.1599 -0.1988
 8795TIP3    H147800   2.222   3.133  12.714 -1.5538 -0.0039 -1.7336
 8795TIP3    H247801   2.331   3.029  12.692 -0.5414  0.4258  0.8401
 8796TIP3   OH247802   2.095   4.598  12.348  0.1412  0.1172 -0.6321
 8796TIP3    H147803   2.145   4.636  12.276  0.6716  0.8802  0.1199
 8796TIP3    H247804   2.009   4.639  12.342 -0.3931 -1.0859 -1.8371
 8797TIP3   OH247805   5.381   2.205  16.508 -0.3217  0.3471 -0.0351
 8797TIP3    H147806   5.427   2.249  16.436  1.7759  2.8821  2.5919
 8797TIP3    H247807   5.308   2.263  16.528  1.0330  1.5201  1.8733
 8798TIP3   OH247808   5.965   6.047  10.859 -0.0686 -0.0569  0.2995
 8798TIP3    H147809   6.006   5.982  10.802  0.0918 -0.2556  0.6373
 8798TIP3    H247810   6.037   6.103  10.887 -0.3417  0.8020 -0.6793
 8799TIP3   OH247811   4.806   4.995  11.138  0.1557 -0.2681  0.2857
 8799TIP3    H147812   4.783   4.902  11.138  1.4152 -0.5934  0.3592
 8799TIP3    H247813   4.773   5.028  11.055 -1.6704 -0.4115  0.9122
 8800TIP3   OH247814   2.780   3.790   4.594  0.3989  0.2753 -0.5828
 8800TIP3    H147815   2.771   3.744   4.678  3.0249 -1.0340 -0.9200
 8800TIP3    H247816   2.807   3.879   4.618 -1.1397  0.6231 -0.0273
 8801TIP3   OH247817   1.757   2.380   5.856  0.2172 -0.0375 -0.2699
 8801TIP3    H147818   1.793   2.297   5.825  0.7754  0.4296 -0.8918
 8801TIP3    H247819   1.787   2.386   5.946 -0.4424 -0.8560  0.0199
 8802TIP3   OH247820   2.036   4.760  13.622 -1.4799  0.5673 -0.0042
 8802TIP3    H147821   1.984   4.830  13.661  0.2122  1.4510  0.7909
 8802TIP3    H247822   2.040   4.781  13.529 -0.9033  1.6169  0.2465
 8803TIP3   OH247823   5.163   6.530  15.684  0.1941  0.2467 -0.1329
 8803TIP3    H147824   5.069   6.518  15.697  0.1917 -0.7479 -0.9401
 8803TIP3    H247825   5.170   6.593  15.613  0.1805  1.9187  1.2782
 8804TIP3   OH247826   5.062   0.629  13.236  0.5153 -0.0681  0.0034
 8804TIP3    H147827   5.119   0.553  13.222  2.0936  1.2294 -1.0434
 8804TIP3    H247828   5.036   0.623  13.328  2.7955 -0.4811  0.7043
 8805TIP3   OH247829   1.133   5.834   3.614  0.0745 -0.0998 -0.0340
 8805TIP3    H147830   1.103   5.845   3.524  1.3913 -0.1133 -0.5044
 8805TIP3    H247831   1.054   5.813   3.663 -0.7088  0.1487 -1.1380
 8806TIP3   OH247832   6.120   6.185  12.347  0.0524 -0.0825  0.1290
 8806TIP3    H147833   6.208   6.191  12.385  0.2625 -0.0193 -0.3632
 8806TIP3    H247834   6.108   6.092  12.327 -0.4122 -0.2628  1.1657
 8807TIP3   OH247835   2.766   4.994  14.637  0.2984  0.2324 -0.1235
 8807TIP3    H147836   2.764   4.959  14.726 -0.9311 -1.3229 -0.7229
 8807TIP3    H247837   2.724   5.080  14.644  0.0251  0.0320  0.7642
 8808TIP3   OH247838   6.595   2.973  11.872 -0.1898  0.2303 -0.5951
 8808TIP3    H147839   6.614   2.925  11.952 -2.5629 -0.9181 -0.6288
 8808TIP3    H247840   6.643   2.927  11.803  0.5562  0.2343 -0.0885
 8809TIP3   OH247841   2.509   0.405   4.527 -0.0303  0.2263 -0.0061
 8809TIP3    H147842   2.437   0.343   4.516 -0.1988  0.2668  0.7708
 8809TIP3    H247843   2.523   0.442   4.440 -1.5265  0.8525 -0.0162
 8810TIP3   OH247844   3.996   0.351   5.901  0.5122  0.3144 -0.1511
 8810TIP3    H147845   3.922   0.306   5.860  1.5497 -1.9713  0.3287
 8810TIP3    H247846   3.958   0.398   5.975 -0.3257 -1.9955  0.9700
 8811TIP3   OH247847   5.713   6.286  12.847 -0.3394  0.0285 -0.6358
 8811TIP3    H147848   5.628   6.303  12.809 -1.5769 -2.0992  0.9372
 8811TIP3    H247849   5.715   6.191  12.859  1.1414  0.2838  1.7792
 8812TIP3   OH247850   5.048   0.546   2.498  0.1805 -0.0888  0.6294
 8812TIP3    H147851   5.100   0.468   2.515 -0.2649 -0.5589 -0.1182
 8812TIP3    H247852   5.062   0.601   2.575  0.4685 -0.9200  1.1884
 8813TIP3   OH247853   5.152   3.084   0.319 -0.4672 -0.0954 -0.0802
 8813TIP3    H147854   5.213   3.018   0.285 -2.7575 -2.6439  0.4748
 8813TIP3    H247855   5.070   3.065   0.274 -1.6040  1.3854  1.2916
 8814TIP3   OH247856   4.238   2.143   5.311 -0.5680  0.1642 -0.1314
 8814TIP3    H147857   4.160   2.168   5.361  0.6681  1.8867  1.0764
 8814TIP3    H247858   4.224   2.051   5.288 -2.1114 -0.1179  1.6895
 8815TIP3   OH247859   2.998   5.005  10.620 -0.4052 -0.3613  0.1302
 8815TIP3    H147860   2.995   5.041  10.532 -0.0831 -0.2543  0.1597
 8815TIP3    H247861   2.993   4.910  10.608 -0.4449 -0.3416  0.0012
 8816TIP3   OH247862   2.444   3.643  11.887 -0.4116 -0.1561 -0.2794
 8816TIP3    H147863   2.453   3.584  11.812  4.3067 -1.6994  1.1512
 8816TIP3    H247864   2.432   3.585  11.962 -0.0791  1.0299  0.7128
 8817TIP3   OH247865   1.500   0.020   4.681 -0.1000  0.2903  0.0369
 8817TIP3    H147866   1.543   0.076   4.745 -3.7605  2.5381  0.8668
 8817TIP3    H247867   1.560   0.018   4.606  1.5733  2.8319  1.1764
 8818TIP3   OH247868   1.768   2.241   4.838  0.7923 -0.3033 -0.4463
 8818TIP3    H147869   1.804   2.172   4.783 -0.0213 -0.0941 -1.2785
 8818TIP3    H247870   1.709   2.290   4.780 -0.1062 -0.0814  0.6091
 8819TIP3   OH247871   6.239   3.747   3.948 -0.3822 -0.0553 -0.0132
 8819TIP3    H147872   6.210   3.817   3.890 -0.3656 -0.0510 -0.0167
 8819TIP3    H247873   6.334   3.742   3.933 -0.3047  0.2590  0.3570
 8820TIP3   OH247874   4.665   1.520  13.550 -0.3041 -0.1568  0.7288
 8820TIP3    H147875   4.692   1.588  13.488 -0.9529  0.1750  0.7954
 8820TIP3    H247876   4.745   1.471  13.569  1.2810  3.1723  3.9236
 8821TIP3   OH247877   2.588   3.367  14.260 -0.0976 -0.2691  0.4615
 8821TIP3    H147878   2.586   3.453  14.301  0.0413 -0.3555  0.6526
 8821TIP3    H247879   2.496   3.344  14.248 -0.1430 -0.3501  0.9483
 8822TIP3   OH247880   4.796   4.364  14.787  0.0811 -0.3030  0.0466
 8822TIP3    H147881   4.886   4.394  14.774 -1.0306  3.3800 -0.3374
 8822TIP3    H247882   4.757   4.366  14.699 -1.2234  1.5380  0.6139
 8823TIP3   OH247883   5.334   4.677  15.475  0.0840  0.0109  0.1175
 8823TIP3    H147884   5.349   4.583  15.478 -1.5859 -0.3512 -1.1391
 8823TIP3    H247885   5.421   4.716  15.475  0.7840 -1.4902  1.2943
 8824TIP3   OH247886   2.902   2.250  13.535 -0.1320  0.6399 -0.6524
 8824TIP3    H147887   2.812   2.272  13.556 -0.2741 -0.4452 -0.0616
 8824TIP3    H247888   2.906   2.155  13.541  1.1320  0.6890 -0.3129
 8825TIP3   OH247889   2.226   0.100   5.832 -0.3684 -0.1605  0.0880
 8825TIP3    H147890   2.224   0.021   5.887  0.3015 -0.8856 -0.8795
 8825TIP3    H247891   2.318   0.108   5.806 -0.7560 -0.1817 -1.3694
 8826TIP3   OH247892   5.756   4.485   1.839 -0.1198  0.1537  0.0155
 8826TIP3    H147893   5.830   4.532   1.878 -0.1171  0.0406  0.1464
 8826TIP3    H247894   5.780   4.477   1.746  0.7205 -1.1703  0.3173
 8827TIP3   OH247895   4.647   2.062  15.731  0.0955 -0.5540  0.0823
 8827TIP3    H147896   4.678   2.152  15.734 -1.1474 -0.1310  0.8373
 8827TIP3    H247897   4.700   2.016  15.796  0.0953 -0.1578  0.3633
 8828TIP3   OH247898   0.914   5.797  15.004  0.3300  0.5997  0.4594
 8828TIP3    H147899   1.007   5.819  15.012  0.7638 -0.6247 -0.8090
 8828TIP3    H247900   0.906   5.757  14.917 -1.2136 -0.0912  0.8795
 8829TIP3   OH247901   5.466   2.558  16.026 -0.6423  0.3601 -0.1682
 8829TIP3    H147902   5.525   2.631  16.005 -0.0016  0.0773  0.5766
 8829TIP3    H247903   5.386   2.600  16.057 -0.3852  0.7529 -0.0268
 8830TIP3   OH247904   5.895   0.639   1.107 -0.4139  0.3502 -0.1312
 8830TIP3    H147905   5.987   0.613   1.111 -0.6921 -0.5643  0.6016
 8830TIP3    H247906   5.859   0.587   1.035 -0.8702 -1.0627  1.0612
 8831TIP3   OH247907   5.752   5.850   1.641  0.0501  0.0096  0.1102
 8831TIP3    H147908   5.670   5.831   1.595 -0.0090  1.0992 -0.2593
 8831TIP3    H247909   5.741   5.807   1.727 -0.8794  0.0844  0.0405
 8832TIP3   OH247910   6.701   5.200   0.306 -0.1174  0.1757  0.2934
 8832TIP3    H147911   6.719   5.118   0.352  0.0562 -0.3144 -0.6227
 8832TIP3    H247912   6.608   5.197   0.287  0.1961 -0.6322 -1.2520
 8833TIP3   OH247913   6.629   2.998  14.689 -0.1598 -0.7703 -0.5751
 8833TIP3    H147914   6.709   2.956  14.718 -0.1408  0.3386  1.1130
 8833TIP3    H247915   6.559   2.939  14.719 -0.0465 -0.8176 -0.4013
 8834TIP3   OH247916   5.602   3.324  15.363 -0.2205  0.0192 -0.0185
 8834TIP3    H147917   5.613   3.388  15.434  0.6505 -0.2217  0.0820
 8834TIP3    H247918   5.690   3.287  15.350 -0.8600 -1.8478  0.5852
 8835TIP3   OH247919   0.779   4.942   4.377  0.2427  0.2850  0.2276
 8835TIP3    H147920   0.786   4.985   4.292  1.9349  1.6934  1.0078
 8835TIP3    H247921   0.727   5.003   4.430  0.8693  0.3726  0.7506
 8836TIP3   OH247922   6.508   0.107   2.338  0.2355  0.4001  0.0733
 8836TIP3    H147923   6.558   0.040   2.291  0.0511 -0.3820  0.9553
 8836TIP3    H247924   6.417   0.088   2.317  0.2434  1.4551 -1.0487
 8837TIP3   OH247925   6.709   6.133  16.206  0.1902  0.4520  0.4086
 8837TIP3    H147926   6.672   6.136  16.294  0.4722  0.6231  0.5232
 8837TIP3    H247927   6.753   6.217  16.195 -1.0287  0.9956 -0.4311
 8838TIP3   OH247928   6.033   0.572  14.225 -0.0049 -0.1284 -0.3203
 8838TIP3    H147929   5.939   0.556  14.212 -0.0710 -1.2406  1.2431
 8838TIP3    H247930   6.038   0.660  14.261 -0.3652  0.2525 -1.1747
 8839TIP3   OH247931   5.416   1.422  16.054 -0.1906  0.2464  0.1342
 8839TIP3    H147932   5.394   1.365  16.128 -1.0662  0.7762  0.2981
 8839TIP3    H247933   5.465   1.366  15.994  1.9712  0.2075  1.8194
 8840TIP3   OH247934   1.548   4.643   4.489 -0.1143  0.5545  0.4072
 8840TIP3    H147935   1.480   4.699   4.452 -1.5879 -0.7369  1.0574
 8840TIP3    H247936   1.626   4.699   4.491 -0.4513  1.3460 -2.6625
 8841TIP3   OH247937   3.992   5.636   3.170 -0.3547  0.7629 -0.0646
 8841TIP3    H147938   4.065   5.586   3.131  0.0217  0.8808  0.4744
 8841TIP3    H247939   4.007   5.629   3.264 -0.5302  1.5561  0.0265
 8842TIP3   OH247940   5.185   1.133   1.064 -0.7998 -0.5194  0.0060
 8842TIP3    H147941   5.255   1.180   1.108 -1.7058 -0.5003  1.4793
 8842TIP3    H247942   5.125   1.202   1.035 -1.8333 -0.6935  1.6493
 8843TIP3   OH247943   5.712   2.029  14.453 -0.1124 -0.5206  0.1814
 8843TIP3    H147944   5.742   2.055  14.540 -0.9461  1.0352  0.0553
 8843TIP3    H247945   5.624   1.994  14.467 -1.0656  1.5535 -0.1852
 8844TIP3   OH247946   2.864   4.600  13.870  0.2331  0.2967  0.3645
 8844TIP3    H147947   2.797   4.586  13.803  1.4817 -3.0185 -0.3289
 8844TIP3    H247948   2.859   4.523  13.926  1.8364  1.1686  1.8149
 8845TIP3   OH247949   6.585   3.814   6.743  0.1723 -0.6344  0.2362
 8845TIP3    H147950   6.539   3.787   6.664 -0.2438  0.2570  0.1724
 8845TIP3    H247951   6.518   3.815   6.811 -0.9421  4.3103 -0.5606
 8846TIP3   OH247952   3.755   5.198  16.751 -0.1949  0.1299 -0.1747
 8846TIP3    H147953   3.708   5.274  16.717 -1.4807 -0.5942 -0.1075
 8846TIP3    H247954   3.736   5.128  16.689  0.0342 -0.4175  0.3631
 8847TIP3   OH247955   6.554   1.172  10.768  0.7167  0.1125 -0.8816
 8847TIP3    H147956   6.578   1.263  10.750 -1.1646  1.0029  0.6774
 8847TIP3    H247957   6.459   1.169  10.751  0.6297 -1.3806 -0.2409
 8848TIP3   OH247958   5.170   0.802  12.644  0.1888  0.9691 -0.2230
 8848TIP3    H147959   5.170   0.717  12.600  1.3003  0.8930 -0.0933
 8848TIP3    H247960   5.133   0.784  12.731 -1.7351  1.0670 -0.9608
 8849TIP3   OH247961   0.316   0.348  17.259  0.1090 -0.2416 -0.4564
 8849TIP3    H147962   0.244   0.318  17.203 -0.1491 -0.4164 -0.0421
 8849TIP3    H247963   0.325   0.279  17.325  0.0792  0.1878  0.0052
 8850TIP3   OH247964   1.060   1.479  10.255 -0.4361  0.3262  0.2076
 8850TIP3    H147965   1.056   1.574  10.248  2.0408  0.4007 -0.9761
 8850TIP3    H247966   1.138   1.461  10.307 -0.5030 -1.0855 -0.1185
 8851TIP3   OH247967   3.435   0.664  11.321  0.3492 -0.0548 -0.6336
 8851TIP3    H147968   3.460   0.748  11.359 -1.5601 -0.1607  1.0105
 8851TIP3    H247969   3.407   0.685  11.232 -0.0112  1.0416 -0.2714
 8852TIP3   OH247970   3.459   5.738  15.204 -0.2349  0.4821  0.6463
 8852TIP3    H147971   3.537   5.699  15.164 -0.8257  0.5686 -0.6347
 8852TIP3    H247972   3.450   5.694  15.288  0.8018 -0.0202  0.5067
 8853TIP3   OH247973   1.180   3.373  15.496 -0.2796 -0.1192  0.1563
 8853TIP3    H147974   1.171   3.459  15.454 -1.5466  0.7761  2.1102
 8853TIP3    H247975   1.250   3.330  15.447 -0.5001  1.4976 -1.7159
 8854TIP3   OH247976   3.643   2.050  12.591 -0.7662  0.1609 -0.0728
 8854TIP3    H147977   3.614   2.136  12.561 -0.8577 -0.5266 -2.1572
 8854TIP3    H247978   3.592   2.034  12.670 -3.4504  0.5928 -1.5599
 8855TIP3   OH247979   0.005   1.578  12.890 -0.2087  0.5723  0.3345
 8855TIP3    H147980   0.062   1.502  12.877 -1.7491 -0.2175 -2.8195
 8855TIP3    H247981   0.050   1.650  12.847 -0.3441  0.6095  0.2539
 8856TIP3   OH247982   4.233   5.737  13.130  0.2327  0.1438 -0.4068
 8856TIP3    H147983   4.237   5.817  13.077 -0.4904 -0.3203 -1.1720
 8856TIP3    H247984   4.139   5.717  13.136  0.3858 -0.4581  0.0669
 8857TIP3   OH247985   0.525   3.477   1.505 -0.5048 -0.5142 -0.0793
 8857TIP3    H147986   0.513   3.499   1.413  0.2536  0.4677  0.0283
 8857TIP3    H247987   0.600   3.530   1.532  0.0379 -1.6844  0.7986
 8858TIP3   OH247988   2.808   2.144  17.091  0.0752  0.3720  0.1143
 8858TIP3    H147989   2.892   2.164  17.050  0.3761 -1.1849 -0.1211
 8858TIP3    H247990   2.829   2.125  17.182 -0.0423  0.1755  0.1022
 8859TIP3   OH247991   6.750   6.613  17.146 -0.0207  0.1310  0.0631
 8859TIP3    H147992   6.809   6.549  17.106 -1.2240 -0.8190 -0.2495
 8859TIP3    H247993   6.782   6.698  17.114  0.9409 -0.3896 -0.3950
 8860TIP3   OH247994   3.136   5.971  13.826  0.2171 -0.0092  0.1759
 8860TIP3    H147995   3.147   6.065  13.841  1.2403 -0.1255  0.1634
 8860TIP3    H247996   3.151   5.931  13.912  1.6488 -0.3070 -0.1944
 8861TIP3   OH247997   5.171   0.069  12.715 -0.1826 -0.0782  0.4349
 8861TIP3    H147998   5.095   0.126  12.701  0.4853  0.4329 -1.4763
 8861TIP3    H247999   5.221   0.112  12.784 -0.5420  0.7618  0.1880
 8862TIP3   OH248000   1.538   0.673   1.855 -0.2124  0.7394  0.4346
 8862TIP3    H148001   1.522   0.585   1.821 -0.4933  1.2398 -0.7936
 8862TIP3    H248002   1.584   0.659   1.938  1.4355 -0.5048 -0.6434
 8863TIP3   OH248003   1.327   0.535  11.240  0.2028 -0.1090  0.0056
 8863TIP3    H148004   1.366   0.546  11.327 -1.7410 -1.8561  1.1827
 8863TIP3    H248005   1.346   0.444  11.216 -1.3653 -0.3865 -0.2727
 8864TIP3   OH248006   2.795   1.508   6.566 -0.7739  0.1555  0.0595
 8864TIP3    H148007   2.841   1.428   6.540 -2.0415 -0.3940 -0.5675
 8864TIP3    H248008   2.778   1.497   6.659 -2.0212 -0.8808 -0.2714
 8865TIP3   OH248009   6.505   2.264   0.383  0.5788 -0.4252  0.7554
 8865TIP3    H148010   6.466   2.185   0.422 -2.4263 -0.1715 -1.4606
 8865TIP3    H248011   6.432   2.324   0.371  1.9728  0.9017 -1.8744
 8866TIP3   OH248012   6.491   4.121  14.808  0.6113  0.3550  0.6302
 8866TIP3    H148013   6.545   4.106  14.885  1.0597  0.2589  0.3020
 8866TIP3    H248014   6.535   4.191  14.761  1.2027 -0.6399 -0.3328
 8867TIP3   OH248015   4.913   1.791  14.424  0.4256 -0.1595  0.6549
 8867TIP3    H148016   4.927   1.846  14.501  2.8737 -0.0743  0.2297
 8867TIP3    H248017   4.918   1.701  14.457 -1.4616 -0.1781  1.0069
 8868TIP3   OH248018   0.254   2.747   6.426 -0.1043  0.1907  0.3794
 8868TIP3    H148019   0.197   2.823   6.423  0.4990  0.6473  0.3521
 8868TIP3    H248020   0.320   2.768   6.492 -0.2976 -0.5714  0.8279
 8869TIP3   OH248021   2.767   2.996   4.430  0.0789  0.0494 -0.5412
 8869TIP3    H148022   2.793   3.079   4.470 -0.6619  0.4322 -0.8341
 8869TIP3    H248023   2.827   2.931   4.467  0.4476  0.6630 -0.0571
 8870TIP3   OH248024   5.533   0.665   1.485 -0.2230 -0.6635  0.1474
 8870TIP3    H148025   5.549   0.584   1.532  2.7818  0.6845  1.7136
 8870TIP3    H248026   5.476   0.716   1.544 -0.6717 -0.9402 -0.0425
 8871TIP3   OH248027   0.839   0.391  14.651 -0.2300 -0.6016  0.6357
 8871TIP3    H148028   0.878   0.462  14.600  0.3592  0.1769  2.1073
 8871TIP3    H248029   0.747   0.416  14.662  0.4113  1.0972  2.9213
 8872TIP3   OH248030   2.628   0.667   0.074  0.6762 -0.4728  0.0372
 8872TIP3    H148031   2.599   0.752   0.107  1.5590  0.2374 -0.9253
 8872TIP3    H248032   2.548   0.615   0.066 -0.4852  1.4794 -2.7969
 8873TIP3   OH248033   0.865   0.896   4.934 -0.3633 -0.3229 -0.1806
 8873TIP3    H148034   0.960   0.898   4.921 -0.2700  0.0212  0.5008
 8873TIP3    H248035   0.828   0.901   4.846  0.2471 -0.4931 -0.4547
 8874TIP3   OH248036   5.242   0.134  13.940  0.5277  0.1493  0.4628
 8874TIP3    H148037   5.181   0.102  14.007  1.7948  0.8978  2.0330
 8874TIP3    H248038   5.185   0.174  13.874 -0.8843 -2.4291 -0.0070
 8875TIP3   OH248039   3.255   4.166  11.272 -0.0584 -0.4318  0.5441
 8875TIP3    H148040   3.196   4.239  11.252  0.8891  0.1803 -0.1369
 8875TIP3    H248041   3.289   4.138  11.187  2.0462  0.4727  1.0047
 8876TIP3   OH248042   1.175   1.760  12.655  0.0799 -0.2003 -0.8697
 8876TIP3    H148043   1.251   1.702  12.657  0.9771  0.9513  0.5810
 8876TIP3    H248044   1.176   1.798  12.568  2.6472  1.5852 -0.1910
 8877TIP3   OH248045   2.874   6.073  13.250 -0.9616  0.1351  0.1338
 8877TIP3    H148046   2.878   6.005  13.182 -0.3804  1.3287 -1.0781
 8877TIP3    H248047   2.912   6.031  13.327 -1.8225 -1.3336 -0.1822
 8878TIP3   OH248048   6.405   3.468  14.866  0.0588  0.1600  0.1836
 8878TIP3    H148049   6.394   3.394  14.926  0.0460 -0.0162 -0.0384
 8878TIP3    H248050   6.500   3.478  14.857  0.0798  0.9233  1.1504
 8879TIP3   OH248051   1.187   3.680   5.281  0.2513  0.2071  0.4566
 8879TIP3    H148052   1.213   3.645   5.366  0.2646 -0.7751  0.0721
 8879TIP3    H248053   1.214   3.612   5.219 -0.9288  0.3199 -0.1999
 8880TIP3   OH248054   6.137   1.715  10.833  0.4177  0.0116 -0.1304
 8880TIP3    H148055   6.059   1.660  10.842  1.0561 -0.9140 -0.1800
 8880TIP3    H248056   6.206   1.667  10.878  0.5640  1.7101  1.5947
 8881TIP3   OH248057   2.692   1.964  16.093  0.0803 -0.4124  0.6098
 8881TIP3    H148058   2.637   1.896  16.132  0.9868 -1.1332  0.6659
 8881TIP3    H248059   2.694   1.942  16.000  1.2456 -1.1246  0.7796
 8882TIP3   OH248060   3.027   0.490   6.430 -0.3161  0.4181 -0.0859
 8882TIP3    H148061   3.058   0.528   6.512 -1.2939  0.1420  0.4309
 8882TIP3    H248062   2.973   0.558   6.391 -1.0579  0.0340  0.2375
 8883TIP3   OH248063   5.856   0.660  15.537  0.6834  0.7214 -0.2300
 8883TIP3    H148064   5.843   0.754  15.526  0.4346  0.8433  0.9144
 8883TIP3    H248065   5.948   0.651  15.561  1.1888  0.4728 -2.0847
 8884TIP3   OH248066   0.011   1.021  11.694 -0.3060  0.1417  0.4944
 8884TIP3    H148067  -0.040   1.065  11.626  0.5451  0.6705  0.1749
 8884TIP3    H248068  -0.054   0.982  11.752 -1.0591 -0.4206 -0.6818
 8885TIP3   OH248069   3.118   3.376  11.158 -0.0330  0.6287 -0.5645
 8885TIP3    H148070   3.140   3.287  11.183 -0.6165 -0.2333 -2.9270
 8885TIP3    H248071   3.022   3.380  11.166  0.1150  1.7029  1.3884
 8886TIP3   OH248072   6.520   6.739   4.815  0.0209 -0.6143 -0.1961
 8886TIP3    H148073   6.574   6.797   4.869 -1.4963  0.5997  0.0823
 8886TIP3    H248074   6.439   6.730   4.864 -1.3730  0.4197 -2.2124
 8887TIP3   OH248075   2.258   5.913   4.571  0.4007  0.0917  0.0246
 8887TIP3    H148076   2.213   5.984   4.525 -1.9841 -0.7145  0.9388
 8887TIP3    H248077   2.264   5.943   4.662  2.8792  0.6600 -0.2619
 8888TIP3   OH248078   0.989   6.014  16.839  0.4883  0.0620 -0.5306
 8888TIP3    H148079   1.053   6.082  16.818  2.0654 -1.2279 -0.1103
 8888TIP3    H248080   0.993   5.954  16.765  1.2832 -1.0644  0.3783
 8889TIP3   OH248081   1.516   0.401  14.492 -0.0208  0.1857  0.0332
 8889TIP3    H148082   1.531   0.494  14.512  1.2073  1.3950 -5.1688
 8889TIP3    H248083   1.602   0.367  14.468 -0.5765 -2.2087  1.1170
 8890TIP3   OH248084   0.053   5.436  16.897 -0.6466 -0.2552  0.4826
 8890TIP3    H148085   0.110   5.486  16.838 -1.7869 -0.8306 -1.1700
 8890TIP3    H248086   0.111   5.373  16.938  0.2539  0.4135  0.2692
 8891TIP3   OH248087   2.534   5.848   4.019  0.4406 -0.3399 -0.6007
 8891TIP3    H148088   2.541   5.899   3.939  2.0561 -1.2725 -1.1099
 8891TIP3    H248089   2.624   5.840   4.050  0.0919 -1.7992  0.1250
 8892TIP3   OH248090   5.416   0.836  16.138  0.6315 -0.1212 -0.4412
 8892TIP3    H148091   5.371   0.921  16.139 -0.5737 -0.7107  1.9218
 8892TIP3    H248092   5.357   0.779  16.088  0.0050 -0.2611  0.4488
 8893TIP3   OH248093   0.595   1.850   0.996  0.3432  0.1468 -0.4311
 8893TIP3    H148094   0.681   1.865   0.956 -0.3571 -0.4908 -2.3023
 8893TIP3    H248095   0.575   1.931   1.043  1.2498  0.9352 -1.3644
 8894TIP3   OH248096   6.593   4.878  13.797 -0.3801  0.2763  0.3044
 8894TIP3    H148097   6.541   4.834  13.864 -0.6182  1.1092  0.6757
 8894TIP3    H248098   6.577   4.827  13.717 -0.4012 -0.4923  0.7847
 8895TIP3   OH248099   1.142   0.420   1.361 -0.2374 -0.5020 -0.5981
 8895TIP3    H148100   1.096   0.435   1.278  0.1593  2.5249 -0.4098
 8895TIP3    H248101   1.224   0.378   1.336 -0.5695 -0.5740 -1.6093
 8896TIP3   OH248102   2.583   2.056   5.328 -0.1982  0.3399 -0.4252
 8896TIP3    H148103   2.560   2.127   5.268 -2.6222  0.1347  0.1374
 8896TIP3    H248104   2.661   2.016   5.290 -0.5450  1.4045 -2.3833
 8897TIP3   OH248105   1.087   2.162   4.113  0.0211  0.2746  0.3314
 8897TIP3    H148106   1.158   2.203   4.164  0.7844 -1.0705  0.4026
 8897TIP3    H248107   1.096   2.200   4.025  1.4376 -0.5151  0.0925
 8898TIP3   OH248108   1.637   1.442   2.060 -0.7649  0.6106 -0.0217
 8898TIP3    H148109   1.614   1.363   2.110  2.6681  0.0922  1.0129
 8898TIP3    H248110   1.582   1.437   1.982 -0.1822 -3.3420 -0.4291
 8899TIP3   OH248111   0.071   3.625  17.115 -0.1181 -0.0769 -0.0580
 8899TIP3    H148112   0.098   3.658  17.028 -0.6004 -0.7117 -0.4544
 8899TIP3    H248113  -0.004   3.680  17.138  0.8758  1.0516  0.6163
 8900TIP3   OH248114   0.966   1.583   3.444 -0.0949 -0.7600 -0.0086
 8900TIP3    H148115   0.935   1.641   3.513  1.0582 -0.6088  0.4082
 8900TIP3    H248116   0.898   1.517   3.435 -0.7774 -0.1260  0.4757
 8901TIP3   OH248117   3.042   2.716  13.484 -0.2110 -0.3273 -0.1524
 8901TIP3    H148118   2.955   2.740  13.451 -0.4079  0.8811  1.1578
 8901TIP3    H248119   3.033   2.718  13.579  1.0166 -1.1510  0.0071
 8902TIP3   OH248120   3.284   6.535   2.847  0.5617  0.5634  0.1788
 8902TIP3    H148121   3.230   6.547   2.925  0.9413  0.1944  0.5010
 8902TIP3    H248122   3.232   6.477   2.791  0.8129 -0.1660  0.6856
 8903TIP3   OH248123   1.536   1.074   1.733 -0.3005 -0.2227  0.1590
 8903TIP3    H148124   1.561   0.987   1.702  0.8660 -0.4874  1.6963
 8903TIP3    H248125   1.485   1.112   1.661  3.1698 -0.2965 -2.5946
 8904TIP3   OH248126   1.552   6.580  14.075 -0.7542  0.4326  0.0539
 8904TIP3    H148127   1.581   6.597  13.985 -1.4441  0.6993 -0.1242
 8904TIP3    H248128   1.517   6.491  14.072 -0.9960  0.5297  0.0032
 8905TIP3   OH248129   3.930   1.776  14.140 -0.9929  0.2485  0.2240
 8905TIP3    H148130   3.954   1.817  14.223 -0.4959  0.7991 -0.1845
 8905TIP3    H248131   3.835   1.789  14.133 -0.7173  2.2484 -0.3650
 8906TIP3   OH248132   1.697   1.677  16.055 -0.2677 -0.1085 -0.4195
 8906TIP3    H148133   1.747   1.619  15.998 -0.2353 -0.6504  0.1456
 8906TIP3    H248134   1.655   1.618  16.118  0.8991  0.5698  1.0536
 8907TIP3   OH248135   1.822   0.959   2.391 -0.2866 -0.2715  0.1785
 8907TIP3    H148136   1.879   0.891   2.354 -0.1903 -0.0892 -0.0136
 8907TIP3    H248137   1.734   0.930   2.371 -0.2623  1.6652 -3.7169
 8908TIP3   OH248138   0.679   3.768  11.721  0.6564 -0.1092  0.2331
 8908TIP3    H148139   0.764   3.786  11.763  0.3290 -0.3028  0.9877
 8908TIP3    H248140   0.637   3.854  11.717  0.8401 -0.0320 -0.0307
 8909TIP3   OH248141   2.483   1.815   1.802  0.4897 -0.6693 -0.1885
 8909TIP3    H148142   2.481   1.866   1.884  1.5865 -0.8321 -0.0394
 8909TIP3    H248143   2.449   1.875   1.736 -1.9396 -1.0377  0.6058
 8910TIP3   OH248144   6.652   4.878   2.156 -0.1286 -0.4155 -0.2156
 8910TIP3    H148145   6.738   4.903   2.187 -0.4014  0.6577 -0.2910
 8910TIP3    H248146   6.606   4.961   2.142 -1.4264 -0.9704  0.5416
 8911TIP3   OH248147   2.416   2.364  13.088 -0.1174  0.3690  0.1887
 8911TIP3    H148148   2.493   2.334  13.137 -1.1761 -1.0060  1.0894
 8911TIP3    H248149   2.427   2.325  13.001  0.1236  0.0190  0.3709
 8912TIP3   OH248150   5.356   5.489   1.809 -0.2085  0.3003 -0.8158
 8912TIP3    H148151   5.338   5.499   1.715 -0.4829 -1.0474 -0.9256
 8912TIP3    H248152   5.288   5.430   1.840  0.0603  0.5003  0.1788
 8913TIP3   OH248153   3.138   4.334  16.971  0.7126 -0.3722 -0.1331
 8913TIP3    H148154   3.198   4.389  16.920  1.2865 -0.9348 -0.0676
 8913TIP3    H248155   3.144   4.248  16.931 -0.8191 -0.2130 -0.7661
 8914TIP3   OH248156   5.305   5.842   3.665  0.2014  0.8076 -0.3031
 8914TIP3    H148157   5.222   5.795   3.676  1.3107 -1.0754  0.4147
 8914TIP3    H248158   5.339   5.809   3.582  0.6768  0.8505 -0.1238
 8915TIP3   OH248159   5.869   5.302  11.059  0.2954  0.5587  0.1562
 8915TIP3    H148160   5.798   5.253  11.099  0.5727  0.1192  0.1199
 8915TIP3    H248161   5.827   5.358  10.993  0.1564 -1.0234 -1.1536
 8916TIP3   OH248162   6.506   6.053   1.387 -0.7798  0.5868  0.3844
 8916TIP3    H148163   6.443   6.121   1.365 -1.8624 -0.9313 -1.4222
 8916TIP3    H248164   6.456   5.972   1.383  0.7709 -0.4599  1.2545
 8917TIP3   OH248165   5.936   1.045  15.173 -0.2025 -0.1975 -0.4576
 8917TIP3    H148166   5.979   1.032  15.258 -2.1036 -0.1187  0.5633
 8917TIP3    H248167   5.969   0.974  15.118 -0.4032 -1.4153  0.9579
 8918TIP3   OH248168   4.006   3.129   4.668 -1.0238  0.2919 -0.1424
 8918TIP3    H148169   4.011   3.219   4.635 -1.0198 -0.0660 -1.1405
 8918TIP3    H248170   4.096   3.096   4.660 -0.7771  0.5521  1.2916
 8919TIP3   OH248171   2.141   4.997  15.219  0.7736  0.6905  0.0505
 8919TIP3    H148172   2.195   4.953  15.284  2.7348  3.1440  0.2446
 8919TIP3    H248173   2.061   4.945  15.215  1.7924 -1.2252  2.2172
 8920TIP3   OH248174   3.396   5.827   4.680 -0.0982 -0.2632  0.7969
 8920TIP3    H148175   3.327   5.892   4.669 -0.3536 -0.8327 -1.3573
 8920TIP3    H248176   3.351   5.749   4.713 -1.1945 -1.6367 -3.4017
 8921TIP3   OH248177   3.051   1.760   2.938  0.0024  0.4717  0.8812
 8921TIP3    H148178   3.142   1.787   2.924 -0.4685  2.2511  1.0812
 8921TIP3    H248179   3.057   1.686   2.998  1.3632 -0.0670  0.1339
 8922TIP3   OH248180   5.669   2.114   0.778 -0.1023 -0.3550 -0.3290
 8922TIP3    H148181   5.618   2.185   0.739 -0.3661 -0.5957 -0.4235
 8922TIP3    H248182   5.726   2.158   0.841 -1.2094 -0.1830  0.6057
 8923TIP3   OH248183   1.771   5.696   6.649 -0.7600 -0.0985  0.3182
 8923TIP3    H148184   1.713   5.763   6.684 -0.8630 -0.0640  0.0789
 8923TIP3    H248185   1.785   5.721   6.558  0.8432  0.7420  0.7563
 8924TIP3   OH248186   2.724   6.752  14.677  0.2940 -0.2920 -0.3838
 8924TIP3    H148187   2.673   6.695  14.735 -0.9411  0.4936 -0.6718
 8924TIP3    H248188   2.776   6.692  14.624  1.9282 -1.0381  1.9066
 8925TIP3   OH248189   6.350   6.246  15.504  0.0660 -0.3768  0.3246
 8925TIP3    H148190   6.385   6.263  15.591 -1.1882  0.1448  0.7562
 8925TIP3    H248191   6.425   6.255  15.445  0.4062  2.2283  1.0245
 8926TIP3   OH248192   4.413   5.546   1.366 -0.2752 -0.1635 -0.1587
 8926TIP3    H148193   4.490   5.491   1.378 -0.2678 -0.1285 -0.0518
 8926TIP3    H248194   4.446   5.635   1.366 -0.3321 -0.1421  0.0170
 8927TIP3   OH248195   4.720   5.797   2.202  0.3202 -0.6105 -0.2770
 8927TIP3    H148196   4.710   5.886   2.169 -0.3238 -0.2011  0.9415
 8927TIP3    H248197   4.802   5.797   2.250 -1.2607  0.3829  2.6950
 8928TIP3   OH248198   0.485   1.055   4.310  0.1014  0.6574 -0.1284
 8928TIP3    H148199   0.467   1.148   4.325  1.0073  1.3375 -2.6294
 8928TIP3    H248200   0.577   1.045   4.334  0.6132  0.9798 -1.7853
 8929TIP3   OH248201   6.288   2.015   5.252 -0.5948 -0.1571  0.6065
 8929TIP3    H148202   6.358   2.026   5.316  0.5654  0.8967 -0.7539
 8929TIP3    H248203   6.286   2.098   5.204 -2.8774 -0.1165  0.6587
 8930TIP3   OH248204   0.940   5.594  15.534 -0.1775 -0.2161  0.1704
 8930TIP3    H148205   1.030   5.562  15.545 -0.0589  0.5666  1.7971
 8930TIP3    H248206   0.943   5.645  15.453  1.0317  0.3637  0.5495
 8931TIP3   OH248207   3.458   2.580  14.378  0.0385  0.2986  0.1887
 8931TIP3    H148208   3.551   2.559  14.382 -0.7450 -3.6693  3.1471
 8931TIP3    H248209   3.434   2.601  14.468 -1.9166  1.7295 -0.5742
 8932TIP3   OH248210   4.436   4.532   3.375 -0.0022 -0.3715 -0.2950
 8932TIP3    H148211   4.510   4.578   3.335 -0.4625  0.8894  0.2375
 8932TIP3    H248212   4.369   4.529   3.307  0.0579 -0.3089 -0.3565
 8933TIP3   OH248213   3.757   1.647   0.648 -0.1116  0.0108  0.3927
 8933TIP3    H148214   3.815   1.694   0.708  0.1249  0.4065 -0.1398
 8933TIP3    H248215   3.814   1.585   0.603 -0.3260 -0.4257  0.7161
 8934TIP3   OH248216   2.720   3.033   5.488  0.3034 -0.3531 -0.6832
 8934TIP3    H148217   2.761   2.958   5.531  0.8596 -0.4030 -1.2871
 8934TIP3    H248218   2.744   3.024   5.396 -1.9155 -0.9543 -1.2665
 8935TIP3   OH248219   5.628   3.910  15.549 -0.1643  0.1645  0.3472
 8935TIP3    H148220   5.573   3.874  15.479 -2.6974  2.8817  0.6953
 8935TIP3    H248221   5.714   3.873  15.534 -1.0189 -0.7986 -3.1048
 8936TIP3   OH248222   0.802   0.957  10.928 -0.4554  0.0279 -0.4267
 8936TIP3    H148223   0.866   0.968  10.858  0.0799  3.0672  0.4101
 8936TIP3    H248224   0.734   1.022  10.910 -0.6280  0.4311  1.4665
 8937TIP3   OH248225   0.423   3.624  11.654 -0.0191 -0.0873 -0.0081
 8937TIP3    H148226   0.398   3.557  11.590 -3.3712  2.0671 -1.1971
 8937TIP3    H248227   0.469   3.691  11.602 -0.2107  0.3502  0.3817
 8938TIP3   OH248228   2.145   5.890   1.904 -0.7563 -0.3226 -0.2690
 8938TIP3    H148229   2.199   5.841   1.842  0.1208  2.1414 -1.5665
 8938TIP3    H248230   2.199   5.964   1.931 -1.9697 -0.0783  1.7135
 8939TIP3   OH248231   2.559   0.657   1.478 -0.8303 -0.5152 -0.4236
 8939TIP3    H148232   2.464   0.673   1.472 -0.3546  2.5129 -2.4212
 8939TIP3    H248233   2.588   0.712   1.550 -0.4004  0.0923 -1.0415
 8940TIP3   OH248234   6.454   1.600   2.603  0.4338  0.3451 -0.2276
 8940TIP3    H148235   6.367   1.563   2.591  0.4271  0.7462 -1.5425
 8940TIP3    H248236   6.513   1.524   2.596  0.3786  0.4501 -2.3045
 8941TIP3   OH248237   6.284   5.455   1.127  0.2245  0.4785  0.2423
 8941TIP3    H148238   6.287   5.400   1.205 -1.1599  0.0267  0.0109
 8941TIP3    H248239   6.198   5.496   1.130 -0.3744 -0.5233 -1.6752
 8942TIP3   OH248240   1.720   0.232   5.392 -0.0860  0.0651  0.3956
 8942TIP3    H148241   1.635   0.235   5.347 -0.3202 -1.6644  0.6474
 8942TIP3    H248242   1.752   0.322   5.389 -0.9383  0.3617 -1.6172
 8943TIP3   OH248243   5.557   1.936  11.950  0.2051 -0.1977  0.0461
 8943TIP3    H148244   5.550   1.848  11.914 -4.1815  0.2073 -0.5592
 8943TIP3    H248245   5.605   1.985  11.883  1.2882 -1.7221 -0.3521
 8944TIP3   OH248246   0.063   6.570  12.101 -0.4346  0.0887  0.5272
 8944TIP3    H148247   0.031   6.484  12.128 -0.2372  0.8060  3.5007
 8944TIP3    H248248   0.136   6.551  12.042  0.7269 -1.9248  2.4257
 8945TIP3   OH248249   0.312   1.846   1.984 -0.1410 -0.0647  0.3047
 8945TIP3    H148250   0.276   1.821   2.069  0.0401  0.5221  0.5631
 8945TIP3    H248251   0.238   1.887   1.938 -0.1640 -0.1235  0.2889
 8946TIP3   OH248252   5.300   6.513  16.256 -0.4145  0.3855  0.5818
 8946TIP3    H148253   5.328   6.467  16.336 -1.6665  1.8318  1.9208
 8946TIP3    H248254   5.360   6.482  16.189  0.2531 -1.4195  1.9203
 8947TIP3   OH248255   0.572   1.243  10.605  0.1508 -0.2180 -0.0735
 8947TIP3    H148256   0.512   1.313  10.632 -1.4260 -1.6047  0.1842
 8947TIP3    H248257   0.576   1.251  10.510  0.0583  0.2795 -0.0400
 8948TIP3   OH248258   0.563   1.290  11.091 -0.5584  0.2699  0.4776
 8948TIP3    H148259   0.474   1.326  11.093 -0.3514  0.7840  0.2716
 8948TIP3    H248260   0.620   1.365  11.104 -0.1425 -0.0435  0.4768
 8949TIP3   OH248261   2.231   5.064  17.032 -0.2519  0.4660  0.5669
 8949TIP3    H148262   2.305   5.004  17.017 -0.3177  0.4654  0.2362
 8949TIP3    H248263   2.222   5.112  16.949 -1.1462 -0.1154  0.3100
 8950TIP3   OH248264   0.355   5.631   4.850 -0.2694 -0.1469 -0.0983
 8950TIP3    H148265   0.397   5.545   4.855 -1.0731 -0.8122 -2.7514
 8950TIP3    H248266   0.411   5.682   4.791 -1.3710  0.0786 -0.9893
 8951TIP3   OH248267   5.504   3.389  10.896 -0.3670  0.0250 -0.7744
 8951TIP3    H148268   5.444   3.448  10.943 -0.5856 -1.1542  0.5110
 8951TIP3    H248269   5.454   3.308  10.886 -1.0002  0.6811 -4.6822
 8952TIP3   OH248270   3.463   1.830   4.877  0.6044 -0.5589  0.0883
 8952TIP3    H148271   3.418   1.764   4.825  0.2967 -0.7650  0.6083
 8952TIP3    H248272   3.394   1.892   4.903  0.5688 -0.9811  1.0512
 8953TIP3   OH248273   1.241   6.683  11.520 -0.2685  0.8208 -0.3010
 8953TIP3    H148274   1.157   6.693  11.564  0.5966  0.9576  1.3643
 8953TIP3    H248275   1.293   6.628  11.578  0.9479  1.0758 -1.1085
 8954TIP3   OH248276   1.725   4.268  11.097  0.8629 -0.3137  0.3651
 8954TIP3    H148277   1.721   4.251  11.191  0.4673 -0.7663  0.2753
 8954TIP3    H248278   1.710   4.362  11.088  1.2491 -0.2099  0.7721
 8955TIP3   OH248279   5.487   4.113   5.516  0.2866 -0.2848 -0.0719
 8955TIP3    H148280   5.559   4.122   5.454  1.7892  2.6467  1.8313
 8955TIP3    H248281   5.408   4.131   5.465  1.1323 -0.8626 -1.6555
 8956TIP3   OH248282   1.860   5.822   0.642 -0.0906  0.3268 -0.0474
 8956TIP3    H148283   1.873   5.877   0.564  2.1195 -0.4701 -0.3145
 8956TIP3    H248284   1.880   5.879   0.716  0.5717  0.3286 -0.2283
 8957TIP3   OH248285   5.490   1.580  15.211  0.1957 -1.0258 -0.4135
 8957TIP3    H148286   5.474   1.650  15.274 -0.3602 -0.5750 -1.0346
 8957TIP3    H248287   5.583   1.559  15.221  0.8826  1.1651 -1.5527
 8958TIP3   OH248288   3.681   6.013   1.373  0.3421 -0.4926  0.3158
 8958TIP3    H148289   3.707   6.102   1.394  2.0984 -1.4276  2.4561
 8958TIP3    H248290   3.591   6.021   1.341 -0.1344  1.8589  2.0107
 8959TIP3   OH248291   0.534   3.214   1.707 -0.0457  0.8356 -0.0267
 8959TIP3    H148292   0.594   3.227   1.780 -0.4943  0.7404  0.3681
 8959TIP3    H248293   0.576   3.257   1.632 -0.4193  2.5396  0.7014
 8960TIP3   OH248294   0.635   6.139  13.751  0.5582  0.2301 -0.0523
 8960TIP3    H148295   0.636   6.230  13.722 -2.0155  0.5673  0.6692
 8960TIP3    H248296   0.544   6.112  13.744  1.2439 -2.3336 -0.2527
 8961TIP3   OH248297   6.724   0.464   5.193  0.3782  0.0349 -0.4448
 8961TIP3    H148298   6.697   0.507   5.111 -1.6764  0.3426  0.3335
 8961TIP3    H248299   6.715   0.531   5.260  2.6540 -0.0288  0.0031
 8962TIP3   OH248300   3.573   3.014  15.219 -0.2974 -0.2256 -0.1810
 8962TIP3    H148301   3.667   3.014  15.239 -0.3720  0.3945  0.1984
 8962TIP3    H248302   3.533   3.061  15.292 -1.1519 -2.2734  0.7423
 8963TIP3   OH248303   1.171   5.807  13.231 -0.5028 -0.4474  0.2488
 8963TIP3    H148304   1.206   5.806  13.320  0.8532  0.0020 -0.2549
 8963TIP3    H248305   1.098   5.744  13.233 -1.9205  1.1135  2.2135
 8964TIP3   OH248306   3.836   0.673  12.409  0.3333  0.4407 -0.0481
 8964TIP3    H148307   3.789   0.589  12.412  0.3294  0.4051 -0.8420
 8964TIP3    H248308   3.872   0.676  12.321  0.8527  1.0010  0.1803
 8965TIP3   OH248309   6.527   0.147   6.247  0.2596  0.7461  0.3399
 8965TIP3    H148310   6.551   0.066   6.292 -0.1713  1.4294  1.8431
 8965TIP3    H248311   6.537   0.216   6.312 -1.4510  1.6385 -0.2566
 8966TIP3   OH248312   6.485   0.346   4.733 -0.3819 -0.8612  0.2778
 8966TIP3    H148313   6.519   0.424   4.777  1.0065 -1.2725 -0.0152
 8966TIP3    H248314   6.398   0.372   4.702  0.1115  0.6305  0.0607
 8967TIP3   OH248315   3.762   4.350  16.658 -0.2426 -0.3151 -0.0516
 8967TIP3    H148316   3.780   4.301  16.578 -2.1901  2.1850 -2.2316
 8967TIP3    H248317   3.835   4.411  16.667  0.0542 -0.7030  0.1645
 8968TIP3   OH248318   5.377   3.305   2.795 -0.5694  0.0901  0.0472
 8968TIP3    H148319   5.336   3.305   2.881 -2.7534  0.6358 -0.9210
 8968TIP3    H248320   5.304   3.301   2.733  0.9207 -0.2201 -1.7920
 8969TIP3   OH248321   2.955   2.876   3.684  0.0711  0.6059  1.0824
 8969TIP3    H148322   2.903   2.805   3.724 -0.3166  0.8241  0.9687
 8969TIP3    H248323   3.042   2.837   3.671 -0.9068 -0.9328 -1.8810
 8970TIP3   OH248324   4.089   5.067   1.864 -0.4686  0.0210 -0.2667
 8970TIP3    H148325   4.032   5.000   1.903 -0.4435 -0.7442 -1.4968
 8970TIP3    H248326   4.035   5.107   1.795  0.3515 -0.4692 -1.2127
 8971TIP3   OH248327   4.299   1.169   5.336  0.0071  0.1373 -0.7485
 8971TIP3    H148328   4.237   1.138   5.270 -0.0344 -0.1883 -0.5605
 8971TIP3    H248329   4.286   1.264   5.339 -1.6511 -0.0807  0.4465
 8972TIP3   OH248330   4.887   6.313   6.438 -0.0535 -0.0237 -0.1615
 8972TIP3    H148331   4.942   6.238   6.460  1.7755  1.0922 -0.6958
 8972TIP3    H248332   4.949   6.383   6.419 -1.6888  1.3133 -0.8047
 8973TIP3   OH248333   0.013   0.302  15.526 -0.3048 -0.4251 -0.0378
 8973TIP3    H148334   0.083   0.279  15.464 -0.0483 -0.7872  0.3760
 8973TIP3    H248335   0.049   0.375  15.577  0.1636 -1.2371  0.8235
 8974TIP3   OH248336   3.221   4.363  15.184  0.8596  0.1610 -0.1087
 8974TIP3    H148337   3.304   4.314  15.182  0.8416  0.1491 -0.8392
 8974TIP3    H248338   3.176   4.332  15.262  2.0389  0.9775  0.9354
 8975TIP3   OH248339   1.590   4.183   1.111 -0.2837  0.8300 -0.2969
 8975TIP3    H148340   1.681   4.158   1.097 -0.1383  1.0550  0.2309
 8975TIP3    H248341   1.577   4.261   1.057 -1.0600 -0.9364 -2.8817
 8976TIP3   OH248342   1.381   5.340  12.892 -0.0037 -0.3732 -0.3589
 8976TIP3    H148343   1.346   5.383  12.970 -0.2570  1.5840 -1.4774
 8976TIP3    H248344   1.458   5.293  12.923 -0.3562 -0.0191  1.1444
 8977TIP3   OH248345   0.622   5.934   1.713 -0.5449  0.2209  0.5783
 8977TIP3    H148346   0.551   5.910   1.654  0.5368  0.4341 -0.8685
 8977TIP3    H248347   0.702   5.912   1.665  0.3821  0.2578  2.0349
 8978TIP3   OH248348   5.040   2.329  15.974  0.0503  0.2995  0.0750
 8978TIP3    H148349   4.985   2.382  16.032 -0.7210 -1.4562  1.0292
 8978TIP3    H248350   5.071   2.390  15.908  1.3797  2.5498  2.5806
 8979TIP3   OH248351   2.316   2.631   5.645 -0.4591 -0.0642  0.3278
 8979TIP3    H148352   2.263   2.622   5.566  1.9132 -2.3269 -1.1671
 8979TIP3    H248353   2.258   2.673   5.709 -3.2734 -0.4565 -1.8116
 8980TIP3   OH248354   5.059   6.713   4.761  0.2816 -0.3649  0.4955
 8980TIP3    H148355   5.004   6.731   4.684  0.2744 -1.6942  0.1722
 8980TIP3    H248356   5.110   6.793   4.773 -0.1530  0.0847 -0.5260
 8981TIP3   OH248357   5.376   2.263   5.037 -0.5333  0.0137  0.1226
 8981TIP3    H148358   5.438   2.289   5.104 -0.5966 -0.2538  0.2846
 8981TIP3    H248359   5.302   2.322   5.048  0.4169  1.5432 -1.2194
 8982TIP3   OH248360   6.758   4.116  16.343 -0.6289  0.3475 -0.8616
 8982TIP3    H148361   6.715   4.031  16.352 -0.7243  0.4760 -0.0016
 8982TIP3    H248362   6.796   4.115  16.255  0.0705 -0.9241 -0.5719
 8983TIP3   OH248363   6.529   6.433  16.534  0.2433  0.1792  0.3344
 8983TIP3    H148364   6.524   6.416  16.628  0.3663 -0.4433  0.2351
 8983TIP3    H248365   6.441   6.412  16.501  0.2683  0.1654  0.2767
 8984TIP3   OH248366   4.396   1.823  14.184 -0.2230  0.3456  0.1371
 8984TIP3    H148367   4.455   1.808  14.258  0.9568 -0.1660 -0.8566
 8984TIP3    H248368   4.317   1.860  14.223  0.9986  1.7212  1.4740
 8985TIP3   OH248369   4.642   4.295   0.875 -0.3262  0.1967 -0.0947
 8985TIP3    H148370   4.620   4.250   0.794  0.4806  1.1843 -0.8889
 8985TIP3    H248371   4.577   4.365   0.882  0.2486  0.7794 -0.4703
 8986TIP3   OH248372   0.291   6.037   0.507  1.0113  0.1027 -0.6851
 8986TIP3    H148373   0.385   6.055   0.515  1.5792 -2.1412 -1.4440
 8986TIP3    H248374   0.283   5.946   0.535 -1.3666  0.9343  1.7720
 8987TIP3   OH248375   2.595   1.784   1.464 -0.2172 -0.2185 -0.0074
 8987TIP3    H148376   2.543   1.779   1.384 -1.2827 -1.3040  0.7014
 8987TIP3    H248377   2.597   1.694   1.496 -1.5729  0.4532  2.2163
 8988TIP3   OH248378   5.451   2.886   3.466  0.5726  0.0076  0.2141
 8988TIP3    H148379   5.511   2.812   3.455 -0.0659 -0.2546 -2.3681
 8988TIP3    H248380   5.378   2.866   3.407 -0.5475  1.8024  0.9083
 8989TIP3   OH248381   4.672   1.480  13.920 -0.3773 -0.1234  0.3564
 8989TIP3    H148382   4.617   1.498  13.996 -0.3198  2.1783 -0.0709
 8989TIP3    H248383   4.670   1.561  13.869  0.9715 -1.0167 -1.2275
 8990TIP3   OH248384   5.787   5.722  12.775  0.9191 -0.1454 -0.8646
 8990TIP3    H148385   5.788   5.664  12.850  1.2940  0.3703 -0.4614
 8990TIP3    H248386   5.723   5.684  12.715  1.0027 -0.8423 -0.5119
 8991TIP3   OH248387   0.223   3.511   2.900  0.1587  0.1258 -0.3243
 8991TIP3    H148388   0.265   3.425   2.913  2.0872  0.9346 -0.7747
 8991TIP3    H248389   0.208   3.516   2.806 -1.5404 -0.3725 -0.1097
 8992TIP3   OH248390   6.745   1.465  13.676  0.8587 -0.3803 -0.1653
 8992TIP3    H148391   6.771   1.449  13.767  0.3189  0.7584  0.2155
 8992TIP3    H248392   6.805   1.412  13.624  1.8657 -0.2391  0.8085
 8993TIP3   OH248393   2.579   6.260  13.782 -0.8510  0.0408  0.0880
 8993TIP3    H148394   2.565   6.271  13.876  0.5228 -1.7545  0.5426
 8993TIP3    H248395   2.490   6.255  13.746 -1.5173  3.7349  0.7939
 8994TIP3   OH248396   6.026   0.323  10.866  0.4041 -0.0425 -0.3611
 8994TIP3    H148397   6.101   0.287  10.820  0.3418  1.3400 -1.6461
 8994TIP3    H248398   5.951   0.272  10.835  0.7127 -0.9362  0.3529
 8995TIP3   OH248399   4.483   1.351  11.934  0.3690 -0.6026  0.3281
 8995TIP3    H148400   4.427   1.305  11.872  1.4951 -0.9391 -0.4585
 8995TIP3    H248401   4.521   1.282  11.988  0.0782 -0.3832  0.8173
 8996TIP3   OH248402   4.141   4.233  14.146 -0.2661 -0.3971 -0.6232
 8996TIP3    H148403   4.211   4.189  14.194 -0.2951 -0.5976 -0.7623
 8996TIP3    H248404   4.062   4.181  14.166 -0.6696  0.6986  0.7483
 8997TIP3   OH248405   0.854   5.836   1.619  0.8103  0.2281 -0.2748
 8997TIP3    H148406   0.837   5.744   1.639  0.6109  0.1912 -0.6135
 8997TIP3    H248407   0.945   5.838   1.591  1.5834  0.4985  2.0184
 8998TIP3   OH248408   1.403   3.888   5.314 -0.2523  0.1026 -0.0241
 8998TIP3    H148409   1.373   3.799   5.296  1.8635 -0.4445 -1.2788
 8998TIP3    H248410   1.350   3.943   5.257  0.6518 -0.7681 -1.8062
 8999TIP3   OH248411   5.324   1.108  14.798  0.1221  0.3502 -0.5649
 8999TIP3    H148412   5.411   1.091  14.764 -0.6528 -0.1242 -2.4276
 8999TIP3    H248413   5.319   1.203  14.805  0.7349  0.3864 -0.5865
 9000TIP3   OH248414   3.395   3.107   4.583  0.1788 -0.7737  0.3682
 9000TIP3    H148415   3.457   3.074   4.648 -0.6003 -1.9637  0.5464
 9000TIP3    H248416   3.398   3.042   4.513  0.5206  0.1581 -0.4964
 9001TIP3   OH248417   1.249   4.236  14.047  0.1908  0.0988  0.2175
 9001TIP3    H148418   1.263   4.284  13.965  0.8313  1.6214  1.1597
 9001TIP3    H248419   1.155   4.218  14.049 -0.1318  1.6218 -0.0610
 9002TIP3   OH248420   3.819   1.177   3.531 -0.2594 -0.2012 -0.0785
 9002TIP3    H148421   3.783   1.169   3.443  1.2136  2.1559 -1.0123
 9002TIP3    H248422   3.914   1.172   3.518 -0.0488 -0.8562  1.5296
 9003TIP3   OH248423   1.469   5.211  15.676  0.0237 -0.0549  0.1544
 9003TIP3    H148424   1.457   5.215  15.771  2.0458 -0.0215  0.4619
 9003TIP3    H248425   1.551   5.162  15.665 -1.1141 -1.6634 -1.6756
 9004TIP3   OH248426   2.475   0.633   5.688 -0.3153  0.8929 -0.4850
 9004TIP3    H148427   2.475   0.707   5.627 -0.8080  0.0437 -1.5618
 9004TIP3    H248428   2.441   0.560   5.636 -0.7535  0.1323  0.8267
 9005TIP3   OH248429   5.714   4.888  14.052  0.1591  0.2945 -0.3368
 9005TIP3    H148430   5.671   4.829  14.115 -1.3293  0.8674 -0.7858
 9005TIP3    H248431   5.744   4.962  14.105 -0.0052  0.2074 -0.1192
 9006TIP3   OH248432   2.538   0.863   0.556 -0.0615  0.3462 -0.1415
 9006TIP3    H148433   2.513   0.928   0.621 -1.1323  0.5010 -0.6764
 9006TIP3    H248434   2.455   0.822   0.530  0.3238  0.3352 -1.4470
 9007TIP3   OH248435   2.794   2.142  15.451  0.2134 -0.6275 -0.3420
 9007TIP3    H148436   2.851   2.212  15.483 -0.0289 -0.1561 -0.9136
 9007TIP3    H248437   2.763   2.174  15.366 -1.0568 -0.7867  0.0492
 9008TIP3   OH248438   4.678   4.643  11.414  0.4893 -0.8322  0.1385
 9008TIP3    H148439   4.668   4.552  11.441  0.8730 -0.8433  0.2463
 9008TIP3    H248440   4.623   4.692  11.475 -0.7082 -1.1028 -0.6878
 9009TIP3   OH248441   1.270   0.255  10.864 -0.2393  0.0146  0.5655
 9009TIP3    H148442   1.307   0.202  10.793 -0.4014  2.6427 -1.6852
 9009TIP3    H248443   1.177   0.233  10.864 -0.2867  0.1490 -0.2683
 9010TIP3   OH248444   4.601   1.189  15.744  0.6705  0.1486  0.0969
 9010TIP3    H148445   4.694   1.194  15.767  0.9809 -2.1080 -0.4448
 9010TIP3    H248446   4.591   1.250  15.671  1.2276  1.9595  1.4543
 9011TIP3   OH248447   4.625   1.025  13.315 -0.9633  0.4006  0.3001
 9011TIP3    H148448   4.534   0.996  13.305 -0.3936 -0.7036 -2.7554
 9011TIP3    H248449   4.625   1.115  13.281 -0.8973  0.3955  0.2878
 9012TIP3   OH248450   2.570   5.372  15.420 -0.1914  0.1075  0.3434
 9012TIP3    H148451   2.564   5.356  15.326  0.0770  1.4064  0.0941
 9012TIP3    H248452   2.639   5.438  15.429  0.4262 -0.6640  1.5354
 9013TIP3   OH248453   0.363   4.569  16.655  0.4223  0.1823 -0.1131
 9013TIP3    H148454   0.449   4.547  16.621  0.0382  0.7924 -1.5578
 9013TIP3    H248455   0.340   4.497  16.714  1.6160 -0.3239 -0.2565
 9014TIP3   OH248456   4.086   6.298   1.027  0.4093  0.1165  0.3420
 9014TIP3    H148457   4.055   6.236   1.092  1.7917 -1.6191 -0.5620
 9014TIP3    H248458   4.114   6.244   0.953 -0.8164  1.9915 -1.6097
 9015TIP3   OH248459   4.866   4.752  14.276 -0.6284  0.1209 -0.1908
 9015TIP3    H148460   4.885   4.835  14.232  1.9154 -0.3662 -0.1600
 9015TIP3    H248461   4.879   4.771  14.369 -0.4268 -0.2100 -0.1500
 9016TIP3   OH248462   5.924   0.438  16.299 -0.0046 -0.1388 -0.0579
 9016TIP3    H148463   5.995   0.382  16.266  0.1007 -1.2591  1.9289
 9016TIP3    H248464   5.855   0.428  16.233  1.2542  0.1375 -1.4897
 9017TIP3   OH248465   2.401   4.769  11.327  0.0319 -0.0626 -0.2101
 9017TIP3    H148466   2.457   4.727  11.392  0.8181  1.2694  0.0126
 9017TIP3    H248467   2.432   4.859  11.323 -0.0797 -0.0636 -2.3401
 9018TIP3   OH248468   2.145   2.162   3.951  0.1337  0.9910  0.2870
 9018TIP3    H148469   2.183   2.088   3.999  0.1376  1.2168  0.6421
 9018TIP3    H248470   2.173   2.149   3.861 -0.4929  0.1524  0.2054
 9019TIP3   OH248471   6.497   4.648   4.894  0.1913  0.5006  0.1408
 9019TIP3    H148472   6.566   4.715   4.895 -0.6685  1.4192 -0.4091
 9019TIP3    H248473   6.544   4.566   4.878  1.2596  0.9668  0.7666
 9020TIP3   OH248474   3.535   3.117  12.247  0.7751  0.2080 -0.4044
 9020TIP3    H148475   3.451   3.096  12.205 -0.5385  0.5270  1.8474
 9020TIP3    H248476   3.518   3.199  12.293  2.8203  1.0484 -1.0657
 9021TIP3   OH248477   1.467   2.325  11.751  0.5086 -0.0225 -0.1629
 9021TIP3    H148478   1.555   2.308  11.786  0.3561  1.0952  0.8430
 9021TIP3    H248479   1.426   2.239  11.746  1.0558 -0.3779  1.0598
 9022TIP3   OH248480   4.756   3.473  14.783 -0.6203  0.0793 -0.0366
 9022TIP3    H148481   4.681   3.525  14.813 -0.9363 -0.3883 -0.0137
 9022TIP3    H248482   4.737   3.456  14.690  0.0200  0.9350 -0.3415
 9023TIP3   OH248483   0.136   5.320   4.316 -0.6442  0.1751 -0.3117
 9023TIP3    H148484   0.140   5.230   4.347 -0.7958  0.3924  0.3587
 9023TIP3    H248485   0.045   5.347   4.331 -1.1575 -0.1970 -2.3889
 9024TIP3   OH248486   1.996   1.909   3.430  0.0646 -0.2671 -0.0268
 9024TIP3    H148487   2.090   1.922   3.443  0.1896  0.9421 -1.7624
 9024TIP3    H248488   1.963   1.880   3.515  1.8837  0.0017  0.8048
 9025TIP3   OH248489   5.158   1.327   0.863  0.1067 -0.1222 -0.2028
 9025TIP3    H148490   5.187   1.262   0.799  0.1469  0.8394 -1.1901
 9025TIP3    H248491   5.234   1.383   0.876 -0.6368  1.1582 -1.2037
 9026TIP3   OH248492   5.194   1.977   5.951  0.4932 -0.1707  0.3193
 9026TIP3    H148493   5.275   1.999   5.905 -0.1095  1.1688 -0.1638
 9026TIP3    H248494   5.223   1.932   6.030  1.6421 -0.7765 -0.4200
 9027TIP3   OH248495   5.112   3.019   5.046 -0.3559 -0.7325  0.0741
 9027TIP3    H148496   5.085   2.939   5.092  0.0764 -0.9621 -0.0642
 9027TIP3    H248497   5.126   3.083   5.116 -2.3671 -0.2535  0.0771
 9028TIP3   OH248498   6.698   2.441  15.481  0.5613  0.1136  0.6379
 9028TIP3    H148499   6.763   2.442  15.411  2.5092 -3.4808  2.1339
 9028TIP3    H248500   6.633   2.377  15.453 -0.7446  1.4279  0.5358
 9029TIP3   OH248501   2.144   0.732  16.276  0.0170  0.0153 -0.0814
 9029TIP3    H148502   2.126   0.641  16.252  0.3112 -0.1296  0.2380
 9029TIP3    H248503   2.144   0.780  16.193  3.3599 -0.8555 -0.7520
 9030TIP3   OH248504   2.711   0.523   5.776 -0.3263 -0.1422 -0.1591
 9030TIP3    H148505   2.672   0.469   5.845  0.9263  2.0295  2.3750
 9030TIP3    H248506   2.636   0.552   5.724 -1.1190 -3.5757 -1.2498
 9031TIP3   OH248507   4.603   6.666  14.376 -0.1468 -0.1100  0.1738
 9031TIP3    H148508   4.646   6.604  14.434  0.0761 -0.5255 -0.4225
 9031TIP3    H248509   4.582   6.616  14.298 -0.9287  0.3099  0.1027
 9032TIP3   OH248510   1.200   4.265   1.692 -0.8289  0.5660 -0.3494
 9032TIP3    H148511   1.161   4.337   1.742 -0.4491  1.4743 -1.3384
 9032TIP3    H248512   1.293   4.287   1.686 -0.6725 -0.1150 -0.4920
 9033TIP3   OH248513   3.907   4.092  11.652 -0.1314 -0.8079  0.4913
 9033TIP3    H148514   3.841   4.156  11.681  1.6708  0.9030  1.0336
 9033TIP3    H248515   3.914   4.030  11.725 -0.8633 -0.7948  0.5831
 9034TIP3   OH248516   3.764   3.881   5.875  0.1173 -0.0218  0.0458
 9034TIP3    H148517   3.706   3.956   5.881 -0.8851 -0.8530  1.3066
 9034TIP3    H248518   3.813   3.881   5.957 -0.5757 -1.2534  0.4892
 9035TIP3   OH248519   6.284   2.560   1.368  0.0425 -0.6246 -0.0871
 9035TIP3    H148520   6.322   2.611   1.297 -0.6615 -1.0327 -0.7712
 9035TIP3    H248521   6.358   2.513   1.407  0.5804  0.3484  0.0857
 9036TIP3   OH248522   4.395   0.206   5.476  0.1602  0.3624  0.2491
 9036TIP3    H148523   4.411   0.298   5.455 -1.5437  0.4757 -0.7758
 9036TIP3    H248524   4.309   0.206   5.518 -0.5413 -0.8921 -1.1094
 9037TIP3   OH248525   1.386   1.729  14.599  0.0085  0.2214 -0.4327
 9037TIP3    H148526   1.338   1.810  14.618  2.3583  1.7773 -0.6829
 9037TIP3    H248527   1.471   1.742  14.640  0.9844 -1.4856 -1.7879
 9038TIP3   OH248528   3.743   3.227  12.422  0.0900 -0.2036 -0.1106
 9038TIP3    H148529   3.675   3.282  12.382  0.6082 -0.8749 -2.0092
 9038TIP3    H248530   3.706   3.138  12.419  0.9237 -0.5463 -0.9789
 9039TIP3   OH248531   6.505   4.823   4.275  0.3656  0.3308  0.3498
 9039TIP3    H148532   6.410   4.827   4.263  0.4329 -0.4035 -0.5793
 9039TIP3    H248533   6.520   4.745   4.328  0.3483  1.4894  2.1612
 9040TIP3   OH248534   2.254   1.718   0.170 -0.2020 -0.4849  0.5093
 9040TIP3    H148535   2.260   1.701   0.076 -1.7215 -0.5266  0.3949
 9040TIP3    H248536   2.236   1.633   0.209 -1.8578 -0.1223  0.5791
 9041TIP3   OH248537   1.768   2.785   4.174  0.1562  0.0937  0.4280
 9041TIP3    H148538   1.768   2.811   4.266  0.0954 -0.1633  0.5033
 9041TIP3    H248539   1.844   2.728   4.166  1.5739  1.9876 -0.2300
 9042TIP3   OH248540   0.513   2.851  11.881  0.2027  0.7411  0.5535
 9042TIP3    H148541   0.490   2.941  11.902  1.5090  1.3383 -0.4165
 9042TIP3    H248542   0.478   2.837  11.793  0.3859  0.4647  0.5229
 9043TIP3   OH248543   3.684   1.057   1.365  0.1266 -0.1391  0.4190
 9043TIP3    H148544   3.638   1.138   1.339  0.7172  0.0153 -0.1638
 9043TIP3    H248545   3.650   1.038   1.453  0.8891  1.4424  1.1054
 9044TIP3   OH248546   3.854   2.554  16.276  0.4740  0.1121  0.1800
 9044TIP3    H148547   3.891   2.629  16.230  1.3849 -0.4885 -0.1161
 9044TIP3    H248548   3.811   2.591  16.353  1.2408  0.9016  0.2431
 9045TIP3   OH248549   3.552   1.960  13.499  0.6035 -0.3493 -0.7326
 9045TIP3    H148550   3.541   1.868  13.521  0.1977 -0.4620 -1.3845
 9045TIP3    H248551   3.472   1.984  13.453 -0.1666  0.8707  1.1669
 9046TIP3   OH248552   4.619   5.646  15.145  0.1037 -0.1090 -0.3356
 9046TIP3    H148553   4.599   5.729  15.102  1.8441  1.5802  1.8507
 9046TIP3    H248554   4.577   5.654  15.231  1.9626 -0.5924  0.6623
 9047TIP3   OH248555   5.266   5.444  14.242 -0.1930 -0.4951 -0.4471
 9047TIP3    H148556   5.304   5.516  14.293  1.3140 -2.0219  0.6900
 9047TIP3    H248557   5.332   5.425  14.176 -0.3755 -1.1169 -0.4497
 9048TIP3   OH248558   5.801   6.037  14.228 -0.0232 -0.7188 -0.0537
 9048TIP3    H148559   5.751   6.103  14.276  0.5389 -0.5825  0.3471
 9048TIP3    H248560   5.735   5.990  14.178 -0.3313  0.7743 -1.1141
 9049TIP3   OH248561   4.465   2.747  11.075 -0.5111  0.2206  0.3103
 9049TIP3    H148562   4.457   2.800  11.153  0.5705 -0.9500  1.2725
 9049TIP3    H248563   4.406   2.673  11.089 -0.7205  0.2832 -0.2211
 9050TIP3   OH248564   1.926   6.739  16.594 -0.4435 -0.0540  0.2301
 9050TIP3    H148565   1.929   6.649  16.564 -2.8350 -0.2867  0.5362
 9050TIP3    H248566   2.007   6.750  16.645 -0.4990 -2.2554  0.8788
 9051TIP3   OH248567   5.899   0.434   5.239  0.0490  0.3668 -0.3431
 9051TIP3    H148568   5.881   0.458   5.330 -0.9991 -1.8814  0.0949
 9051TIP3    H248569   5.816   0.401   5.206  0.9525 -0.8843 -1.4372
 9052TIP3   OH248570   5.421   4.853  14.721 -0.3540 -0.5682 -0.6550
 9052TIP3    H148571   5.371   4.848  14.639 -1.7854  1.1972  0.0270
 9052TIP3    H248572   5.446   4.945  14.728 -1.1316 -0.4638  1.3611
 9053TIP3   OH248573   6.726   1.936  15.596  0.3254  0.3136  0.6541
 9053TIP3    H148574   6.756   2.027  15.597  1.4614 -0.0017 -0.7038
 9053TIP3    H248575   6.711   1.914  15.688 -1.7252  2.3981  0.9179
 9054TIP3   OH248576   3.793   3.159   2.529  0.4018  0.0303  0.2297
 9054TIP3    H148577   3.873   3.183   2.483 -0.2467  1.3506 -0.2474
 9054TIP3    H248578   3.728   3.223   2.500 -0.1686  0.6263  2.5854
 9055TIP3   OH248579   0.217   1.774  11.846 -0.2749 -0.5190 -0.1773
 9055TIP3    H148580   0.251   1.685  11.833  0.1619 -0.3839  0.0302
 9055TIP3    H248581   0.145   1.781  11.783  1.1100 -0.2538 -1.7876
 9056TIP3   OH248582   3.601   3.508   5.940 -0.3817 -0.0189  0.2943
 9056TIP3    H148583   3.633   3.434   5.991  1.8462  0.8983  0.3593
 9056TIP3    H248584   3.632   3.492   5.851  0.1312  0.8281  0.3096
 9057TIP3   OH248585   3.312   0.845  13.088  0.0615  0.2271 -0.2579
 9057TIP3    H148586   3.344   0.914  13.146 -0.3966 -0.3127  0.6702
 9057TIP3    H248587   3.231   0.880  13.051 -0.9117 -0.3006  1.2726
 9058TIP3   OH248588   3.567   5.612  11.897  0.1820  0.1864  0.3057
 9058TIP3    H148589   3.530   5.689  11.855  2.5760  0.0996 -2.2475
 9058TIP3    H248590   3.572   5.635  11.990 -1.6105  2.0187  0.0045
 9059TIP3   OH248591   5.161   0.057   1.597  0.2413  0.3411 -0.2978
 9059TIP3    H148592   5.084   0.015   1.633  1.2163 -1.0693  0.2150
 9059TIP3    H248593   5.128   0.139   1.559 -1.5246 -0.3449 -0.3345
 9060TIP3   OH248594   5.611   6.058   5.073  0.0101  0.1244  0.0588
 9060TIP3    H148595   5.678   6.003   5.034  1.0957  0.8462  0.8408
 9060TIP3    H248596   5.544   5.997   5.104  0.8400 -0.6997  0.2650
 9061TIP3   OH248597   1.925   6.547   0.201 -0.6906  0.0326 -0.6288
 9061TIP3    H148598   1.912   6.454   0.222 -1.1881  0.1131 -0.5878
 9061TIP3    H248599   1.893   6.594   0.277 -2.1622  0.3084 -1.3957
 9062TIP3   OH248600   1.324   0.303  14.651 -0.1877  0.1676 -0.5316
 9062TIP3    H148601   1.395   0.335  14.596 -0.3110 -1.3385 -1.6479
 9062TIP3    H248602   1.356   0.220  14.686 -0.6557  0.4287  0.5473
 9063TIP3   OH248603   5.297   3.523   2.026 -0.0696  0.2415 -0.6603
 9063TIP3    H148604   5.242   3.596   2.054 -1.7598 -1.6486  1.3408
 9063TIP3    H248605   5.238   3.464   1.979 -0.3620 -2.4492  2.6228
 9064TIP3   OH248606   5.768   2.523  17.332 -0.4311 -1.1198  0.1066
 9064TIP3    H148607   5.733   2.503  17.419 -0.9885  0.3552  0.2571
 9064TIP3    H248608   5.756   2.443  17.282 -1.6488 -1.4685  0.9217
 9065TIP3   OH248609   1.219   0.951  13.682  0.2979  0.1871 -0.0816
 9065TIP3    H148610   1.161   0.961  13.758  1.3107  1.2759  0.5725
 9065TIP3    H248611   1.301   0.993  13.708 -0.3630  3.7150 -2.9337
 9066TIP3   OH248612   5.562   3.244   2.504 -0.1784  0.1959 -0.3442
 9066TIP3    H148613   5.622   3.278   2.571 -0.7136  2.2139 -0.8103
 9066TIP3    H248614   5.504   3.185   2.552 -0.1374  1.0960  0.8644
 9067TIP3   OH248615   1.798   4.002  15.494 -0.2245  0.4461 -0.3706
 9067TIP3    H148616   1.841   3.917  15.486 -1.3251 -0.1845  0.1848
 9067TIP3    H248617   1.758   4.000  15.581  0.8841  2.0906  0.2212
 9068TIP3   OH248618   2.431   2.849   0.034  0.0043 -0.1794  0.0337
 9068TIP3    H148619   2.399   2.932  -0.001  1.4214  0.3196 -0.1176
 9068TIP3    H248620   2.526   2.851   0.020  0.0314 -2.0040 -0.3837
 9069TIP3   OH248621   5.901   1.213  11.589  0.1761 -0.2541  0.2440
 9069TIP3    H148622   5.900   1.295  11.638 -0.1794 -0.5191  0.6837
 9069TIP3    H248623   5.910   1.145  11.656 -0.7996 -0.6502 -0.0178
 9070TIP3   OH248624   6.607   5.212   0.928 -0.0051 -0.0152  0.4019
 9070TIP3    H148625   6.572   5.300   0.918  1.5734  0.7546  1.3943
 9070TIP3    H248626   6.599   5.174   0.840 -2.7315  0.2598  0.4192
 9071TIP3   OH248627   4.978   2.641   5.722  0.2068  0.2075  0.0883
 9071TIP3    H148628   5.043   2.570   5.722 -1.3194 -1.2980  2.2606
 9071TIP3    H248629   5.019   2.711   5.771  0.4564 -0.4958  0.9118
 9072TIP3   OH248630   3.875   1.195   1.723 -0.1014 -0.4790  0.4823
 9072TIP3    H148631   3.918   1.129   1.669 -1.1373 -1.2019  0.5145
 9072TIP3    H248632   3.925   1.275   1.706  0.8592 -1.1454  0.0485
 9073TIP3   OH248633   1.518   5.087   0.466  0.2959 -0.4053 -0.0954
 9073TIP3    H148634   1.517   5.168   0.518 -4.0382 -0.7523  0.6817
 9073TIP3    H248635   1.526   5.018   0.531 -2.1136 -0.7379 -0.0947
 9074TIP3   OH248636   6.579   4.228  15.193 -0.2754 -0.5697  0.0781
 9074TIP3    H148637   6.497   4.202  15.151 -0.3793 -0.1899  0.0358
 9074TIP3    H248638   6.552   4.268  15.276 -0.0685 -1.3566  0.5398
 9075TIP3   OH248639   5.930   3.566   0.374  0.1337 -0.0849 -0.0319
 9075TIP3    H148640   5.915   3.619   0.296  1.4746 -0.2044 -0.3911
 9075TIP3    H248641   5.946   3.478   0.340  1.7039  0.0592  0.2964
 9076TIP3   OH248642   2.315   5.567  15.770  0.4484 -0.1948 -0.6898
 9076TIP3    H148643   2.237   5.619  15.752  0.3224 -0.6880 -1.6766
 9076TIP3    H248644   2.388   5.624  15.743  0.4620  0.3447  0.4262
 9077TIP3   OH248645   1.908   6.351  13.023 -0.2372  0.0244 -0.0673
 9077TIP3    H148646   1.827   6.335  12.974 -0.4052  0.0938  0.1842
 9077TIP3    H248647   1.899   6.297  13.101  0.6965 -1.2561 -0.8128
 9078TIP3   OH248648   4.474   1.996   2.580  0.3299 -0.3732 -0.0160
 9078TIP3    H148649   4.544   2.016   2.642 -0.9704  1.8607  0.8669
 9078TIP3    H248650   4.500   2.041   2.499 -0.7683  1.8404  0.7996
 9079TIP3   OH248651   0.194   6.562   6.067 -0.0609  0.1342 -0.0719
 9079TIP3    H148652   0.142   6.530   6.140 -2.1703  1.3250 -0.9726
 9079TIP3    H248653   0.252   6.489   6.045  0.3319 -0.4112  2.4411
 9080TIP3   OH248654   0.470   4.420  14.185 -0.7746  0.7552 -0.3325
 9080TIP3    H148655   0.516   4.338  14.167  0.0153  0.9094  0.8209
 9080TIP3    H248656   0.378   4.401  14.168 -0.5664 -0.2883 -0.3667
 9081TIP3   OH248657   5.312   6.683   0.377  0.3562  0.5113  0.0515
 9081TIP3    H148658   5.372   6.735   0.324  1.5396  0.6534  1.4604
 9081TIP3    H248659   5.348   6.594   0.375  1.6158  0.8991  2.1820
 9082TIP3   OH248660   3.054   5.618  11.565  0.2646  0.0481 -0.7578
 9082TIP3    H148661   3.150   5.612  11.565  0.2542 -0.1266 -1.0344
 9082TIP3    H248662   3.025   5.530  11.590  0.1775  0.1557 -0.4747
 9083TIP3   OH248663   4.832   2.651   4.084  0.0661 -0.0480  0.6027
 9083TIP3    H148664   4.753   2.629   4.035  0.1924 -0.0452  0.3950
 9083TIP3    H248665   4.813   2.736   4.124  0.5171  0.7026 -0.6964
 9084TIP3   OH248666   3.018   1.148  17.262  0.5465  0.6138  0.3218
 9084TIP3    H148667   2.971   1.150  17.179  1.7233 -0.3883 -0.4150
 9084TIP3    H248668   3.087   1.214  17.251  1.1476 -0.0196  0.1970
 9085TIP3   OH248669   5.493   1.767  17.298  0.1772 -0.2873 -0.0984
 9085TIP3    H148670   5.474   1.716  17.377  0.5414 -0.8981 -0.3974
 9085TIP3    H248671   5.407   1.793  17.265 -0.1423 -2.2300 -0.9273
 9086TIP3   OH248672   1.715   3.088  12.405  0.9859 -0.3694 -0.5660
 9086TIP3    H148673   1.787   3.118  12.461  0.3856 -1.2836  0.7581
 9086TIP3    H248674   1.636   3.120  12.449  0.5034 -0.8850 -1.0415
 9087TIP3   OH248675   5.190   4.078   3.739  0.5405  0.1570 -0.9019
 9087TIP3    H148676   5.096   4.098   3.739  0.4127 -0.2487 -2.9320
 9087TIP3    H248677   5.195   3.985   3.717  1.3987 -0.2472  0.8395
 9088TIP3   OH248678   2.951   6.356  12.060 -0.4111  0.0254  0.2475
 9088TIP3    H148679   3.037   6.384  12.090 -0.8851  2.5490 -0.5358
 9088TIP3    H248680   2.968   6.306  11.980  0.3034  1.2671 -0.3949
 9089TIP3   OH248681   6.334   0.479   5.062  0.4405  0.4217  0.2942
 9089TIP3    H148682   6.356   0.548   5.125 -0.4651  1.6804 -0.7227
 9089TIP3    H248683   6.389   0.497   4.986 -0.7928  0.8784 -0.5138
 9090TIP3   OH248684   4.982   1.614  11.296 -0.6434 -0.4270 -0.5237
 9090TIP3    H148685   5.013   1.659  11.217 -0.8929  2.6894  0.9939
 9090TIP3    H248686   4.895   1.582  11.273 -1.0597  1.1754 -1.3213
 9091TIP3   OH248687   2.839   6.443  16.017  0.2974  0.0204 -0.1867
 9091TIP3    H148688   2.912   6.504  16.025  0.5898 -0.3709  0.2226
 9091TIP3    H248689   2.831   6.427  15.923  0.9089 -0.1306 -0.2169
 9092TIP3   OH248690   5.470   5.354  12.744 -0.2437  0.7581  0.1515
 9092TIP3    H148691   5.451   5.279  12.800 -1.3602  1.7629  1.1689
 9092TIP3    H248692   5.391   5.365  12.691  0.6032  0.1409 -1.3207
 9093TIP3   OH248693   2.145   0.107   4.640  0.2815 -0.2489  0.6390
 9093TIP3    H148694   2.155   0.013   4.654  0.9385 -0.0936  1.2135
 9093TIP3    H248695   2.166   0.147   4.724 -0.1403  0.4072  0.4426
 9094TIP3   OH248696   1.400   2.882   5.163  0.3597 -0.0610  0.7160
 9094TIP3    H148697   1.328   2.876   5.225 -0.2112 -0.2301  0.0445
 9094TIP3    H248698   1.455   2.953   5.198 -1.6803  2.1847 -0.3069
 9095TIP3   OH248699   0.321   4.993   1.696 -0.2066 -0.8622  0.1415
 9095TIP3    H148700   0.333   5.041   1.778 -0.6530  0.4527 -0.5311
 9095TIP3    H248701   0.393   4.929   1.695 -0.5660 -1.3432  1.8301
 9096TIP3   OH248702   6.621   1.311   1.196  0.4710 -0.0685  0.2306
 9096TIP3    H148703   6.575   1.394   1.180  2.0194  0.9074  0.5997
 9096TIP3    H248704   6.703   1.320   1.149  0.9098 -1.1760  0.7451
 9097TIP3   OH248705   0.848   3.404  12.550 -0.0276  0.7572 -0.7737
 9097TIP3    H148706   0.829   3.452  12.631  0.6815 -0.1132 -0.0596
 9097TIP3    H248707   0.764   3.363  12.527 -0.0930  0.4763 -0.0924
 9098TIP3   OH248708   4.958   1.601  13.623  0.0590 -0.0586 -0.7364
 9098TIP3    H148709   5.015   1.615  13.547  1.8675  1.3548  0.7787
 9098TIP3    H248710   4.888   1.665  13.612  1.0628  1.1110 -0.5754
 9099TIP3   OH248711   5.264   2.454   0.861  0.4272 -0.0849  0.2132
 9099TIP3    H148712   5.332   2.400   0.820  0.6166  0.7939 -0.6628
 9099TIP3    H248713   5.187   2.440   0.807  1.4194  3.3971 -2.4733
 9100TIP3   OH248714   3.112   0.709  12.268 -0.1439 -0.1886 -0.3411
 9100TIP3    H148715   3.181   0.696  12.203 -0.8810 -2.9786 -0.6927
 9100TIP3    H248716   3.049   0.640  12.250 -1.8587  0.7841  1.5142
 9101TIP3   OH248717   4.693   1.265   2.577  0.1026  0.5698  0.2569
 9101TIP3    H148718   4.686   1.360   2.574  0.7086  0.6335  0.6790
 9101TIP3    H248719   4.608   1.235   2.609 -0.0412  0.9714  0.2535
 9102TIP3   OH248720   2.850   5.603   4.710 -0.0405 -0.2871  0.1857
 9102TIP3    H148721   2.920   5.537   4.719 -0.2896 -0.5408  0.2890
 9102TIP3    H248722   2.770   5.551   4.702 -0.2487  0.0075  0.3607
 9103TIP3   OH248723   5.919   1.619  10.998  0.1436  0.5773  0.2876
 9103TIP3    H148724   5.975   1.630  11.076 -2.0067  2.1207  1.7389
 9103TIP3    H248725   5.880   1.533  11.008  1.5063 -0.1415 -0.2788
 9104TIP3   OH248726   3.383   4.547   1.056 -0.1171 -0.1601 -0.2337
 9104TIP3    H148727   3.477   4.565   1.050 -0.1095 -0.5257 -1.5813
 9104TIP3    H248728   3.371   4.464   1.009 -1.0925 -0.1691  0.0079
 9105TIP3   OH248729   2.367   4.476  15.890  0.2191  0.0728  0.0132
 9105TIP3    H148730   2.286   4.424  15.883  0.0108  0.2167  1.2364
 9105TIP3    H248731   2.340   4.565  15.871 -0.3646  0.4763  2.4587
 9106TIP3   OH248732   4.742   2.373  16.568  0.0373  0.3844  0.1398
 9106TIP3    H148733   4.778   2.285  16.574  0.4434  0.5256 -0.1678
 9106TIP3    H248734   4.809   2.423  16.522  0.5030  1.2358  1.6770
 9107TIP3   OH248735   6.141   4.681   0.244 -0.2304 -0.4949  1.1198
 9107TIP3    H148736   6.162   4.620   0.315 -1.4701 -1.8187  0.3998
 9107TIP3    H248737   6.081   4.744   0.284  0.2976 -0.2902  1.6184
 9108TIP3   OH248738   0.507   1.515   6.027 -0.2549  0.0671 -0.2653
 9108TIP3    H148739   0.573   1.538   6.093  0.6316  0.1935 -1.1632
 9108TIP3    H248740   0.470   1.433   6.057  0.3109  0.0032  0.2675
 9109TIP3   OH248741   5.873   3.650   5.075  0.0544  0.2722  0.2107
 9109TIP3    H148742   5.809   3.657   5.004  0.2476  0.1545  0.0211
 9109TIP3    H248743   5.940   3.591   5.040  0.6611  1.0109  0.1049
 9110TIP3   OH248744   3.143   4.257  16.420  0.1560  0.0030  0.2754
 9110TIP3    H148745   3.174   4.225  16.335 -0.2570 -0.8043  0.4199
 9110TIP3    H248746   3.203   4.328  16.441  1.6955 -1.2522  0.3502
 9111TIP3   OH248747   0.436   4.788   0.117  0.6276 -0.5434 -0.3014
 9111TIP3    H148748   0.498   4.794   0.044  0.7125 -1.0164 -0.2653
 9111TIP3    H248749   0.366   4.731   0.085 -0.5707  1.1774 -0.9033
 9112TIP3   OH248750   0.507   3.415   0.629  0.3449  0.0042 -0.2337
 9112TIP3    H148751   0.513   3.385   0.538  0.1980  1.7326 -0.8517
 9112TIP3    H248752   0.414   3.409   0.650 -0.1747  2.5856 -1.3515
 9113TIP3   OH248753   2.109   0.284  12.138  0.4497 -0.0389 -0.7622
 9113TIP3    H148754   2.019   0.296  12.107 -0.7111  0.6691  2.4164
 9113TIP3    H248755   2.145   0.215  12.083 -2.5326 -1.3496 -1.2550
 9114TIP3   OH248756   0.866   2.783   1.784  0.6448 -0.0285  0.2608
 9114TIP3    H148757   0.869   2.795   1.879  3.0267 -0.0957  0.2363
 9114TIP3    H248758   0.929   2.846   1.750  0.9531 -1.0709 -1.1627
 9115TIP3   OH248759   5.553   0.431   2.998  0.1924 -0.1888  0.2435
 9115TIP3    H148760   5.537   0.504   2.939  0.2529  0.4560  1.0042
 9115TIP3    H248761   5.646   0.438   3.019  0.5305 -1.3360 -0.7792
 9116TIP3   OH248762   1.398   5.315   1.112  0.5970 -0.6370  0.1702
 9116TIP3    H148763   1.435   5.272   1.035  1.6741  0.4541  0.0256
 9116TIP3    H248764   1.471   5.367   1.146 -0.2583 -0.0339  1.1174
 9117TIP3   OH248765   6.473   0.399  13.521  0.7451 -0.1084 -0.3849
 9117TIP3    H148766   6.443   0.441  13.440 -1.3456 -1.7727 -0.5536
 9117TIP3    H248767   6.447   0.308  13.512  0.2925 -0.3112  2.2183
 9118TIP3   OH248768   6.115   1.061   1.548 -0.2231 -0.2693 -0.0239
 9118TIP3    H148769   6.029   1.046   1.584 -0.4804 -0.1099 -0.5509
 9118TIP3    H248770   6.099   1.110   1.467  0.3378 -0.5081 -0.2889
 9119TIP3   OH248771   4.856   5.313  12.027  0.3633 -0.3601  0.5124
 9119TIP3    H148772   4.856   5.218  12.013  0.0057 -0.4504  1.0955
 9119TIP3    H248773   4.943   5.342  11.998 -0.4527 -0.4453 -2.3732
 9120TIP3   OH248774   2.917   1.699   0.779 -0.6237  0.5924 -0.3179
 9120TIP3    H148775   2.859   1.657   0.842  1.1181 -0.7292  0.4934
 9120TIP3    H248776   2.859   1.726   0.708 -2.0611 -1.8504 -0.1850
 9121TIP3   OH248777   1.885   6.417   0.470 -0.0783  0.4493 -0.1094
 9121TIP3    H148778   1.920   6.478   0.535 -1.1827 -1.0621  2.0383
 9121TIP3    H248779   1.962   6.389   0.420  1.1336  0.4211  1.6578
 9122TIP3   OH248780   5.878   4.179  14.789  0.1677 -0.2694 -0.4111
 9122TIP3    H148781   5.914   4.131  14.714 -2.0633 -2.5224 -0.1619
 9122TIP3    H248782   5.852   4.111  14.851 -3.1364  1.1754  0.0115
 9123TIP3   OH248783   1.459   2.194  14.869  0.4112  0.3597  0.0600
 9123TIP3    H148784   1.453   2.153  14.955  0.6336 -2.5778 -1.2276
 9123TIP3    H248785   1.370   2.227  14.852 -0.2271 -1.0575  0.5113
 9124TIP3   OH248786   5.937   4.081  14.516 -0.4944  0.2870 -0.1024
 9124TIP3    H148787   6.006   4.136  14.480  0.1209 -1.2440 -1.3596
 9124TIP3    H248788   5.866   4.087  14.453 -0.5122 -0.1546 -0.1285
 9125TIP3   OH248789   4.311   3.824  15.986  0.4513 -0.0237 -0.5030
 9125TIP3    H148790   4.238   3.862  15.937 -0.3217 -0.8755 -0.0475
 9125TIP3    H248791   4.338   3.893  16.046  0.0718  0.3231 -0.7270
 9126TIP3   OH248792   5.599   4.775  13.848  0.0448  0.2139 -0.5712
 9126TIP3    H148793   5.598   4.839  13.777 -0.2425 -1.3191 -2.0224
 9126TIP3    H248794   5.655   4.814  13.915  0.9023  1.4183 -1.9217
 9127TIP3   OH248795   5.498   3.499   1.338  0.4742 -0.1855  0.6347
 9127TIP3    H148796   5.526   3.475   1.249 -1.4663  1.0301 -0.3867
 9127TIP3    H248797   5.422   3.555   1.324  1.2755  1.6541  3.0311
 9128TIP3   OH248798   1.173   5.058   4.047 -0.3941  0.1797 -0.4050
 9128TIP3    H148799   1.122   4.981   4.020 -1.1917 -0.8435  3.4001
 9128TIP3    H248800   1.109   5.117   4.087  0.6013  1.7042 -0.9644
 9129TIP3   OH248801   3.800   5.292   1.870  0.0379 -0.6048  0.6449
 9129TIP3    H148802   3.722   5.242   1.893  0.4617 -0.6678  2.0685
 9129TIP3    H248803   3.767   5.379   1.849 -0.4466 -0.7222  0.9029
 9130TIP3   OH248804   5.563   1.240   6.267  0.1329  0.7296  0.1814
 9130TIP3    H148805   5.513   1.298   6.209 -0.8530  0.8388  1.1284
 9130TIP3    H248806   5.619   1.299   6.318  0.0014  0.7429  0.3086
 9131TIP3   OH248807   0.568   0.922   1.790  0.5427  0.3507  0.0604
 9131TIP3    H148808   0.575   1.016   1.773  3.6064  0.2724  0.3518
 9131TIP3    H248809   0.634   0.883   1.733 -1.0097 -1.7356 -0.4359
 9132TIP3   OH248810   6.759   0.731  11.711  0.3743 -0.3894 -0.5421
 9132TIP3    H148811   6.678   0.768  11.679 -0.0167 -0.9468 -0.2287
 9132TIP3    H248812   6.775   0.776  11.794  0.1081 -0.6370 -0.3527
 9133TIP3   OH248813   1.652   2.509   0.528  0.9290 -0.5416 -0.1204
 9133TIP3    H148814   1.613   2.427   0.500 -0.5867  0.8046 -2.2689
 9133TIP3    H248815   1.577   2.566   0.547  1.9092 -0.0743  2.9802
 9134TIP3   OH248816   4.379   0.253   0.947  0.5323 -0.6284 -0.2561
 9134TIP3    H148817   4.404   0.199   0.872 -0.0263 -0.7975 -0.3260
 9134TIP3    H248818   4.394   0.343   0.919 -0.0918 -0.6691 -0.7357
 9135TIP3   OH248819   4.585   3.651  15.126  0.3019  0.1248  0.7715
 9135TIP3    H148820   4.556   3.656  15.035 -1.8997  0.9817  1.4648
 9135TIP3    H248821   4.639   3.572  15.130  0.3399  0.0120 -1.2344
 9136TIP3   OH248822   1.211   5.882   6.599  0.2480 -0.1959  0.1658
 9136TIP3    H148823   1.271   5.898   6.527  2.2253  2.8766  2.2504
 9136TIP3    H248824   1.240   5.799   6.637  2.2596  0.4503  0.1507
 9137TIP3   OH248825   1.168   6.388   2.780 -0.8668  0.1999 -0.0651
 9137TIP3    H148826   1.164   6.418   2.689 -1.2208  0.0910 -0.0878
 9137TIP3    H248827   1.237   6.322   2.780 -0.9168  0.1476 -0.2709
 9138TIP3   OH248828   0.390   5.084  16.934 -0.1262  0.0435  0.2012
 9138TIP3    H148829   0.433   5.071  17.019 -1.2345 -0.4648  0.7114
 9138TIP3    H248830   0.387   4.996  16.896 -0.4281  0.1245  0.0372
 9139TIP3   OH248831   5.473   1.281   0.569  0.1849  0.0533 -0.1778
 9139TIP3    H148832   5.508   1.254   0.653  0.4673 -2.3424 -0.9925
 9139TIP3    H248833   5.385   1.243   0.566 -0.0653  0.6466 -0.7329
 9140TIP3   OH248834   0.431   6.207  16.442 -0.4395  0.3167 -0.2990
 9140TIP3    H148835   0.364   6.269  16.415 -0.6908  0.2778  0.2251
 9140TIP3    H248836   0.483   6.255  16.507 -0.2297  0.2032 -0.3816
 9141TIP3   OH248837   2.950   2.922   6.070 -0.1138  0.3392 -0.1192
 9141TIP3    H148838   2.931   2.847   6.012 -0.7600  0.4732 -0.0892
 9141TIP3    H248839   2.873   2.979   6.061 -1.3793 -0.7368  2.6641
 9142TIP3   OH248840   0.764   5.880   5.854  0.5194  0.1618  0.1555
 9142TIP3    H148841   0.700   5.933   5.902  0.3229  0.3488 -0.3033
 9142TIP3    H248842   0.838   5.872   5.914  1.0430  1.9629 -0.1758
 9143TIP3   OH248843   4.738   6.261   4.228 -0.0265  0.5148  0.3575
 9143TIP3    H148844   4.770   6.215   4.151 -0.0186 -0.8744  1.1696
 9143TIP3    H248845   4.652   6.295   4.201  0.4663  1.0213 -0.6134
 9144TIP3   OH248846   3.162   0.598   3.227  0.5212 -0.1889 -0.9911
 9144TIP3    H148847   3.099   0.554   3.284  1.5435 -0.9917 -0.4329
 9144TIP3    H248848   3.121   0.598   3.141 -0.4566 -0.2155 -0.5390
 9145TIP3   OH248849   1.053   0.271  16.967 -0.1527  0.0768  0.2802
 9145TIP3    H148850   1.090   0.215  16.899  0.4036  1.0426 -0.2334
 9145TIP3    H248851   1.013   0.343  16.918  1.7632  1.7019  1.0101
 9146TIP3   OH248852   5.057   3.849  14.332  0.7440 -0.2947 -0.0497
 9146TIP3    H148853   5.037   3.770  14.283 -0.5313 -0.9245  1.3915
 9146TIP3    H248854   5.097   3.818  14.413 -0.1383  0.4793  0.7124
 9147TIP3   OH248855   0.553   4.496   2.390 -0.3900 -0.8219 -0.7761
 9147TIP3    H148856   0.584   4.586   2.387  0.6867 -1.1863 -0.8749
 9147TIP3    H248857   0.486   4.496   2.459 -0.5821  0.0946 -0.9479
 9148TIP3   OH248858   3.133   0.387   2.825  0.1127  0.1538 -0.3835
 9148TIP3    H148859   3.063   0.324   2.842 -1.3626  1.6173 -0.7729
 9148TIP3    H248860   3.199   0.337   2.776 -0.3771 -1.3999  0.4830
 9149TIP3   OH248861   3.872   1.355   0.308 -1.0834  0.0203  0.1537
 9149TIP3    H148862   3.876   1.411   0.230  0.4711  0.2571  0.3788
 9149TIP3    H248863   3.928   1.280   0.287 -2.8107 -1.3047  0.0226
 9150TIP3   OH248864   5.737   0.659   5.067 -0.7808  0.4917  0.6224
 9150TIP3    H148865   5.791   0.719   5.118 -0.9460 -0.1513  1.5832
 9150TIP3    H248866   5.720   0.706   4.985  2.0712  0.3037 -0.1788
 9151TIP3   OH248867   3.185   0.887   4.249 -0.7305  0.0394 -0.1115
 9151TIP3    H148868   3.116   0.942   4.286 -0.7493 -0.3912  0.5137
 9151TIP3    H248869   3.207   0.928   4.165 -1.5147  0.3672 -0.1630
 9152TIP3   OH248870   5.254   0.136  11.680 -0.7713 -0.4897 -0.2903
 9152TIP3    H148871   5.216   0.146  11.592 -1.5301  0.0079  0.0799
 9152TIP3    H248872   5.313   0.210  11.689 -0.9322 -0.3645 -0.2624
 9153TIP3   OH248873   2.288   4.675   4.589 -0.0897 -0.5581  0.0716
 9153TIP3    H148874   2.341   4.745   4.550 -1.3579 -0.4140 -1.4759
 9153TIP3    H248875   2.201   4.687   4.551 -1.3770 -0.6030  2.7599
 9154TIP3   OH248876   4.915   4.754   4.045  0.5688 -0.1684 -0.0317
 9154TIP3    H148877   4.852   4.770   4.115  0.4803 -0.2490 -0.0914
 9154TIP3    H248878   4.890   4.815   3.976  1.5033  0.8731  0.5348
 9155TIP3   OH248879   5.375   2.984  15.279 -0.1094  0.5429 -0.0458
 9155TIP3    H148880   5.438   2.927  15.323 -0.2223  0.1955 -0.3269
 9155TIP3    H248881   5.290   2.955  15.312 -0.3924 -1.2490 -2.1328
 9156TIP3   OH248882   0.190   4.099   6.316  0.1636  0.0380  0.0981
 9156TIP3    H148883   0.264   4.158   6.298  0.8087 -1.0781 -1.1182
 9156TIP3    H248884   0.232   4.017   6.341 -0.7189  0.3286  2.9410
 9157TIP3   OH248885   4.735   1.893  16.390  0.3985 -0.2125  0.0599
 9157TIP3    H148886   4.704   1.983  16.392 -1.3517 -0.7293 -1.3365
 9157TIP3    H248887   4.670   1.846  16.338  1.4661 -2.2142  0.4200
 9158TIP3   OH248888   5.645   0.366   4.754  0.1833  0.7098 -0.1016
 9158TIP3    H148889   5.627   0.458   4.734 -1.0923  0.5342  0.1606
 9158TIP3    H248890   5.722   0.345   4.702 -1.1010  1.1807 -2.3293
 9159TIP3   OH248891   6.529   1.867   1.598  0.1137  0.3746  0.0607
 9159TIP3    H148892   6.568   1.807   1.661 -1.6771 -0.8912  0.0500
 9159TIP3    H248893   6.482   1.931   1.651 -0.0183  0.2904  0.0469
 9160TIP3   OH248894   1.722   2.007  13.334 -0.0861  0.2953 -0.3029
 9160TIP3    H148895   1.737   1.991  13.241 -1.4779  1.5626 -0.7891
 9160TIP3    H248896   1.630   1.982  13.348  0.2511 -0.3700  0.8632
 9161TIP3   OH248897   3.785   5.157  15.180 -0.5709  0.1397  0.1318
 9161TIP3    H148898   3.731   5.103  15.238 -1.6160  0.3065 -0.6788
 9161TIP3    H248899   3.867   5.107  15.171 -0.8736 -0.4840  0.7488
 9162TIP3   OH248900   0.998   0.297   6.306 -0.3297 -0.5205 -0.2598
 9162TIP3    H148901   0.946   0.254   6.374 -0.5460  0.6565  0.3524
 9162TIP3    H248902   1.061   0.231   6.278 -0.6701 -1.2370  0.6212
 9163TIP3   OH248903   2.088   3.870   1.641 -0.0587  0.6196 -0.4462
 9163TIP3    H148904   2.061   3.915   1.721  1.3303 -0.1630  0.5041
 9163TIP3    H248905   2.160   3.923   1.607  1.2452 -0.5506  0.4021
 9164TIP3   OH248906   4.034   2.112  14.084  0.5032 -0.1565  0.3137
 9164TIP3    H148907   3.948   2.154  14.072  0.2677 -0.3334  1.2778
 9164TIP3    H248908   4.095   2.185  14.095  0.4495 -0.0316 -0.2092
 9165TIP3   OH248909   6.303   6.607   4.611 -0.1056 -0.0829  0.2617
 9165TIP3    H148910   6.217   6.589   4.650  0.9179 -3.0935  1.4253
 9165TIP3    H248911   6.312   6.702   4.617 -2.1060  0.0676  2.8746
 9166TIP3   OH248912   5.505   5.576  14.901 -0.1527  0.1843 -0.0950
 9166TIP3    H148913   5.589   5.622  14.904 -0.6645  1.2571 -1.0248
 9166TIP3    H248914   5.500   5.528  14.983  0.5445  1.6189  0.8259
 9167TIP3   OH248915   1.306   6.445   5.045 -0.5954 -0.3795 -0.1781
 9167TIP3    H148916   1.236   6.442   5.110 -1.3825  0.2927 -0.9716
 9167TIP3    H248917   1.298   6.531   5.004 -0.0609 -0.7550 -1.1086
 9168TIP3   OH248918   1.287   2.065  14.545  0.1872  0.1386  0.1828
 9168TIP3    H148919   1.345   2.104  14.480 -1.0675  1.3586 -0.2496
 9168TIP3    H248920   1.199   2.093  14.519 -0.4529 -0.3352  1.7217
 9169TIP3   OH248921   2.807   5.606   3.224  0.5211 -0.2630 -0.5019
 9169TIP3    H148922   2.809   5.683   3.168  0.3763  2.0095  2.3943
 9169TIP3    H248923   2.891   5.606   3.268 -0.1635 -0.7014  0.8536
 9170TIP3   OH248924   6.505   4.076   0.116 -0.0023 -0.2095 -0.8208
 9170TIP3    H148925   6.484   4.011   0.049  2.1069 -0.7493 -1.0170
 9170TIP3    H248926   6.514   4.158   0.067 -0.4737 -0.1867 -0.8803
 9171TIP3   OH248927   4.576   4.594   5.874 -0.3444 -0.2323  0.8660
 9171TIP3    H148928   4.496   4.645   5.862 -0.0169  0.1952  0.4483
 9171TIP3    H248929   4.549   4.518   5.927 -1.3410 -0.8796 -0.5048
 9172TIP3   OH248930   2.414   4.733   6.595 -0.1158 -0.0162  0.3954
 9172TIP3    H148931   2.333   4.760   6.639 -1.1131 -0.3863 -1.1520
 9172TIP3    H248932   2.463   4.687   6.663 -0.9077  0.7499  1.5362
 9173TIP3   OH248933   0.155   1.717  12.498  0.1304  0.0053 -0.3187
 9173TIP3    H148934   0.210   1.742  12.423  0.4184  0.2006 -0.0450
 9173TIP3    H248935   0.067   1.712  12.462  0.1319  1.0052 -0.4735
 9174TIP3   OH248936   2.014   3.127  16.903  0.1236  0.3704  0.2360
 9174TIP3    H148937   1.953   3.154  16.972  0.0753  1.6705 -0.2655
 9174TIP3    H248938   2.011   3.032  16.903 -1.0957  0.3881  0.9517
 9175TIP3   OH248939   1.826   1.233   5.118 -0.5446  0.1750  0.4734
 9175TIP3    H148940   1.861   1.320   5.136 -0.4666  0.3296 -0.3706
 9175TIP3    H248941   1.813   1.231   5.023  1.0653 -1.3142  0.2290
 9176TIP3   OH248942   3.059   3.752  16.679  0.5412 -0.4650  0.0013
 9176TIP3    H148943   3.007   3.766  16.600  1.1897 -0.1315 -0.3786
 9176TIP3    H248944   3.149   3.765  16.650  0.6513  4.1789  1.6614
 9177TIP3   OH248945   0.625   3.145  11.275  0.2233 -0.4240 -0.0124
 9177TIP3    H148946   0.618   3.187  11.190 -2.6495  1.3010  0.9391
 9177TIP3    H248947   0.649   3.215  11.335  1.0885 -1.3836  0.8106
 9178TIP3   OH248948   3.798   5.116  12.603  0.1242 -0.3105 -0.2549
 9178TIP3    H148949   3.889   5.143  12.592  0.5058 -1.8702 -1.1238
 9178TIP3    H248950   3.770   5.159  12.685  1.9795 -0.7347  0.6494
 9179TIP3   OH248951   4.242   0.787   3.966  0.1599 -0.6418 -0.6297
 9179TIP3    H148952   4.244   0.715   4.030  0.3181  0.5367  0.7334
 9179TIP3    H248953   4.320   0.774   3.913 -0.4342 -2.1505 -1.1952
 9180TIP3   OH248954   1.422   4.879   4.075  0.0111 -0.4960 -0.2571
 9180TIP3    H148955   1.352   4.814   4.068 -2.4039  1.8637  0.2077
 9180TIP3    H248956   1.376   4.961   4.092  2.8337  1.5329 -1.6836
 9181TIP3   OH248957   0.176   0.354   2.502 -0.1146 -0.2557  0.7548
 9181TIP3    H148958   0.217   0.267   2.506 -3.4573 -2.0996 -0.5180
 9181TIP3    H248959   0.130   0.355   2.418 -2.3559  1.6607  1.8764
 9182TIP3   OH248960   5.814   2.053  13.818 -0.0142 -0.2680  0.1321
 9182TIP3    H148961   5.807   2.077  13.725 -0.8073  1.1314  0.5241
 9182TIP3    H248962   5.726   2.023  13.841 -0.0738  0.3320  0.6807
 9183TIP3   OH248963   0.167   1.273  13.582  0.6947 -0.2101 -0.3023
 9183TIP3    H148964   0.255   1.290  13.615  0.7580  0.6284 -0.8800
 9183TIP3    H248965   0.144   1.187  13.618  1.4938 -0.1561  0.3698
 9184TIP3   OH248966   1.835   1.444   2.343  0.1774  0.3388 -0.4180
 9184TIP3    H148967   1.865   1.400   2.264 -1.3820  1.0789 -1.4823
 9184TIP3    H248968   1.879   1.529   2.341  2.0975 -0.5565  0.8974
 9185TIP3   OH248969   6.584   3.604   4.846  0.0769  0.4512  0.2516
 9185TIP3    H148970   6.609   3.592   4.755  0.9158  0.2103  0.5031
 9185TIP3    H248971   6.488   3.613   4.844  0.1351  0.9510 -0.6940
 9186TIP3   OH248972   4.703   0.944   1.617 -0.3225  0.2587  0.4045
 9186TIP3    H148973   4.724   0.981   1.702  1.8488 -1.0125  0.4965
 9186TIP3    H248974   4.689   0.851   1.634 -3.0131  0.4493 -0.2248
 9187TIP3   OH248975   6.192   3.535  12.486  0.2645  0.5212 -0.2068
 9187TIP3    H148976   6.107   3.542  12.530  1.3382  1.6334  1.8427
 9187TIP3    H248977   6.252   3.504  12.553  1.4300 -0.8288 -1.7655
 9188TIP3   OH248978   6.133   1.870  15.230  0.6201  0.1349 -0.2006
 9188TIP3    H148979   6.177   1.934  15.175 -1.2075  2.3207  0.7403
 9188TIP3    H248980   6.044   1.866  15.196  0.0212 -0.0172  1.3027
 9189TIP3   OH248981   0.716   2.577  13.556  1.1349  0.1076  0.2064
 9189TIP3    H148982   0.706   2.482  13.549 -0.1223  0.3062 -1.3040
 9189TIP3    H248983   0.810   2.591  13.563  1.3147 -1.2618  0.8257
 9190TIP3   OH248984   2.264   5.999   5.049 -0.1824  0.3710 -0.4468
 9190TIP3    H148985   2.261   6.089   5.082  0.1306  0.7197 -1.3281
 9190TIP3    H248986   2.215   5.948   5.114 -4.0487  1.8180 -1.9105
 9191TIP3   OH248987   4.352   0.975  13.171 -0.8485 -0.0789 -0.2692
 9191TIP3    H148988   4.257   0.969  13.164 -0.9068  0.1761  0.2478
 9191TIP3    H248989   4.385   0.948  13.085 -1.3992  0.1809 -0.5628
 9192TIP3   OH248990   4.850   1.896   1.572  0.0500 -0.3241 -0.9499
 9192TIP3    H148991   4.831   1.953   1.647  2.6469 -0.2615 -0.2487
 9192TIP3    H248992   4.765   1.858   1.550 -1.1639  1.1853  0.7370
 9193TIP3   OH248993   1.793   6.205  15.733 -0.0489 -0.0819 -0.6224
 9193TIP3    H148994   1.757   6.252  15.808  1.3242 -1.3543  0.9248
 9193TIP3    H248995   1.733   6.132  15.719 -0.3263  0.1775 -0.7795
 9194TIP3   OH248996   0.226   3.033  16.022 -1.0158  0.5598 -0.4053
 9194TIP3    H148997   0.202   2.941  16.017  0.4772  0.1917 -1.2347
 9194TIP3    H248998   0.278   3.040  16.101  2.2114 -0.1927 -2.2969
 9195TIP3   OH248999   0.990   1.942  12.180 -0.2392 -0.2355  0.2080
 9195TIP3    H149000   0.974   1.962  12.087  1.1562  1.4554  0.2839
 9195TIP3    H249001   0.950   2.015  12.227  1.2186  0.2451  0.7612
 9196TIP3   OH249002   6.309   2.460  14.960  0.5925 -0.5477 -0.1480
 9196TIP3    H149003   6.221   2.427  14.978  1.2959 -1.5450  1.6864
 9196TIP3    H249004   6.294   2.540  14.908 -1.4083 -0.3722  0.5962
 9197TIP3   OH249005   1.693   1.635   3.796  0.5486  0.5727 -0.1510
 9197TIP3    H149006   1.609   1.657   3.837  0.0552  0.9097 -1.2788
 9197TIP3    H249007   1.690   1.540   3.785  0.6719  0.4833  0.5379
 9198TIP3   OH249008   0.325   0.288  10.635 -0.8572 -0.3050  0.9186
 9198TIP3    H149009   0.398   0.239  10.598 -1.6366 -1.7573  1.2574
 9198TIP3    H249010   0.365   0.370  10.665  0.4371 -0.6311  0.1792
 9199TIP3   OH249011   3.636   0.201   1.706  0.2587  0.0416  0.7069
 9199TIP3    H149012   3.542   0.215   1.698  0.4226  0.0027 -2.2879
 9199TIP3    H249013   3.645   0.112   1.741 -0.7770  0.2870  1.6486
 9200TIP3   OH249014   6.613   1.289  13.152 -0.0906  0.8165 -0.5354
 9200TIP3    H149015   6.557   1.306  13.076 -2.4548  0.4450  1.0072
 9200TIP3    H249016   6.551   1.271  13.223  2.0218  0.9864  1.4468
 9201TIP3   OH249017   4.901   2.017   2.372 -0.0036  0.2912  0.3507
 9201TIP3    H149018   4.910   1.932   2.414 -0.4454 -1.0622 -2.1358
 9201TIP3    H249019   4.859   2.072   2.438  1.3197 -1.0536  2.4066
 9202TIP3   OH249020   3.204   2.699  15.964 -0.6265  0.1067 -0.0207
 9202TIP3    H149021   3.211   2.774  15.904  0.7087 -0.1868 -0.2740
 9202TIP3    H249022   3.255   2.725  16.041 -0.3914 -0.4140  0.0081
 9203TIP3   OH249023   5.476   2.385   1.808  0.2792  0.4787 -0.4389
 9203TIP3    H149024   5.551   2.420   1.857  1.5189 -0.6036 -1.4540
 9203TIP3    H249025   5.428   2.461   1.777 -0.6986  1.2123  2.6035
 9204TIP3   OH249026   5.614   0.177  15.701  0.5475  0.2607  0.0395
 9204TIP3    H149027   5.554   0.215  15.766  0.0837 -1.3229  0.5798
 9204TIP3    H249028   5.701   0.206  15.730  0.3465 -0.3902  1.3758
 9205TIP3   OH249029   5.651   2.995  15.786 -0.2195  0.1856  0.0300
 9205TIP3    H149030   5.720   3.053  15.755 -0.0697 -0.4560 -0.8882
 9205TIP3    H249031   5.605   3.046  15.853  2.1140  0.0455  1.8687
 9206TIP3   OH249032   5.054   5.208  15.762  0.6471 -0.7704 -0.4397
 9206TIP3    H149033   5.083   5.258  15.686  0.9778 -1.5973 -0.8606
 9206TIP3    H249034   5.125   5.147  15.780  0.1417 -1.2636 -0.0822
 9207TIP3   OH249035   4.127   4.837   4.657  0.2954 -0.0504 -0.3491
 9207TIP3    H149036   4.167   4.902   4.715 -0.1509 -0.9532  1.0040
 9207TIP3    H249037   4.202   4.796   4.613  0.7250 -0.2776  0.5818
 9208TIP3   OH249038   5.620   5.167   5.405  0.0586 -0.3731  0.3302
 9208TIP3    H149039   5.624   5.099   5.472 -0.4565 -0.1898  0.5509
 9208TIP3    H249040   5.661   5.243   5.446 -0.5213 -0.1725  0.5522
 9209TIP3   OH249041   6.009   2.590  13.041 -0.3208 -0.3644  0.1047
 9209TIP3    H149042   6.056   2.662  12.999  0.7750 -1.3912 -0.4813
 9209TIP3    H249043   5.931   2.577  12.986 -1.7835  1.8596  1.5219
 9210TIP3   OH249044   0.875   1.766   5.022 -0.6268  0.3900  0.0876
 9210TIP3    H149045   0.951   1.712   4.999 -1.7787 -0.9460 -0.7651
 9210TIP3    H249046   0.855   1.815   4.943 -1.2876 -0.0684 -0.0344
 9211TIP3   OH249047   2.129   0.985  15.608  0.3575  0.1624 -0.6986
 9211TIP3    H149048   2.100   1.072  15.580  1.7262  1.0397  0.4356
 9211TIP3    H249049   2.225   0.993  15.613  0.3537  0.0813  3.7766
 9212TIP3   OH249050   0.786   5.034  16.522  0.6474  0.1820  0.0904
 9212TIP3    H149051   0.704   5.072  16.554  0.6535 -0.4466  0.8948
 9212TIP3    H249052   0.821   4.986  16.597 -0.7712 -3.8508 -1.5650
 9213TIP3   OH249053   4.535   0.891   2.941 -0.2034 -0.4124 -0.4698
 9213TIP3    H149054   4.584   0.833   2.883  0.5236 -0.0101 -0.2807
 9213TIP3    H249055   4.451   0.904   2.898 -0.0576 -0.9340 -0.9198
 9214TIP3   OH249056   6.055   6.363  15.010 -0.1497 -0.1468 -0.4574
 9214TIP3    H149057   6.041   6.363  15.104 -0.5892  2.9742 -0.4059
 9214TIP3    H249058   5.968   6.380  14.972  0.4553  1.6236 -1.1781
 9215TIP3   OH249059   4.792   1.299  12.180  0.4322 -0.2844  0.0498
 9215TIP3    H149060   4.736   1.273  12.253  0.1047  0.0014 -0.1003
 9215TIP3    H249061   4.867   1.240  12.186  0.0803 -0.7178  0.2020
 9216TIP3   OH249062   1.874   2.700   2.064 -0.7085 -0.2082  0.6338
 9216TIP3    H149063   1.916   2.654   2.137  0.0489  4.2585  3.4249
 9216TIP3    H249064   1.947   2.741   2.017 -1.4258  0.4164  0.0483
 9217TIP3   OH249065   1.166   5.942  14.338 -0.0787  0.3594  0.4539
 9217TIP3    H149066   1.247   5.907  14.301  0.1871  3.0507 -1.8576
 9217TIP3    H249067   1.097   5.892  14.295  0.3227 -0.0011  0.2211
 9218TIP3   OH249068   2.273   4.360   6.290  0.5805  0.3122 -0.0870
 9218TIP3    H149069   2.181   4.370   6.315  0.0963 -1.1808 -1.1367
 9218TIP3    H249070   2.321   4.412   6.354 -1.0086  1.4046  0.2821
 9219TIP3   OH249071   2.751   4.101  15.141 -0.0840  0.2432 -0.2862
 9219TIP3    H149072   2.820   4.055  15.190  0.7923 -0.1299 -1.7859
 9219TIP3    H249073   2.787   4.188  15.126 -0.5926  0.5436  0.2208
 9220TIP3   OH249074   3.248   4.720  11.535 -0.1081  0.5864 -0.4746
 9220TIP3    H149075   3.220   4.719  11.443  0.3772  0.3196 -0.6280
 9220TIP3    H249076   3.285   4.807  11.548  0.2642  0.4624 -0.6766
 9221TIP3   OH249077   2.644   2.779  12.515  0.1014 -0.3762 -1.1867
 9221TIP3    H149078   2.735   2.808  12.516  0.3460 -1.1058 -0.2215
 9221TIP3    H249079   2.596   2.850  12.472  0.7484  1.2492  0.6073
 9222TIP3   OH249080   1.541   6.695   3.016 -0.3632  0.0711  0.3820
 9222TIP3    H149081   1.631   6.724   3.024  1.0911 -3.6394 -0.5657
 9222TIP3    H249082   1.507   6.696   3.105  1.5721 -1.0236  1.1865
 9223TIP3   OH249083   6.087   3.031  14.992 -0.0139 -0.0667 -0.0269
 9223TIP3    H149084   6.082   3.081  14.911 -0.2796 -0.8175 -0.4848
 9223TIP3    H249085   6.011   3.060  15.043 -1.5243 -1.6462 -1.2690
 9224TIP3   OH249086   2.215   2.297  17.215 -0.0199  0.1324  0.0053
 9224TIP3    H149087   2.155   2.341  17.154  0.3263  1.1629  0.3810
 9224TIP3    H249088   2.250   2.368  17.269  0.0838 -0.6875  1.0577
 9225TIP3   OH249089   3.553   3.570  11.195 -0.3407  0.1682  0.0245
 9225TIP3    H149090   3.610   3.603  11.264  0.3143 -0.5114 -0.1796
 9225TIP3    H249091   3.464   3.576  11.231  0.0088 -0.3379  0.9866
 9226TIP3   OH249092   4.914   1.927   6.603 -0.1534 -0.0294 -0.2009
 9226TIP3    H149093   4.864   1.863   6.654  1.3481 -0.3592  0.9022
 9226TIP3    H249094   5.004   1.897   6.608  0.3032  1.0266 -1.4543
 9227TIP3   OH249095   1.973   1.094  11.235  0.0313 -0.1980 -0.0788
 9227TIP3    H149096   1.962   1.079  11.329  0.9752  0.8721  0.2207
 9227TIP3    H249097   2.047   1.037  11.210  1.4485  1.3633  0.3803
 9228TIP3   OH249098   5.676   0.901  11.502 -0.4071 -0.0377  0.7101
 9228TIP3    H149099   5.611   0.851  11.454  0.4862 -0.6918  0.1499
 9228TIP3    H249100   5.753   0.845  11.504  0.5385  1.1898  0.2952
 9229TIP3   OH249101   0.351   1.189  14.718  0.6216  0.6610 -0.1531
 9229TIP3    H149102   0.291   1.261  14.738  2.1405  1.3705  2.2293
 9229TIP3    H249103   0.395   1.217  14.637 -1.0656  0.8491 -1.0551
 9230TIP3   OH249104   0.890   1.063   5.197 -0.0567  0.0418  0.0620
 9230TIP3    H149105   0.817   1.064   5.134 -1.2518 -0.6026  1.3755
 9230TIP3    H249106   0.848   1.076   5.282  1.1629 -1.9312  1.0386
 9231TIP3   OH249107   6.689   0.198   4.848 -1.1037 -0.2772 -0.2015
 9231TIP3    H149108   6.611   0.250   4.831 -0.3701  0.5239 -1.2498
 9231TIP3    H249109   6.710   0.158   4.764  0.1862  0.3368 -0.1926
 9232TIP3   OH249110   5.374   2.950  12.964 -0.8414 -1.0066 -0.1014
 9232TIP3    H149111   5.397   2.912  13.049 -1.5337 -0.7374  0.2099
 9232TIP3    H249112   5.384   2.878  12.902  0.1893 -1.0711  0.1185
 9233TIP3   OH249113   0.632   4.353   5.135  0.0678 -0.6828  0.5298
 9233TIP3    H149114   0.612   4.392   5.049  0.0172 -0.7403  0.5158
 9233TIP3    H249115   0.727   4.343   5.134  0.0406 -0.9259  0.3772
 9234TIP3   OH249116   3.632   6.539  12.124 -0.0094 -0.4143 -0.0480
 9234TIP3    H149117   3.596   6.615  12.169  0.2787  0.6345 -1.5390
 9234TIP3    H249118   3.568   6.470  12.139 -0.5697  0.2759  0.8305
 9235TIP3   OH249119   4.162   4.021   1.626 -0.7176  0.1114 -0.1599
 9235TIP3    H149120   4.245   4.027   1.674 -0.0936  1.8248 -1.3956
 9235TIP3    H249121   4.101   3.985   1.690  0.9909 -1.3832  0.7303
 9236TIP3   OH249122   1.810   5.808   5.684 -0.1456  0.0634 -1.1531
 9236TIP3    H149123   1.879   5.836   5.745 -1.0264  1.1458 -0.6105
 9236TIP3    H249124   1.837   5.844   5.600  0.3500 -0.1853 -1.1032
 9237TIP3   OH249125   3.933   4.600  16.613 -0.7103 -0.2608 -1.0465
 9237TIP3    H149126   3.890   4.588  16.528  1.1006  2.3200 -2.4870
 9237TIP3    H249127   4.026   4.587  16.595 -0.3276 -0.0773  0.6480
 9238TIP3   OH249128   5.666   5.289   2.192 -0.0214  0.4051  0.1918
 9238TIP3    H149129   5.588   5.271   2.245 -0.1610  0.4346 -0.0048
 9238TIP3    H249130   5.632   5.308   2.105  0.2536 -0.3062 -0.0760
 9239TIP3   OH249131   6.280   0.127   1.535  0.5926  0.0022  0.0030
 9239TIP3    H149132   6.285   0.159   1.626 -1.5610  0.8042 -0.1094
 9239TIP3    H249133   6.296   0.205   1.482 -1.5396  0.3273 -0.2623
 9240TIP3   OH249134   1.661   2.693  14.346 -0.2200  0.3575 -0.3212
 9240TIP3    H149135   1.608   2.625  14.387  0.2236 -1.0108 -1.9296
 9240TIP3    H249136   1.738   2.648  14.313  1.1181  2.0068  0.3650
 9241TIP3   OH249137   2.319   1.810   2.698  0.1396 -0.0847 -0.1073
 9241TIP3    H149138   2.257   1.883   2.700  1.2468  0.9022 -0.4172
 9241TIP3    H249139   2.266   1.733   2.718 -1.4554  0.5203 -1.7079
 9242TIP3   OH249140   0.971   0.729   5.399 -0.3917  0.4838  0.0266
 9242TIP3    H149141   0.881   0.708   5.372  0.2035  0.0533 -1.7695
 9242TIP3    H249142   0.962   0.810   5.450 -1.6501  1.2315 -1.3005
 9243TIP3   OH249143   0.659   1.055  13.400 -0.5312 -0.3589 -0.5440
 9243TIP3    H149144   0.605   0.976  13.404 -0.0843 -0.6543 -0.3614
 9243TIP3    H249145   0.737   1.035  13.451  0.2962 -0.3478 -1.7512
 9244TIP3   OH249146   5.015   6.461  14.793  0.1725  0.0929 -0.3112
 9244TIP3    H149147   4.991   6.554  14.786 -3.1673 -0.7058 -1.1738
 9244TIP3    H249148   5.075   6.458  14.868 -1.9542  2.6066  1.7118
 9245TIP3   OH249149   2.669   1.898  15.432  0.6683  0.3450  0.1842
 9245TIP3    H149150   2.719   1.976  15.455  0.7964  0.1374  0.6170
 9245TIP3    H249151   2.618   1.924  15.355 -1.5578  1.8290  1.9919
 9246TIP3   OH249152   1.884   3.625  16.152  0.3986  0.0809 -0.4136
 9246TIP3    H149153   1.972   3.658  16.134  0.2887 -0.0108 -1.1749
 9246TIP3    H249154   1.829   3.666  16.085  0.1415 -1.1099 -0.9630
 9247TIP3   OH249155   3.789   5.921  13.200 -0.4741  0.2649 -0.0638
 9247TIP3    H149156   3.867   5.874  13.172  0.4693  1.6392  0.1608
 9247TIP3    H249157   3.766   5.883  13.285  1.6853  1.7275  1.2660
 9248TIP3   OH249158   3.857   3.298   4.308 -0.2289 -0.4524 -1.0731
 9248TIP3    H149159   3.948   3.324   4.324 -0.3032 -1.6431  1.9310
 9248TIP3    H249160   3.857   3.203   4.321 -1.7813 -0.6006 -1.9004
 9249TIP3   OH249161   6.258   6.614  11.517  0.1076  0.2987  0.1364
 9249TIP3    H149162   6.226   6.664  11.591  1.2624  1.5845 -0.1948
 9249TIP3    H249163   6.196   6.632  11.447 -0.4250 -0.1122  0.4973
 9250TIP3   OH249164   1.884   4.981  11.815 -0.5640 -0.5983 -0.2127
 9250TIP3    H149165   1.963   4.955  11.767  0.2437  0.9186  0.2183
 9250TIP3    H249166   1.911   4.984  11.907 -1.2610 -0.5441 -0.0017
 9251TIP3   OH249167   5.634   2.046  14.036  0.3033 -0.4714  0.2673
 9251TIP3    H149168   5.694   2.017  14.105 -0.2450  0.4947  1.1805
 9251TIP3    H249169   5.613   1.966  13.988  0.2524 -1.2855  1.5863
 9252TIP3   OH249170   0.899   0.478  12.631  0.2037  0.2989  0.7177
 9252TIP3    H149171   0.830   0.426  12.588  0.9920 -0.3410  0.1706
 9252TIP3    H249172   0.976   0.420  12.630  0.8159  1.0872  1.0841
 9253TIP3   OH249173   6.446   1.142  15.752 -0.2224  0.1020 -0.1648
 9253TIP3    H149174   6.511   1.147  15.822  1.4924 -0.2107 -1.6568
 9253TIP3    H249175   6.365   1.116  15.796  0.7871 -0.0550  1.6939
 9254TIP3   OH249176   4.544   4.226   0.577  0.3612  0.0159 -0.2999
 9254TIP3    H149177   4.470   4.286   0.591  1.1306  0.7017  1.0858
 9254TIP3    H249178   4.521   4.147   0.626 -0.1148 -0.3704 -1.1294
 9255TIP3   OH249179   5.080   3.556  14.172 -0.5637 -0.2894 -0.2257
 9255TIP3    H149180   5.093   3.463  14.195  0.4640 -0.1727 -0.2988
 9255TIP3    H249181   5.158   3.600  14.206 -1.1747  0.6048  0.0555
 9256TIP3   OH249182   6.161   0.660  11.562  0.0806 -0.5853  0.5227
 9256TIP3    H149183   6.212   0.723  11.511  0.1934 -1.6782 -0.8033
 9256TIP3    H249184   6.227   0.608  11.608  0.0779 -0.8546  0.2239
 9257TIP3   OH249185   3.771   5.427  11.900  0.6501 -0.4211 -0.2646
 9257TIP3    H149186   3.811   5.400  11.982  0.1591 -1.3178 -0.3047
 9257TIP3    H249187   3.708   5.496  11.924  0.0127 -1.1548  0.2140
 9258TIP3   OH249188   5.289   4.297  16.470 -0.1526 -0.2368 -0.1908
 9258TIP3    H149189   5.287   4.393  16.471  1.1611 -0.1890  1.1596
 9258TIP3    H249190   5.371   4.275  16.427  1.1393 -0.6520  2.3208
 9259TIP3   OH249191   6.179   5.600   4.306  0.2422 -0.1770  0.1635
 9259TIP3    H149192   6.175   5.691   4.336  2.4410  0.5618 -1.4922
 9259TIP3    H249193   6.116   5.595   4.235  0.6099  0.2644 -0.1974
 9260TIP3   OH249194   3.058   6.750   1.510  0.2072  0.2186 -0.3643
 9260TIP3    H149195   3.014   6.751   1.595  2.1366  0.6524  0.6686
 9260TIP3    H249196   2.990   6.776   1.448 -1.6451 -1.5338  0.8025
 9261TIP3   OH249197   4.408   5.989  13.618 -0.3051 -0.2059 -0.0121
 9261TIP3    H149198   4.495   5.950  13.629 -0.2697 -0.1860 -0.2201
 9261TIP3    H249199   4.348   5.921  13.648 -0.2830 -0.7093 -1.0657
 9262TIP3   OH249200   0.355   4.331   2.605  0.1750 -0.0687 -0.3159
 9262TIP3    H149201   0.326   4.401   2.547 -0.3767  1.8082  2.0365
 9262TIP3    H249202   0.433   4.368   2.649  0.7927 -1.5496 -0.1170
 9263TIP3   OH249203   3.617   3.241  11.610 -0.0693  0.2667  0.3296
 9263TIP3    H149204   3.669   3.203  11.538  1.3419  2.5548  0.0406
 9263TIP3    H249205   3.641   3.190  11.687  1.9321  0.6474  0.0045
 9264TIP3   OH249206   6.544   6.225   2.052  0.2017  0.0272 -0.1451
 9264TIP3    H149207   6.567   6.234   1.960 -1.4009 -0.0462 -0.5863
 9264TIP3    H249208   6.540   6.130   2.066  0.1568  0.0396 -0.0760
 9265TIP3   OH249209   2.566   5.896   0.496  0.1150 -0.2353  0.0598
 9265TIP3    H149210   2.503   5.967   0.503  1.0762  0.6215  0.1842
 9265TIP3    H249211   2.541   5.849   0.416  0.4025  1.1768 -0.8934
 9266TIP3   OH249212   5.002   3.051  16.620  0.2347 -0.6381  0.1069
 9266TIP3    H149213   4.910   3.054  16.647  0.3859  1.5534  0.6416
 9266TIP3    H249214   5.001   3.074  16.527  0.2788  0.1947  0.3054
 9267TIP3   OH249215   3.452   1.514   0.597  0.0313 -0.1089  0.2258
 9267TIP3    H149216   3.465   1.440   0.539 -1.0476  0.3076 -0.5694
 9267TIP3    H249217   3.478   1.482   0.683  1.2004 -0.8732 -0.3979
 9268TIP3   OH249218   3.155   4.131  14.486  0.5160  1.0668 -0.6152
 9268TIP3    H149219   3.228   4.112  14.545 -0.2203  0.5253  0.1393
 9268TIP3    H249220   3.112   4.207  14.525 -0.4417  0.2317  0.0078
 9269TIP3   OH249221   0.518   6.450   3.026 -0.2235 -0.4698  0.0790
 9269TIP3    H149222   0.538   6.534   2.983  0.7333  1.1497  3.3673
 9269TIP3    H249223   0.591   6.393   3.002  0.2394  0.3434 -0.5011
 9270TIP3   OH249224   0.749   2.468  13.108  0.4996 -0.1367  0.5277
 9270TIP3    H149225   0.678   2.511  13.155  0.8352  0.3991  0.5624
 9270TIP3    H249226   0.739   2.499  13.017 -0.1948 -1.2277  0.2206
 9271TIP3   OH249227   4.600   2.937   1.092  0.3906  0.4227 -0.1463
 9271TIP3    H149228   4.512   2.955   1.060  0.8772 -0.1350 -1.8930
 9271TIP3    H249229   4.645   3.021   1.086 -0.0301  0.7422  0.8838
 9272TIP3   OH249230   1.474   2.362   1.605  0.2378 -0.5309  0.0069
 9272TIP3    H149231   1.407   2.294   1.593  0.8621 -0.7028 -3.6424
 9272TIP3    H249232   1.557   2.317   1.589  0.6538  0.9451 -2.6715
 9273TIP3   OH249233   5.577   0.594   5.288 -0.0979  0.2300 -0.2997
 9273TIP3    H149234   5.619   0.611   5.204 -1.0704  1.1144 -0.6408
 9273TIP3    H249235   5.648   0.567   5.346  0.7069  0.3511 -1.2053
 9274TIP3   OH249236   0.268   5.521  16.755 -0.2038 -0.2376  0.3102
 9274TIP3    H149237   0.340   5.458  16.759 -0.4128 -0.5275 -0.3556
 9274TIP3    H249238   0.277   5.562  16.668  0.5608  1.4115  1.1250
 9275TIP3   OH249239   4.563   2.493  14.803 -0.2574  1.0039 -0.3285
 9275TIP3    H149240   4.641   2.524  14.849  1.1393 -1.2931 -0.9940
 9275TIP3    H249241   4.591   2.412  14.761 -2.0855  1.7846 -3.3301
 9276TIP3   OH249242   5.209   2.784  13.928  0.8413  0.3290  0.1554
 9276TIP3    H149243   5.247   2.766  14.014  1.1519  0.3740  0.0284
 9276TIP3    H249244   5.122   2.820  13.948  0.8399  0.1696  0.4452
 9277TIP3   OH249245   4.190   1.811  15.210  0.0772  0.2169  0.0661
 9277TIP3    H149246   4.279   1.848  15.210 -0.2228  1.0016 -1.3260
 9277TIP3    H249247   4.134   1.882  15.240 -0.2519  0.2213 -0.5437
 9278TIP3   OH249248   2.036   4.279   1.166  0.0150  0.0825 -0.6214
 9278TIP3    H149249   2.097   4.338   1.120  0.6296  0.6458  0.8403
 9278TIP3    H249250   1.998   4.333   1.235 -1.2082 -0.6238 -0.7130
 9279TIP3   OH249251   4.318   5.425  15.021  0.0753 -0.1907 -0.6518
 9279TIP3    H149252   4.402   5.425  14.974 -0.0099 -1.4058 -0.8481
 9279TIP3    H249253   4.342   5.433  15.113  0.2792  1.5044 -0.8136
 9280TIP3   OH249254   5.412   1.631   4.920  0.2187  0.5106  0.1019
 9280TIP3    H149255   5.396   1.637   4.826 -1.2944 -1.6820  0.1333
 9280TIP3    H249256   5.491   1.578   4.928 -0.3889 -0.4427  0.0259
 9281TIP3   OH249257   1.424   1.867  15.475  0.2026 -0.2100  0.4669
 9281TIP3    H149258   1.344   1.816  15.466  0.9982 -1.2057 -1.9082
 9281TIP3    H249259   1.409   1.945  15.422  0.2457  0.3535  1.2765
 9282TIP3   OH249260   6.515   5.172  12.836 -0.3297  0.5367 -0.0986
 9282TIP3    H149261   6.536   5.256  12.797 -1.6790  0.4076 -1.1806
 9282TIP3    H249262   6.419   5.169  12.837 -0.3603  0.0505  2.2393
 9283TIP3   OH249263   2.259   2.994   4.473 -0.3131  0.9055  0.0464
 9283TIP3    H149264   2.293   2.907   4.491 -0.9160  0.6563 -0.0082
 9283TIP3    H249265   2.246   2.995   4.378 -1.3722  0.6604  0.1847
 9284TIP3   OH249266   2.628   2.252  13.569  0.2323  0.2999 -0.0681
 9284TIP3    H149267   2.639   2.341  13.602  3.8501 -0.2938  0.7558
 9284TIP3    H249268   2.621   2.198  13.648  0.4288 -0.3714 -0.5061
 9285TIP3   OH249269   2.150   5.439  12.339  0.4971  0.1146  0.2517
 9285TIP3    H149270   2.072   5.472  12.295  1.6763  0.9121 -1.3388
 9285TIP3    H249271   2.194   5.517  12.373  0.1751 -0.3973  1.9284
 9286TIP3   OH249272   2.657   3.322  13.133  0.2334 -0.1664 -0.7062
 9286TIP3    H149273   2.704   3.406  13.129 -1.9152  1.3948  2.6268
 9286TIP3    H249274   2.601   3.322  13.055  0.6775  1.2150 -1.0545
 9287TIP3   OH249275   5.363   6.298   0.827 -0.1354 -0.1399  0.1240
 9287TIP3    H149276   5.455   6.288   0.853 -0.5739 -0.9017  1.4662
 9287TIP3    H249277   5.360   6.385   0.787  0.9937  0.3142  0.9429
 9288TIP3   OH249278   3.746   5.094   4.907  0.0005  0.9095  0.0690
 9288TIP3    H149279   3.697   5.138   4.838  0.5171  1.4936  0.0707
 9288TIP3    H249280   3.753   5.003   4.877 -1.4940  0.6903  0.2953
 9289TIP3   OH249281   5.993   0.321  11.938 -0.2513 -0.6591  0.2783
 9289TIP3    H149282   5.978   0.233  11.903 -1.0053 -0.3584 -0.1789
 9289TIP3    H249283   5.908   0.364  11.932 -0.3277 -0.4736  2.1990
 9290TIP3   OH249284   3.086   2.573   4.500  0.0384 -0.5222  0.5945
 9290TIP3    H149285   3.123   2.577   4.588 -0.9842 -0.4187  1.0419
 9290TIP3    H249286   3.097   2.482   4.473  1.8107 -0.2045  0.1581
 9291TIP3   OH249287   1.550   0.415   1.760 -0.1019  0.1076 -0.0548
 9291TIP3    H149288   1.530   0.364   1.682 -0.1169 -0.2533  0.1800
 9291TIP3    H249289   1.637   0.384   1.787 -0.2431 -0.0151  0.2627
 9292TIP3   OH249290   3.840   5.795   3.889  0.9236 -0.7306  0.2222
 9292TIP3    H149291   3.887   5.745   3.956  2.2476 -0.5425 -0.5159
 9292TIP3    H249292   3.771   5.841   3.936  0.3199 -2.4256  1.0736
 9293TIP3   OH249293   0.132   0.621   4.179  0.0253 -0.2116 -0.3079
 9293TIP3    H149294   0.215   0.655   4.212 -0.4961 -0.9586  1.9543
 9293TIP3    H249295   0.117   0.669   4.097  1.8266  1.1720  0.1080
 9294TIP3   OH249296   4.084   5.260  15.667  0.4279  0.0540 -0.1851
 9294TIP3    H149297   4.134   5.341  15.670  0.8187 -0.2276  1.4377
 9294TIP3    H249298   4.128   5.201  15.728  0.0257 -1.3296 -1.1671
 9295TIP3   OH249299   3.946   1.071   4.797  0.6487 -0.0988 -0.0767
 9295TIP3    H149300   3.942   0.976   4.785  0.8815  0.0245 -1.2546
 9295TIP3    H249301   3.967   1.105   4.710 -3.2375  1.3011 -0.6759
 9296TIP3   OH249302   5.461   5.367  15.885  0.4080 -0.3294 -0.1604
 9296TIP3    H149303   5.461   5.411  15.800 -0.1665 -0.7992 -0.4169
 9296TIP3    H249304   5.428   5.432  15.946  0.6495 -0.0450 -0.3323
 9297TIP3   OH249305   3.633   4.538   4.445  0.1529 -0.4918 -0.3839
 9297TIP3    H149306   3.680   4.548   4.362  2.0698 -2.8010  0.2846
 9297TIP3    H249307   3.694   4.572   4.511  0.4692 -2.4320  0.3944
 9298TIP3   OH249308   0.213   6.766  17.122 -0.1211  0.2594 -0.0418
 9298TIP3    H149309   0.227   6.749  17.028  0.7470 -2.5427  0.4861
 9298TIP3    H249310   0.301   6.763  17.160 -0.4145  1.9181  0.8224
 9299TIP3   OH249311   2.817   6.246  12.914 -0.8063 -0.5641  0.6025
 9299TIP3    H149312   2.774   6.192  12.848 -1.2522 -1.1610  1.3604
 9299TIP3    H249313   2.789   6.336  12.893 -0.5464 -0.6873 -0.3002
 9300TIP3   OH249314   0.591   4.047  10.731 -0.0934  0.1032  0.4018
 9300TIP3    H149315   0.505   4.083  10.707  0.5004 -0.0189 -2.2524
 9300TIP3    H249316   0.593   4.052  10.826 -2.0877  2.3175  0.4327
 9301TIP3   OH249317   0.812   2.978  14.261  0.0526  0.5441 -0.5543
 9301TIP3    H149318   0.885   3.040  14.256 -0.7929  1.5004 -1.6013
 9301TIP3    H249319   0.736   3.029  14.233 -0.5551 -1.1578 -2.2064
 9302TIP3   OH249320   1.126   4.818  10.559  0.3708  0.7531  0.2303
 9302TIP3    H149321   1.202   4.780  10.603  2.9546  3.8465 -1.1723
 9302TIP3    H249322   1.106   4.896  10.610 -0.8353  0.8532 -0.3676
 9303TIP3   OH249323   5.722   1.842   2.689  0.3143 -0.1352 -0.6167
 9303TIP3    H149324   5.644   1.894   2.667 -0.8362 -1.5118  0.0257
 9303TIP3    H249325   5.687   1.767   2.737  2.1301 -0.4622  0.2413
 9304TIP3   OH249326   3.180   5.946  12.671  0.1998  0.2608  0.1400
 9304TIP3    H149327   3.221   5.938  12.757  0.7445  1.3774  0.0022
 9304TIP3    H249328   3.150   6.037  12.667 -1.0958 -0.1592 -0.2979
 9305TIP3   OH249329   3.822   2.897  15.346 -0.1006  0.2773  0.6105
 9305TIP3    H149330   3.866   2.826  15.392 -0.6334  0.1002  0.8522
 9305TIP3    H249331   3.750   2.922  15.404 -0.0880  0.8220  0.3959
 9306TIP3   OH249332   2.935   5.981  14.204 -0.4280  0.4479 -0.6547
 9306TIP3    H149333   2.913   5.960  14.295  0.1736  0.4339 -0.5125
 9306TIP3    H249334   2.883   5.919  14.153  1.6596 -1.8191 -0.2194
 9307TIP3   OH249335   3.523   0.974   5.702  0.0334  0.7031  0.4590
 9307TIP3    H149336   3.540   1.037   5.772 -1.7856 -0.2058  1.8039
 9307TIP3    H249337   3.442   1.003   5.662  0.9317  1.0740 -1.1741
 9308TIP3   OH249338   2.442   4.817  14.359 -0.3952  0.9267  0.6746
 9308TIP3    H149339   2.447   4.837  14.453 -0.0371  2.0572  0.4270
 9308TIP3    H249340   2.425   4.723  14.356  1.4419  0.5090  1.8439
 9309TIP3   OH249341   5.004   3.366   2.087 -0.0462 -0.0151  0.0100
 9309TIP3    H149342   5.084   3.349   2.137 -0.7474  1.2059  1.6465
 9309TIP3    H249343   4.945   3.409   2.149 -0.8995  1.8326 -1.9414
 9310TIP3   OH249344   1.305   4.731   5.630  0.9031 -0.1159  0.0905
 9310TIP3    H149345   1.375   4.677   5.666  0.9621  0.0749  0.2636
 9310TIP3    H249346   1.234   4.670   5.613  0.6268 -0.1113  1.1510
 9311TIP3   OH249347   5.461   5.238  12.440 -0.6878  0.1930  0.4272
 9311TIP3    H149348   5.397   5.189  12.389 -0.9886  0.8147  0.2014
 9311TIP3    H249349   5.515   5.170  12.482 -0.9397 -0.3248 -0.0736
 9312TIP3   OH249350   3.818   6.306  14.320 -0.3243 -0.3217  0.3755
 9312TIP3    H149351   3.829   6.400  14.304 -0.5524  0.3989  3.7320
 9312TIP3    H249352   3.874   6.287  14.395  0.9249 -3.2864 -1.1729
 9313TIP3   OH249353   3.147   6.196   3.867 -0.1405  0.2220  0.0966
 9313TIP3    H149354   3.112   6.118   3.911 -0.6527 -0.0802 -0.8268
 9313TIP3    H249355   3.072   6.256   3.861 -0.2839 -0.0561 -1.0586
 9314TIP3   OH249356   5.850   6.420  11.904 -0.4791  0.1250  0.0185
 9314TIP3    H149357   5.937   6.386  11.883 -0.3133 -1.1444  2.3797
 9314TIP3    H249358   5.802   6.413  11.822  1.3439 -0.1066 -1.0955
 9315TIP3   OH249359   1.244   5.837  12.712 -0.6456  0.0410 -0.4294
 9315TIP3    H149360   1.260   5.825  12.805 -0.9548 -0.5126 -0.4425
 9315TIP3    H249361   1.245   5.748  12.676  2.0034  0.3809 -1.3870
 9316TIP3   OH249362   3.270   5.729   3.573 -0.0594 -0.2506  0.2431
 9316TIP3    H149363   3.229   5.802   3.618 -0.4894 -0.1004 -0.3801
 9316TIP3    H249364   3.280   5.759   3.482 -1.3042 -1.3780 -0.2974
 9317TIP3   OH249365   5.217   0.672   2.657  0.6638 -0.2081 -0.3012
 9317TIP3    H149366   5.235   0.666   2.750  0.3156 -0.8997 -0.2740
 9317TIP3    H249367   5.303   0.659   2.615  0.7481 -0.3322 -0.0911
 9318TIP3   OH249368   0.872   4.365  13.833  0.2199 -0.0396 -0.4055
 9318TIP3    H149369   0.940   4.327  13.888 -0.5637 -1.7987 -0.6132
 9318TIP3    H249370   0.864   4.306  13.759 -0.3051  1.0992 -1.2978
 9319TIP3   OH249371   4.096   2.737  12.798 -0.1728 -0.4009 -0.6530
 9319TIP3    H149372   4.045   2.677  12.743  0.0752 -2.5075  1.2741
 9319TIP3    H249373   4.175   2.689  12.820  0.5167  1.0403  0.1729
 9320TIP3   OH249374   3.477   5.486   0.270 -0.5153  0.1925  0.2652
 9320TIP3    H149375   3.458   5.578   0.290  3.0144  0.7274  1.9186
 9320TIP3    H249376   3.411   5.461   0.206 -1.7985  3.7882 -0.0120
 9321TIP3   OH249377   1.837   2.260  14.665 -0.1990 -0.0436  0.3021
 9321TIP3    H149378   1.898   2.214  14.723  1.0504 -0.5813 -1.3563
 9321TIP3    H249379   1.770   2.195  14.644 -1.7674  0.7246  2.6014
 9322TIP3   OH249380   4.881   6.319   2.545  0.3503  0.3464  0.2249
 9322TIP3    H149381   4.896   6.257   2.616  1.0973 -0.6608 -0.7841
 9322TIP3    H249382   4.969   6.344   2.515  0.0856  2.3105  0.9398
 9323TIP3   OH249383   1.603   0.947  13.102 -0.3636 -0.0673 -0.1145
 9323TIP3    H149384   1.525   0.905  13.065  0.2284 -1.8573  0.5460
 9323TIP3    H249385   1.586   0.948  13.196 -0.1620  0.8024 -0.0819
 9324TIP3   OH249386   5.154   1.954   1.575  0.0000 -0.7455 -0.0975
 9324TIP3    H149387   5.228   2.005   1.607  0.1299 -0.4514 -0.8428
 9324TIP3    H249388   5.114   1.917   1.654  1.1348 -1.1914  0.2828
 9325TIP3   OH249389   6.700   1.150  15.909  0.1433 -0.6548 -0.2415
 9325TIP3    H149390   6.775   1.098  15.936  1.4876  1.2789 -0.0767
 9325TIP3    H249391   6.644   1.154  15.988  0.6199 -0.8309  0.1093
 9326TIP3   OH249392   5.883   2.005   1.817  0.0293  0.2120  0.1577
 9326TIP3    H149393   5.829   1.939   1.773  1.0579 -0.3252 -0.3466
 9326TIP3    H249394   5.842   2.017   1.902  0.2859 -1.7282  0.6110
 9327TIP3   OH249395   4.495   3.021  15.186  0.0223  0.4919  0.1124
 9327TIP3    H149396   4.417   3.001  15.238 -1.0842  0.1839 -1.5900
 9327TIP3    H249397   4.507   3.115  15.195 -0.5093  0.5310  0.4447
 9328TIP3   OH249398   5.625   1.583  15.858 -0.0582 -0.7265 -0.4363
 9328TIP3    H149399   5.652   1.512  15.916 -0.4086 -1.0619 -0.6706
 9328TIP3    H249400   5.650   1.553  15.771  0.3760 -0.2700 -0.4711
 9329TIP3   OH249401   6.701   2.068   0.496 -0.5192  0.8354 -0.0478
 9329TIP3    H149402   6.645   2.100   0.424  1.3194  2.0058 -1.0410
 9329TIP3    H249403   6.696   1.973   0.490 -0.6802  0.9109 -1.5334
 9330TIP3   OH249404   1.355   1.708   1.164 -0.2395  0.4905  0.2267
 9330TIP3    H149405   1.274   1.758   1.152 -0.5633 -0.4956 -2.5280
 9330TIP3    H249406   1.417   1.750   1.105  0.7234  0.1104  0.9541
 9331TIP3   OH249407   4.515   0.459  10.873  0.4948 -0.2838  0.1910
 9331TIP3    H149408   4.461   0.396  10.826 -0.5300  0.5198  0.2507
 9331TIP3    H249409   4.590   0.409  10.904  0.4735 -1.1332 -1.0669
 9332TIP3   OH249410   1.072   2.948   4.340 -0.7027 -0.3936 -0.1599
 9332TIP3    H149411   1.067   3.040   4.313 -3.1385 -1.2312 -3.1962
 9332TIP3    H249412   1.148   2.913   4.294  1.2872  0.3242  2.3403
 9333TIP3   OH249413   2.010   0.248  16.742  0.4213  0.4107  0.7957
 9333TIP3    H149414   2.005   0.266  16.836  0.1661 -2.5678  1.4412
 9333TIP3    H249415   2.068   0.172  16.735  0.8906  0.9158 -1.5415
 9334TIP3   OH249416   5.409   0.591  12.509  0.1950 -0.3353 -0.1609
 9334TIP3    H149417   5.326   0.576  12.555  0.3127 -0.2482  0.0825
 9334TIP3    H249418   5.432   0.506  12.472  0.7460 -0.7218  1.0175
 9335TIP3   OH249419   4.308   3.690   1.000  0.1234  0.5070 -0.2716
 9335TIP3    H149420   4.273   3.607   0.967  0.2064  0.6647 -0.7620
 9335TIP3    H249421   4.402   3.683   0.990  0.2041  0.3060  0.5333
 9336TIP3   OH249422   0.414   3.120   2.102  0.1466 -0.2589  0.2534
 9336TIP3    H149423   0.471   3.044   2.117  0.7899 -0.6829 -3.3777
 9336TIP3    H249424   0.342   3.107   2.163  0.9628 -3.0021  0.8210
 9337TIP3   OH249425   3.312   4.434  11.415 -0.1950  0.0802  0.1918
 9337TIP3    H149426   3.245   4.445  11.482  0.6919 -1.6700  1.4451
 9337TIP3    H249427   3.341   4.343  11.424  3.0276  0.9807  0.3905
 9338TIP3   OH249428   5.786   5.053  16.468 -0.3771  0.6880  0.6747
 9338TIP3    H149429   5.860   5.114  16.459 -0.4552  0.7449  0.4274
 9338TIP3    H249430   5.742   5.055  16.383 -0.4267  0.3444  0.6917
 9339TIP3   OH249431   3.397   2.317   3.890 -0.3319 -0.3459  1.1108
 9339TIP3    H149432   3.439   2.234   3.864  1.5010  0.2319  2.0105
 9339TIP3    H249433   3.444   2.384   3.841 -1.4116  0.2283  0.8351
 9340TIP3   OH249434   3.844   3.484   1.946 -0.6702  0.0358  0.3904
 9340TIP3    H149435   3.756   3.521   1.937 -3.1599 -5.1625 -0.2520
 9340TIP3    H249436   3.857   3.433   1.867  1.7748 -1.5975  1.7059
 9341TIP3   OH249437   4.614   5.290  12.224 -0.8081 -0.1926 -0.1776
 9341TIP3    H149438   4.631   5.262  12.314 -1.6076 -0.5011 -0.1221
 9341TIP3    H249439   4.701   5.311  12.189 -0.3019 -1.6252  0.1473
 9342TIP3   OH249440   0.448   5.377   1.216  0.2242  0.0341 -0.0502
 9342TIP3    H149441   0.416   5.288   1.232 -1.3993  0.2888 -1.6811
 9342TIP3    H249442   0.526   5.364   1.162 -1.3292 -0.3760 -2.3080
 9343TIP3   OH249443   1.730   3.776  13.737  0.0292 -0.2424 -0.2422
 9343TIP3    H149444   1.748   3.829  13.659 -0.8952 -0.5462 -0.6728
 9343TIP3    H249445   1.796   3.804  13.801  1.6304 -0.9051 -1.5424
 9344TIP3   OH249446   0.133   1.442  16.406  0.1941  0.0618 -0.1349
 9344TIP3    H149447   0.194   1.402  16.343  0.3581 -0.1317  0.1419
 9344TIP3    H249448   0.169   1.418  16.491 -1.0637 -1.3026  0.0440
 9345TIP3   OH249449   5.561   1.423   0.346 -0.5613 -0.4195 -1.2809
 9345TIP3    H149450   5.603   1.358   0.289  2.5078 -0.9085  1.2416
 9345TIP3    H249451   5.520   1.371   0.414  2.1532  0.0952  0.9190
 9346TIP3   OH249452   2.530   2.593   3.107  0.0558 -0.6473  0.3812
 9346TIP3    H149453   2.443   2.561   3.081  0.3890 -2.1500  1.0115
 9346TIP3    H249454   2.577   2.514   3.133  1.8294  0.0715 -0.5028
 9347TIP3   OH249455   5.808   4.724  16.499 -0.2703  0.2787  0.4431
 9347TIP3    H149456   5.887   4.702  16.548  0.6215 -0.4908 -1.2718
 9347TIP3    H249457   5.811   4.820  16.490 -0.0264  0.3462  1.1477
 9348TIP3   OH249458   5.859   2.145  13.233  0.3028 -0.1748  0.8265
 9348TIP3    H149459   5.951   2.130  13.255  0.2434 -1.3911  0.3060
 9348TIP3    H249460   5.828   2.205  13.301  1.9791  1.9013 -0.1419
 9349TIP3   OH249461   5.825   5.189  15.286 -0.0267  0.1217 -0.1442
 9349TIP3    H149462   5.920   5.195  15.300 -0.2757  2.9288  0.9259
 9349TIP3    H249463   5.808   5.095  15.283  2.4059 -0.5811  2.5797
 9350TIP3   OH249464   6.022   2.265  12.176 -0.0079  0.5373  0.5898
 9350TIP3    H149465   5.963   2.210  12.228 -2.5275  2.8089  0.3518
 9350TIP3    H249466   6.051   2.333  12.236  0.2514  0.9399  0.0153
 9351TIP3   OH249467   2.896   5.800  14.933 -0.0445 -0.4342 -0.3803
 9351TIP3    H149468   2.808   5.765  14.925 -1.0823  1.7725  0.5025
 9351TIP3    H249469   2.940   5.742  14.996 -1.3497 -0.7380  0.2771
 9352TIP3   OH249470   5.562   6.720  11.557 -0.4117  1.2583  0.3956
 9352TIP3    H149471   5.642   6.668  11.552 -1.0373  0.1004  1.6159
 9352TIP3    H249472   5.590   6.804  11.596  0.7951  2.3722 -2.6051
 9353TIP3   OH249473   3.125   0.851   4.753  0.8713  0.0804 -0.4874
 9353TIP3    H149474   3.167   0.899   4.825  1.9231  0.3156 -1.2372
 9353TIP3    H249475   3.166   0.886   4.674 -1.8936  1.4909 -1.4083
 9354TIP3   OH249476   2.882   1.921  14.673  0.1426  0.0688  0.6656
 9354TIP3    H149477   2.824   1.995  14.689  1.7360  1.4942  0.1765
 9354TIP3    H249478   2.823   1.848  14.652 -1.4646  1.7387 -1.1008
 9355TIP3   OH249479   2.923   3.076   0.294  0.0309 -0.1660  0.0931
 9355TIP3    H149480   2.994   3.070   0.358  0.2647  0.7602 -0.0697
 9355TIP3    H249481   2.850   3.028   0.334  0.7907 -1.2916  0.1816
 9356TIP3   OH249482   1.178   5.633   0.912 -0.5678  0.0500 -0.4567
 9356TIP3    H149483   1.171   5.708   0.853  0.1311  0.1895 -0.3675
 9356TIP3    H249484   1.093   5.629   0.955  0.0170  2.0649  1.0713
 9357TIP3   OH249485   1.437   0.268  12.007  0.1839 -0.5062  0.1098
 9357TIP3    H149486   1.430   0.335  12.076  1.8704  0.4736 -0.6132
 9357TIP3    H249487   1.464   0.317  11.929  0.1202 -1.8628 -0.7895
 9358TIP3   OH249488   4.823   3.698  15.282  0.1218 -0.3714 -0.5003
 9358TIP3    H149489   4.739   3.678  15.241 -0.5980  2.3716 -0.5780
 9358TIP3    H249490   4.872   3.746  15.214  1.7755 -1.9069 -0.4504
 9359TIP3   OH249491   4.430   0.330   2.488 -0.7336  0.1065  0.1059
 9359TIP3    H149492   4.438   0.282   2.571  0.9000 -1.5480 -0.9030
 9359TIP3    H249493   4.500   0.395   2.491 -0.1445 -0.4916 -0.2623
 9360TIP3   OH249494   1.006   0.156  10.717  0.2020  0.0052 -0.4796
 9360TIP3    H149495   1.008   0.220  10.646 -1.5176  2.5583  1.5691
 9360TIP3    H249496   0.915   0.156  10.747  0.5233 -2.2066  0.6951
 9361TIP3   OH249497   4.190   0.531   4.849 -0.0650  0.7031 -0.7848
 9361TIP3    H149498   4.151   0.561   4.767  2.3346 -0.7764 -2.5908
 9361TIP3    H249499   4.279   0.564   4.847  0.1710  0.3203  1.1073
 9362TIP3   OH249500   4.952   5.159   1.318  0.1790  0.2702  0.2472
 9362TIP3    H149501   4.911   5.083   1.278 -0.9349  0.5754  0.7632
 9362TIP3    H249502   5.043   5.133   1.332 -0.5415 -1.6302  1.9969
 9363TIP3   OH249503   1.769   6.328   0.749  0.1498 -0.1326 -0.1832
 9363TIP3    H149504   1.825   6.368   0.816  0.2960 -1.5720  0.5877
 9363TIP3    H249505   1.816   6.342   0.667  1.9221 -1.6673  0.4952
 9364TIP3   OH249506   4.820   5.485   4.489  0.1081 -0.7761  0.1394
 9364TIP3    H149507   4.855   5.399   4.513  2.3095 -0.0105 -0.1048
 9364TIP3    H249508   4.875   5.514   4.415 -3.5050 -1.0809 -2.9585
 9365TIP3   OH249509   4.922   2.319  12.178  0.0015 -0.8015 -0.4212
 9365TIP3    H149510   4.906   2.372  12.256  0.4551 -1.1961 -0.0552
 9365TIP3    H249511   4.835   2.288  12.152 -0.2877  0.2414 -0.7379
 9366TIP3   OH249512   0.163   1.692   3.437 -0.0066 -0.1077 -0.2725
 9366TIP3    H149513   0.113   1.692   3.356 -0.3453  1.0755 -0.0778
 9366TIP3    H249514   0.103   1.655   3.502 -0.3374  0.5260 -0.2143
 9367TIP3   OH249515   2.881   2.379  11.992 -0.2945 -0.4020  0.3222
 9367TIP3    H149516   2.855   2.333  12.071  0.2529 -0.0605  0.7079
 9367TIP3    H249517   2.816   2.353  11.926 -2.1664  1.1181  1.4819
 9368TIP3   OH249518   6.136   0.141   3.779 -0.1982 -0.0968 -0.4124
 9368TIP3    H149519   6.148   0.050   3.752  0.2941 -0.2566  0.3233
 9368TIP3    H249520   6.057   0.140   3.833 -1.6053  0.3438 -2.3283
 9369TIP3   OH249521   6.058   4.665   0.974  0.2034  0.3253  0.0155
 9369TIP3    H149522   6.083   4.597   0.911  0.2753 -0.4868  0.8994
 9369TIP3    H249523   6.053   4.619   1.058 -1.5397  1.0245  0.3441
 9370TIP3   OH249524   0.623   3.186   2.401 -0.0446 -0.2686  0.4457
 9370TIP3    H149525   0.619   3.281   2.398  1.0734 -0.2141  0.0630
 9370TIP3    H249526   0.649   3.160   2.312 -0.9073 -0.9748  0.3833
 9371TIP3   OH249527   2.934   3.374  15.535  0.1241 -0.3070  0.9020
 9371TIP3    H149528   2.851   3.404  15.498  0.7609  0.0460 -0.2900
 9371TIP3    H249529   2.925   3.391  15.629 -0.5167  1.2848  0.6001
 9372TIP3   OH249530   3.488   0.977  16.384  0.7119 -0.6190  0.2677
 9372TIP3    H149531   3.404   0.959  16.342  0.1973  2.4603 -0.3371
 9372TIP3    H249532   3.548   0.993  16.310  1.7858 -2.4635  0.6993
 9373TIP3   OH249533   3.824   6.737  13.310 -0.2775  0.2930  0.1140
 9373TIP3    H149534   3.761   6.759  13.379 -1.6649 -0.9315 -0.7011
 9373TIP3    H249535   3.843   6.644  13.324 -0.9782 -0.1128 -1.4323
 9374TIP3   OH249536   1.049   0.276  15.271  0.1763  0.1972 -0.5581
 9374TIP3    H149537   1.050   0.218  15.347 -2.0646  0.4713 -0.2465
 9374TIP3    H249538   1.041   0.216  15.196 -0.6621  0.0157 -0.3391
 9375TIP3   OH249539   4.929   3.808   3.943 -0.3074 -0.2117  0.1110
 9375TIP3    H149540   4.967   3.753   3.875 -1.5898 -2.6062  1.2033
 9375TIP3    H249541   4.991   3.804   4.015 -0.7451 -0.8699  0.4599
 9376TIP3   OH249542   5.406   3.933   5.694  0.5600 -0.0218 -0.6433
 9376TIP3    H149543   5.439   4.021   5.675  0.5657 -0.2187 -1.6124
 9376TIP3    H249544   5.366   3.904   5.612 -0.0256 -0.6724 -0.1408
 9377TIP3   OH249545   2.487   0.391   2.000 -0.2779  0.5166 -0.1198
 9377TIP3    H149546   2.519   0.346   1.922 -0.9985  0.2013 -0.2388
 9377TIP3    H249547   2.567   0.411   2.050  0.0949 -0.4911 -0.2826
 9378TIP3   OH249548   5.452   5.244  11.371 -0.2698 -0.4407  0.0643
 9378TIP3    H149549   5.512   5.248  11.296  1.5553 -2.5714  1.2776
 9378TIP3    H249550   5.389   5.176  11.347 -0.5846 -0.0694 -0.1516
 9379TIP3   OH249551   5.013   3.985  13.064 -0.2269  0.6397 -0.3675
 9379TIP3    H149552   5.014   3.894  13.094  0.5041  0.3914 -1.1108
 9379TIP3    H249553   5.044   3.980  12.974 -0.2892  1.6206 -0.4474
 9380TIP3   OH249554   6.667   0.205   3.028  0.9083  0.2856 -0.2406
 9380TIP3    H149555   6.673   0.299   3.047  1.2789  0.4318 -1.0111
 9380TIP3    H249556   6.668   0.163   3.113 -2.3768  1.0992  0.3549
 9381TIP3   OH249557   0.554   6.029  12.985  0.0008  0.1145 -0.1261
 9381TIP3    H149558   0.565   6.091  13.057 -1.8985  0.4551 -0.0569
 9381TIP3    H249559   0.462   6.040  12.959  0.1528 -1.3186 -1.3858
 9382TIP3   OH249560   2.483   6.229  11.850 -0.6255 -0.4521 -0.4134
 9382TIP3    H149561   2.554   6.294  11.849 -0.6856 -0.3871 -1.1953
 9382TIP3    H249562   2.409   6.276  11.813 -1.5120 -0.0643  1.6934
 9383TIP3   OH249563   1.494   1.810  11.000  0.0902 -0.8602 -0.1630
 9383TIP3    H149564   1.553   1.737  10.983  0.6035 -0.1551 -1.5472
 9383TIP3    H249565   1.407   1.777  10.977  0.5087 -0.5845 -2.3087
 9384TIP3   OH249566   3.600   5.614  12.210  0.0859 -0.0230  0.5223
 9384TIP3    H149567   3.558   5.627  12.294  0.8940  3.1128  0.5577
 9384TIP3    H249568   3.689   5.648  12.222  0.1914  0.5862 -1.5756
 9385TIP3   OH249569   6.351   2.778  12.098 -0.7309 -0.4218 -0.3052
 9385TIP3    H149570   6.348   2.844  12.028 -1.2310 -0.9229 -0.7677
 9385TIP3    H249571   6.395   2.822  12.170 -0.6678  0.2795 -0.7577
 9386TIP3   OH249572   5.964   3.179  13.040  0.0613  0.3177 -0.2018
 9386TIP3    H149573   6.057   3.163  13.030  0.6905  2.0175  2.0439
 9386TIP3    H249574   5.939   3.226  12.960  0.8284 -1.0659 -1.3025
 9387TIP3   OH249575   5.311   5.253   4.533  0.2610  0.1993 -0.5635
 9387TIP3    H149576   5.280   5.215   4.450  0.0841  0.3170 -0.5514
 9387TIP3    H249577   5.406   5.255   4.524  0.1702  2.9826 -2.0028
 9388TIP3   OH249578   0.613   1.920   0.600  0.0274 -0.1079 -0.1260
 9388TIP3    H149579   0.657   1.974   0.535 -1.1140  1.2694  0.2069
 9388TIP3    H249580   0.662   1.935   0.681  0.5309 -0.6599 -0.3151
 9389TIP3   OH249581   0.481   1.533  12.596 -0.3645  0.1708 -0.2141
 9389TIP3    H149582   0.489   1.476  12.672  0.1875 -0.3819 -0.6747
 9389TIP3    H249583   0.569   1.568  12.583 -0.7074  1.1658  0.0835
 9390TIP3   OH249584   1.791   4.938  11.387 -0.0592  0.1178  0.7825
 9390TIP3    H149585   1.751   4.854  11.366 -1.9602  0.9773  0.7794
 9390TIP3    H249586   1.885   4.922  11.380 -0.4157 -1.4778 -1.2020
 9391TIP3   OH249587   6.082   4.304   1.133 -0.5213 -0.3025  0.0615
 9391TIP3    H149588   6.116   4.320   1.045 -0.2155 -0.8675  0.0723
 9391TIP3    H249589   5.987   4.297   1.121 -0.8094  2.2759  0.1716
 9392TIP3   OH249590   5.733   4.576   2.382  0.4064  0.3738  0.4937
 9392TIP3    H149591   5.644   4.544   2.368  0.2384  0.5612  1.0824
 9392TIP3    H249592   5.722   4.666   2.413  0.8968  1.3148 -1.8757
 9393TIP3   OH249593   1.671   3.913   5.337  0.0002  0.1191 -0.3498
 9393TIP3    H149594   1.578   3.894   5.341 -0.0446  0.4206  0.0911
 9393TIP3    H249595   1.710   3.862   5.408 -0.3009  2.6014  1.7412
 9394TIP3   OH249596   4.604   3.311  13.882 -0.4196  0.5213 -0.1631
 9394TIP3    H149597   4.612   3.230  13.931 -1.3635  1.3703  1.4852
 9394TIP3    H249598   4.598   3.284  13.790 -1.0992 -1.2859  0.3828
 9395TIP3   OH249599   2.885   3.080  14.644 -0.1914  0.1147 -0.3232
 9395TIP3    H149600   2.884   2.987  14.621 -0.8490 -0.2903  1.1736
 9395TIP3    H249601   2.836   3.122  14.574  0.1423 -0.6618 -1.0414
 9396TIP3   OH249602   4.183   5.604   4.733  0.2104 -0.1659 -0.1965
 9396TIP3    H149603   4.121   5.677   4.726  0.7121  0.2189 -0.6945
 9396TIP3    H249604   4.259   5.641   4.779 -0.7009 -1.1523  2.2745
 9397TIP3   OH249605   2.908   2.587  16.161 -0.3178 -0.1945  0.2094
 9397TIP3    H149606   2.853   2.634  16.224 -0.8097 -1.0948  0.4794
 9397TIP3    H249607   2.909   2.643  16.083 -1.0971  0.1461  0.4310
 9398TIP3   OH249608   2.588   1.553   1.668  0.2369 -0.1816  1.3727
 9398TIP3    H149609   2.511   1.609   1.654  0.4730  0.1752  1.4721
 9398TIP3    H249610   2.618   1.575   1.756  1.5384  1.0556  0.6769
 9399TIP3   OH249611   3.136   2.351   4.851  0.2913  0.0827  0.3057
 9399TIP3    H149612   3.137   2.363   4.946  0.5822  1.1979  0.1756
 9399TIP3    H249613   3.076   2.278   4.837 -0.1440  0.2305  1.3199
 9400TIP3   OH249614   1.359   0.579  15.881 -0.5244 -0.2065  0.4429
 9400TIP3    H149615   1.314   0.604  15.962  0.9802  0.6670  1.0580
 9400TIP3    H249616   1.389   0.662  15.844  0.2588 -0.7233 -0.1114
 9401TIP3   OH249617   1.650   2.821  15.825 -0.6073  0.2104 -0.2558
 9401TIP3    H149618   1.622   2.766  15.898  0.7261 -0.3096 -0.1079
 9401TIP3    H249619   1.701   2.891  15.865 -0.6468  0.4453 -0.6107
 9402TIP3   OH249620   1.407   2.826   4.523 -0.0412  0.2362  0.7210
 9402TIP3    H149621   1.367   2.896   4.575 -0.6876 -0.0828  0.6685
 9402TIP3    H249622   1.457   2.774   4.586 -0.2231  0.2792  0.9016
 9403TIP3   OH249623   5.864   1.835  11.806 -0.2955 -0.1407  0.2293
 9403TIP3    H149624   5.817   1.874  11.879 -2.2289 -0.2349 -0.8948
 9403TIP3    H249625   5.920   1.905  11.772 -2.0665  1.0236 -0.3976
 9404TIP3   OH249626   2.728   0.262   6.208  0.4913 -0.3541  0.2631
 9404TIP3    H149627   2.787   0.243   6.281 -0.9181 -0.0123  1.5641
 9404TIP3    H249628   2.685   0.344   6.232 -0.9020 -0.8610 -0.3390
 9405TIP3   OH249629   2.113   4.306  15.911  0.2579 -0.3453  0.3470
 9405TIP3    H149630   2.164   4.229  15.884  0.4024 -0.2176  0.2563
 9405TIP3    H249631   2.049   4.271  15.973  0.9251 -0.3935  1.0206
 9406TIP3   OH249632   3.260   3.866   0.280  0.1534 -0.3732 -0.4933
 9406TIP3    H149633   3.353   3.857   0.260  0.5577  0.8204  0.6566
 9406TIP3    H249634   3.220   3.787   0.246  1.5949 -0.9106 -1.0099
 9407TIP3   OH249635   3.582   1.638   3.640 -0.4760  0.8317 -0.7402
 9407TIP3    H149636   3.571   1.588   3.559  0.0127  0.6542 -0.7020
 9407TIP3    H249637   3.493   1.654   3.670 -0.6804 -1.6196  0.2074
 9408TIP3   OH249638   0.560   1.252   5.392 -0.2350  0.2740  0.9938
 9408TIP3    H149639   0.646   1.224   5.422 -0.6238 -0.7441  1.1863
 9408TIP3    H249640   0.498   1.193   5.436 -0.8386 -1.9233 -2.3808
 9409TIP3   OH249641   1.392   1.423   1.574  0.0923  0.0349 -0.6456
 9409TIP3    H149642   1.368   1.508   1.536 -1.3610  0.0326  0.2037
 9409TIP3    H249643   1.309   1.379   1.588  0.7664 -1.0476  0.0667
 9410TIP3   OH249644   2.955   0.777  11.994 -0.0111 -0.1747  0.0819
 9410TIP3    H149645   2.938   0.766  12.088 -1.9732  0.5591 -0.1447
 9410TIP3    H249646   2.872   0.753  11.952  0.6101  0.2096 -1.4201
 9411TIP3   OH249647   1.371   1.854   4.108 -0.2051  0.4929 -0.4748
 9411TIP3    H149648   1.283   1.826   4.132 -0.4502  1.5041 -0.1654
 9411TIP3    H249649   1.357   1.927   4.047  0.3923 -1.5746 -3.3038
 9412TIP3   OH249650   1.121   0.947   3.310  0.2345 -0.1392  0.3619
 9412TIP3    H149651   1.130   0.893   3.232  3.1644  1.6497 -0.7117
 9412TIP3    H249652   1.199   0.927   3.362 -0.7416  0.0631  1.9593
 9413TIP3   OH249653   2.332   0.422   0.322  0.5424  0.5046 -0.6148
 9413TIP3    H149654   2.421   0.385   0.321 -0.4924 -2.3129  0.0814
 9413TIP3    H249655   2.345   0.514   0.342  3.3201  0.2672 -0.8136
 9414TIP3   OH249656   5.090   1.555  13.134  0.3080 -0.2375 -0.0847
 9414TIP3    H149657   5.066   1.592  13.049  1.9068 -0.7097 -0.7668
 9414TIP3    H249658   5.121   1.467  13.114 -1.5203 -1.2845  1.2760
 9415TIP3   OH249659   4.124   3.333  17.063 -0.2210  0.5111 -0.2917
 9415TIP3    H149660   4.188   3.291  17.006  0.2076 -1.2625  1.3863
 9415TIP3    H249661   4.047   3.347  17.008 -0.2962 -2.3020 -1.0684
 9416TIP3   OH249662   2.525   4.068  13.407 -0.4412  0.1750 -0.0656
 9416TIP3    H149663   2.477   4.037  13.330  1.9652 -0.4539 -1.4204
 9416TIP3    H249664   2.535   3.989  13.462 -0.3323  0.1315 -0.1466
 9417TIP3   OH249665   0.665   4.001   2.824  0.5004 -0.2856  0.3672
 9417TIP3    H149666   0.702   3.990   2.737 -1.0071 -2.1837 -0.1048
 9417TIP3    H249667   0.740   3.999   2.883  1.4379 -0.2137 -0.7882
 9418TIP3   OH249668   1.220   5.463   1.840  0.3801  0.1542  0.1209
 9418TIP3    H149669   1.178   5.419   1.914 -2.2163  0.0728 -1.2523
 9418TIP3    H249670   1.276   5.396   1.801 -0.3641 -0.6599  0.4235
 9419TIP3   OH249671   6.588   5.578  14.951  0.0749 -0.1638 -0.7766
 9419TIP3    H149672   6.549   5.593  15.037  0.5906 -0.0721 -0.5581
 9419TIP3    H249673   6.674   5.618  14.955 -0.0206  0.1290 -1.4501
 9420TIP3   OH249674   0.062   2.924   3.143 -0.1989  0.4755  0.0517
 9420TIP3    H149675   0.078   2.896   3.233  0.9491  2.1850  0.4224
 9420TIP3    H249676  -0.014   2.872   3.115 -0.1874 -0.5383  1.7699
 9421TIP3   OH249677   3.611   2.563  13.132 -0.3790 -0.2488 -0.4091
 9421TIP3    H149678   3.570   2.648  13.122 -1.8683 -1.1182 -2.1376
 9421TIP3    H249679   3.613   2.549  13.227 -2.3570  0.6591 -0.1814
 9422TIP3   OH249680   3.329   6.040  11.916  0.1524 -0.3124 -0.6803
 9422TIP3    H149681   3.277   6.056  11.837  1.2412  0.7046 -1.2298
 9422TIP3    H249682   3.370   5.955  11.901 -2.7500 -2.0895  0.6011
 9423TIP3   OH249683   6.636   4.700   6.128  0.1417  0.0916  0.7059
 9423TIP3    H149684   6.582   4.777   6.111  2.5370  1.5523 -0.7554
 9423TIP3    H249685   6.675   4.716   6.213 -0.8940 -0.5169  1.3226
 9424TIP3   OH249686   0.557   6.430   3.353  0.5607  0.1425 -0.1424
 9424TIP3    H149687   0.506   6.487   3.411  1.5847  1.7193 -0.7140
 9424TIP3    H249688   0.498   6.408   3.282 -0.2298 -0.5408  0.7022
 9425TIP3   OH249689   1.125   3.596   6.544 -0.1466  0.1389  0.0873
 9425TIP3    H149690   1.095   3.678   6.583 -1.9616 -0.0415 -0.8456
 9425TIP3    H249691   1.062   3.578   6.474  2.4011 -0.0025 -2.3674
 9426TIP3   OH249692   1.849   0.347  14.172 -0.8048  0.1394  0.6739
 9426TIP3    H149693   1.844   0.416  14.106 -0.5364 -1.7141 -1.3908
 9426TIP3    H249694   1.939   0.313  14.165 -1.1587 -0.9258  1.0911
 9427TIP3   OH249695   1.423   1.012   5.212  0.0862  0.4200  0.4103
 9427TIP3    H149696   1.445   1.097   5.174 -0.7511  1.1778  1.5554
 9427TIP3    H249697   1.331   1.021   5.239  0.3615 -0.3903  1.7041
 9428TIP3   OH249698   5.058   6.199   3.651 -0.4695  0.0560 -0.2262
 9428TIP3    H149699   5.046   6.160   3.738  2.3237  2.0548  1.2220
 9428TIP3    H249700   5.049   6.293   3.665  0.1736  0.4424 -2.0582
 9429TIP3   OH249701   4.916   1.774  16.577 -0.9721  0.3141  0.3676
 9429TIP3    H149702   4.949   1.841  16.638 -2.5145  1.3693  0.0857
 9429TIP3    H249703   4.844   1.817  16.531  0.8639 -0.0074 -3.1170
 9430TIP3   OH249704   6.010   1.775   1.596 -0.2234 -0.1208 -0.6118
 9430TIP3    H149705   5.953   1.823   1.536  0.1517  0.5747 -0.4227
 9430TIP3    H249706   6.090   1.759   1.545 -0.0739  0.0815 -0.4396
 9431TIP3   OH249707   0.287   4.811  11.461 -0.3127  0.4348 -0.0578
 9431TIP3    H149708   0.304   4.811  11.367 -2.4702 -0.3169 -0.5213
 9431TIP3    H249709   0.193   4.832  11.468  0.3245  3.0977  2.0991
 9432TIP3   OH249710   1.790   5.627  13.982 -0.4384  0.0219  0.2464
 9432TIP3    H149711   1.815   5.719  13.978  1.6439 -0.4637  0.7247
 9432TIP3    H249712   1.836   5.593  14.059  0.0682 -1.7333 -0.7585
 9433TIP3   OH249713   0.662   0.490   3.957  0.1836  0.4773 -0.4879
 9433TIP3    H149714   0.702   0.406   3.978  0.0357  0.2309 -1.1470
 9433TIP3    H249715   0.736   0.552   3.956  0.2500  0.4133  0.2774
 9434TIP3   OH249716   5.347   0.762  12.296 -0.4357 -0.2351 -0.0692
 9434TIP3    H149717   5.373   0.696  12.361  1.8952 -0.0770 -0.7368
 9434TIP3    H249718   5.428   0.781  12.249 -1.1935  2.6048 -0.3673
 9435TIP3   OH249719   0.936   4.304  13.030  0.2099 -0.2759 -0.3193
 9435TIP3    H149720   1.016   4.276  12.985 -1.2393 -2.5572 -1.6754
 9435TIP3    H249721   0.865   4.277  12.972 -1.6128  0.5948  1.3865
 9436TIP3   OH249722   1.344   3.570  14.564 -0.3568 -0.1455  0.1100
 9436TIP3    H149723   1.297   3.619  14.497  0.1582  0.0018 -0.1474
 9436TIP3    H249724   1.325   3.478  14.545  0.7516 -0.1652 -0.9654
 9437TIP3   OH249725   5.711   1.155   2.380 -0.1291  0.3198 -0.6253
 9437TIP3    H149726   5.761   1.077   2.355  0.1509  0.0487  0.7351
 9437TIP3    H249727   5.778   1.219   2.406 -0.4186  0.4713 -0.2425
 9438TIP3   OH249728   2.274   5.109   0.517 -0.4762  0.0409  0.5542
 9438TIP3    H149729   2.320   5.060   0.586 -2.3781 -0.8194  1.2773
 9438TIP3    H249730   2.275   5.199   0.548  1.7614  0.3125 -0.0721
 9439TIP3   OH249731   2.542   5.354  10.686 -0.2194 -0.3362  0.4429
 9439TIP3    H149732   2.559   5.275  10.737  1.8300 -0.0329  0.3083
 9439TIP3    H249733   2.464   5.332  10.634 -0.2789 -1.8967  1.1271
 9440TIP3   OH249734   4.412   6.546   3.956  0.7445  0.2426  0.2680
 9440TIP3    H149735   4.458   6.522   3.875  0.7309 -0.6036  0.4955
 9440TIP3    H249736   4.443   6.482   4.020 -0.4141 -0.0752  0.5297
 9441TIP3   OH249737   4.240   5.536  16.464 -0.0181 -0.6425  0.1744
 9441TIP3    H149738   4.264   5.487  16.385  0.4415 -0.1028 -0.0256
 9441TIP3    H249739   4.297   5.613  16.463 -2.7422  1.5527 -1.1649
 9442TIP3   OH249740   5.833   6.266   0.919 -0.0599  0.7673 -0.3145
 9442TIP3    H149741   5.816   6.277   1.012 -0.9578 -0.9857 -0.2105
 9442TIP3    H249742   5.761   6.312   0.876 -0.4068  0.4364 -0.0940
 9443TIP3   OH249743   6.538   5.377   4.853  0.2382 -0.4029 -0.2164
 9443TIP3    H149744   6.503   5.460   4.821  2.5397  0.5363 -0.5023
 9443TIP3    H249745   6.461   5.327   4.881 -1.3959  0.9428 -2.0623
 9444TIP3   OH249746   6.379   2.251  14.220 -0.1644  0.5721  0.5150
 9444TIP3    H149747   6.402   2.238  14.312  2.4298 -0.1017 -0.1601
 9444TIP3    H249748   6.340   2.168  14.193  0.0342  0.4014  0.7472
 9445TIP3   OH249749   4.667   3.825  12.404  0.5690 -0.6201  0.5624
 9445TIP3    H149750   4.724   3.753  12.378  1.3713 -0.2065  1.1106
 9445TIP3    H249751   4.627   3.796  12.486 -0.5938 -1.2038 -0.1840
 9446TIP3   OH249752   4.292   0.143  11.807  0.5718 -0.6313 -0.1639
 9446TIP3    H149753   4.252   0.151  11.893 -1.7150  1.5157 -1.3277
 9446TIP3    H249754   4.226   0.100  11.754  0.4728  1.2341 -1.6554
 9447TIP3   OH249755   1.688   4.770  12.784  0.1355  0.4090  0.3800
 9447TIP3    H149756   1.755   4.798  12.846 -1.1492  0.2939  1.8709
 9447TIP3    H249757   1.612   4.824  12.804 -0.4563  0.0644 -0.8173
 9448TIP3   OH249758   5.261   1.808  17.180  0.1831 -0.3206 -0.9924
 9448TIP3    H149759   5.211   1.743  17.131 -0.8757  0.4930 -1.0226
 9448TIP3    H249760   5.265   1.884  17.122  0.1572  0.1520 -0.3806
 9449TIP3   OH249761   4.787   2.106   0.447 -0.2650  0.5012 -0.1377
 9449TIP3    H149762   4.836   2.032   0.484 -1.1801 -0.5320 -0.9163
 9449TIP3    H249763   4.721   2.126   0.513 -0.5885  0.0170 -0.3099
 9450TIP3   OH249764   6.733   2.439  15.753  0.6408 -0.4450 -0.8211
 9450TIP3    H149765   6.660   2.378  15.767  2.1454 -2.0594  0.3341
 9450TIP3    H249766   6.740   2.445  15.658 -0.9648 -0.2454 -0.9700
 9451TIP3   OH249767   5.582   6.475   1.514 -0.0086  0.2429 -0.1184
 9451TIP3    H149768   5.556   6.417   1.585  1.5749 -2.2837 -1.4223
 9451TIP3    H249769   5.678   6.474   1.516  0.1084 -0.1568 -2.3438
 9452TIP3   OH249770   3.016   2.613   1.537  0.3338 -0.1856  0.1139
 9452TIP3    H149771   3.044   2.559   1.463  2.3849  2.3762 -1.1582
 9452TIP3    H249772   3.094   2.623   1.591 -0.6707 -0.5112  1.7091
 9453TIP3   OH249773   4.588   3.870  16.261 -0.1964 -0.0450 -0.1475
 9453TIP3    H149774   4.645   3.820  16.202  1.4489  1.5227  0.0203
 9453TIP3    H249775   4.550   3.804  16.318  1.8624 -1.1569  0.0592
 9454TIP3   OH249776   6.577   0.854  13.610 -0.9827 -0.0517 -0.7630
 9454TIP3    H149777   6.645   0.788  13.595 -0.0433  0.8175 -0.4025
 9454TIP3    H249778   6.520   0.815  13.676 -0.2237 -0.3483 -0.2738
 9455TIP3   OH249779   3.153   0.326  16.125 -0.2641 -0.3628 -0.3904
 9455TIP3    H149780   3.105   0.243  16.121 -0.9120  0.0381 -1.0632
 9455TIP3    H249781   3.142   0.356  16.215 -0.8070 -0.5473 -0.3961
 9456TIP3   OH249782   1.134   3.346   1.559 -0.5660 -0.8305  0.0117
 9456TIP3    H149783   1.040   3.359   1.569 -0.4814  0.2418 -0.4374
 9456TIP3    H249784   1.143   3.271   1.500 -1.1163 -1.6073  0.8866
 9457TIP3   OH249785   1.675   0.732  12.774 -0.5383  0.0662  0.2328
 9457TIP3    H149786   1.611   0.668  12.807 -2.3195  1.4027 -0.5004
 9457TIP3    H249787   1.650   0.745  12.682  1.2470  0.1044 -0.2722
 9458TIP3   OH249788   3.059   4.646   1.545  0.1367 -0.0044  0.3077
 9458TIP3    H149789   3.116   4.573   1.568  1.4781  0.3158 -1.7689
 9458TIP3    H249790   3.101   4.687   1.470 -1.8967  1.3991 -0.1505
 9459TIP3   OH249791   3.467   0.221  15.358  0.1815  0.1324 -0.1181
 9459TIP3    H149792   3.549   0.270  15.351 -0.3895  1.2171  0.3848
 9459TIP3    H249793   3.454   0.183  15.272  1.2898 -0.2022 -0.1578
 9460TIP3   OH249794   4.143   2.304   1.547  0.4418  0.4359 -0.2072
 9460TIP3    H149795   4.167   2.393   1.572  1.5406  0.6211 -1.7211
 9460TIP3    H249796   4.225   2.255   1.554  0.9603  0.5852 -3.5020
 9461TIP3   OH249797   3.156   0.634  14.565  0.5204  0.0310 -0.0730
 9461TIP3    H149798   3.071   0.644  14.608  0.9187  0.7885  0.5537
 9461TIP3    H249799   3.167   0.714  14.515  1.8977  1.0387  1.7224
 9462TIP3   OH249800   6.003   2.718   0.616  0.4222 -0.4050 -0.4791
 9462TIP3    H149801   6.063   2.674   0.556  0.4295  0.9226 -1.4764
 9462TIP3    H249802   6.015   2.811   0.598 -1.6569 -0.0829 -0.4372
 9463TIP3   OH249803   3.650   4.055   4.798 -0.4927 -0.0542 -0.3462
 9463TIP3    H149804   3.684   3.966   4.810  2.1370  0.9815  0.4682
 9463TIP3    H249805   3.606   4.076   4.880 -2.3318 -1.0210 -1.0240
 9464TIP3   OH249806   3.638   3.733   3.042 -0.0950  0.5884 -0.3288
 9464TIP3    H149807   3.546   3.759   3.050  0.4036  1.9953  1.4320
 9464TIP3    H249808   3.674   3.745   3.129  1.8304  0.2522 -1.0270
 9465TIP3   OH249809   6.059   6.757   4.824  0.1520  0.1977 -0.2766
 9465TIP3    H149810   6.040   6.665   4.842  2.0706 -0.3582 -0.8237
 9465TIP3    H249811   5.987   6.786   4.768  0.8404 -1.7733 -2.3423
 9466TIP3   OH249812   3.997   3.452   1.338 -0.5663  0.1876  0.2645
 9466TIP3    H149813   4.078   3.440   1.388 -0.6349  0.0523  0.3435
 9466TIP3    H249814   3.939   3.499   1.397 -0.2307  1.0974 -0.1131
 9467TIP3   OH249815   2.237   6.664  12.877 -0.0404  0.2067  0.2155
 9467TIP3    H149816   2.210   6.577  12.909 -1.5251  0.3871 -0.4473
 9467TIP3    H249817   2.310   6.688  12.934 -0.5884 -0.8118  1.4331
 9468TIP3   OH249818   2.045   1.646   4.576 -0.9773  0.2830  0.1901
 9468TIP3    H149819   2.015   1.563   4.612  1.0725 -1.3678 -1.6166
 9468TIP3    H249820   2.119   1.671   4.631 -0.6724  0.1124 -0.1343
 9469TIP3   OH249821   4.581   5.461   4.727  0.2844 -0.6824 -0.3451
 9469TIP3    H149822   4.638   5.384   4.731  0.1497 -0.8063 -0.7330
 9469TIP3    H249823   4.635   5.533   4.759 -0.9357 -1.6349  4.6433
 9470TIP3   OH249824   2.364   5.614   6.497  0.1595  0.2033  0.0760
 9470TIP3    H149825   2.439   5.569   6.459 -0.2038 -0.2780 -0.0769
 9470TIP3    H249826   2.400   5.659   6.574  0.6242  0.0715 -0.0590
 9471TIP3   OH249827   2.472   2.225   6.164  0.1918  0.1644 -0.2696
 9471TIP3    H149828   2.442   2.310   6.130  0.7368  1.1055  1.4498
 9471TIP3    H249829   2.473   2.237   6.259  0.8500 -1.5942 -0.0245
 9472TIP3   OH249830   4.685   0.652   0.948  0.7297  0.3916  0.6204
 9472TIP3    H149831   4.731   0.620   0.871 -0.1649  0.4842  0.0409
 9472TIP3    H249832   4.610   0.700   0.913 -0.4497 -0.7139  1.5679
 9473TIP3   OH249833   5.109   0.507  13.807  0.1094 -0.1987 -0.2897
 9473TIP3    H149834   5.167   0.489  13.733 -1.1496 -1.6706 -0.9853
 9473TIP3    H249835   5.129   0.438  13.870 -0.1319 -0.0791 -0.0828
 9474TIP3   OH249836   6.307   1.936  13.613  0.1301 -0.4712 -0.3565
 9474TIP3    H149837   6.218   1.903  13.630  0.0426 -0.0442  0.0126
 9474TIP3    H249838   6.349   1.864  13.565 -0.6296 -0.4049 -1.1677
 9475TIP3   OH249839   3.085   0.210  15.098 -0.3072  0.1354  0.2037
 9475TIP3    H149840   3.006   0.165  15.067 -1.7061  0.8833  2.4496
 9475TIP3    H249841   3.066   0.303  15.087  1.3755  0.3403 -1.6354
 9476TIP3   OH249842   4.609   2.414   0.740  0.3310 -0.4872  0.3626
 9476TIP3    H149843   4.675   2.419   0.809  0.7813 -0.2533 -0.0725
 9476TIP3    H249844   4.525   2.428   0.785  0.4333 -2.1571  1.1367
 9477TIP3   OH249845   1.851   0.401   4.057 -0.7244 -0.2749 -0.0855
 9477TIP3    H149846   1.776   0.357   4.097 -0.4465 -0.6752 -0.0032
 9477TIP3    H249847   1.917   0.333   4.047  0.0799  0.3211  0.9508
 9478TIP3   OH249848   1.558   6.027  15.990 -0.3824 -0.4547 -0.2167
 9478TIP3    H149849   1.616   5.998  16.060 -0.5152 -0.1428  0.0253
 9478TIP3    H249850   1.593   5.986  15.911  1.0792  0.8900 -0.3321
 9479TIP3   OH249851   4.413   4.013  15.748 -0.0503  0.0685  0.5218
 9479TIP3    H149852   4.384   3.990  15.660 -0.0662  0.3643  0.4503
 9479TIP3    H249853   4.397   3.934  15.799  0.4371 -0.2828  0.1485
 9480TIP3   OH249854   3.101   5.622   0.325 -0.2818  0.4176  0.5536
 9480TIP3    H149855   3.189   5.648   0.296  0.5523 -1.0747  1.6166
 9480TIP3    H249856   3.089   5.534   0.291 -0.8697  0.1346  1.4500
 9481TIP3   OH249857   6.536   2.032   4.613 -0.2838 -0.1174  0.2829
 9481TIP3    H149858   6.520   2.029   4.707 -1.1010 -0.8138  0.1270
 9481TIP3    H249859   6.611   2.091   4.604  1.0276 -1.4930  1.5290
 9482TIP3   OH249860   2.321   4.863  17.342  0.4649  0.6397 -0.0712
 9482TIP3    H149861   2.255   4.870  17.273  1.1942  1.4504 -0.6987
 9482TIP3    H249862   2.368   4.946  17.339  1.4077  0.1411  0.4862
 9483TIP3   OH249863   4.513   1.665   5.352 -0.2850  0.3697  0.1718
 9483TIP3    H149864   4.477   1.666   5.264 -1.9761 -0.2716  0.8151
 9483TIP3    H249865   4.586   1.603   5.348  0.1497  0.9285 -0.9260
 9484TIP3   OH249866   6.213   0.595   4.406 -0.1373 -0.1044 -0.4685
 9484TIP3    H149867   6.239   0.507   4.379 -1.1669 -0.5378 -0.0861
 9484TIP3    H249868   6.291   0.648   4.392  0.6503 -1.1768 -0.2272
 9485TIP3   OH249869   0.594   0.820  11.789  0.0645 -0.2336 -0.4140
 9485TIP3    H149870   0.645   0.864  11.721 -0.4014 -1.6267 -1.7068
 9485TIP3    H249871   0.517   0.785  11.744 -1.7338  1.1866  1.3511
 9486TIP3   OH249872   1.794   0.683  13.335 -0.2398 -0.5482  0.4771
 9486TIP3    H149873   1.838   0.667  13.252 -1.4807 -1.2963 -0.0604
 9486TIP3    H249874   1.864   0.680  13.400  0.4284 -2.4123 -0.2520
 9487TIP3   OH249875   4.663   1.153   4.625 -0.5191 -0.1890 -0.4306
 9487TIP3    H149876   4.606   1.188   4.557 -1.1081 -0.7507 -0.2375
 9487TIP3    H249877   4.662   1.219   4.695 -1.3714 -0.4480 -0.1970
 9488TIP3   OH249878   0.581   3.488   6.981 -0.2501  0.0389 -0.4459
 9488TIP3    H149879   0.541   3.573   6.998 -1.4996 -0.8053  1.1864
 9488TIP3    H249880   0.665   3.492   7.027 -0.5236  0.2461  0.0549
 9489TIP3   OH249881   0.635   3.902  12.417  0.5016  0.1859  0.0626
 9489TIP3    H149882   0.681   3.986  12.425 -0.3960  0.6566  0.4077
 9489TIP3    H249883   0.693   3.848  12.363  0.6228  1.3707 -1.0454
 9490TIP3   OH249884   3.859   5.160  14.865  0.1024 -0.3986 -0.5001
 9490TIP3    H149885   3.813   5.154  14.949 -0.2819 -1.5067 -0.7801
 9490TIP3    H249886   3.921   5.232  14.878 -0.4761 -0.0480  0.4757
 9491TIP3   OH249887   2.889   2.602   5.834  0.6969 -0.8631  0.3207
 9491TIP3    H149888   2.981   2.591   5.856  0.9307  2.7313  1.8017
 9491TIP3    H249889   2.846   2.618   5.919 -0.9828 -0.7501 -0.4989
 9492TIP3   OH249890   0.490   4.784   1.697  0.1787  0.3185  0.5631
 9492TIP3    H149891   0.542   4.714   1.737  1.0839  0.0777 -0.9632
 9492TIP3    H249892   0.420   4.738   1.650  0.2301  0.4811  0.3254
 9493TIP3   OH249893   3.170   4.346  12.051 -0.3002 -0.3078 -0.1248
 9493TIP3    H149894   3.136   4.282  12.112  0.9350 -0.8618  0.0200
 9493TIP3    H249895   3.216   4.410  12.107 -2.0328  1.0762 -0.2068
 9494TIP3   OH249896   6.580   6.698  13.075  0.3580 -0.3211  0.2672
 9494TIP3    H149897   6.500   6.747  13.057 -1.0004 -2.0469  1.3713
 9494TIP3    H249898   6.640   6.763  13.113 -0.7450  0.8393  0.0811
 9495TIP3   OH249899   0.467   1.499   5.423 -0.6739  0.1847 -0.4814
 9495TIP3    H149900   0.516   1.417   5.424 -0.2282  0.4440  0.2563
 9495TIP3    H249901   0.496   1.545   5.502 -3.2275 -0.3020  0.8659
 9496TIP3   OH249902   5.306   4.315  16.138 -0.3912 -0.0020 -0.6842
 9496TIP3    H149903   5.347   4.264  16.208  1.2713  2.5828  0.3937
 9496TIP3    H249904   5.213   4.310  16.157 -0.0316  0.1340  1.4120
 9497TIP3   OH249905   4.478   4.197  14.597 -0.3225 -0.2011 -0.0231
 9497TIP3    H149906   4.531   4.275  14.581 -0.9499  0.4472  0.9306
 9497TIP3    H249907   4.397   4.211  14.548  0.0594 -0.8430 -0.8658
 9498TIP3   OH249908   1.447   5.951  15.564 -0.5085  0.3374  0.0485
 9498TIP3    H149909   1.387   5.933  15.636  1.7882  1.0072  2.2444
 9498TIP3    H249910   1.422   6.038  15.534 -1.8745 -0.1900 -0.4576
 9499TIP3   OH249911   3.977   1.542   6.063 -1.2190  0.0401 -0.2627
 9499TIP3    H149912   4.046   1.495   6.017 -1.9863 -0.0818 -1.3173
 9499TIP3    H249913   3.920   1.576   5.994 -2.4421 -0.2159  0.5843
 9500TIP3   OH249914   5.596   6.207   5.869 -0.1452 -0.2470 -0.2865
 9500TIP3    H149915   5.678   6.161   5.891  1.5248  1.9938 -1.3850
 9500TIP3    H249916   5.580   6.185   5.777 -0.7726 -0.6371 -0.0892
 9501TIP3   OH249917   3.669   2.164   5.803 -0.9338  0.2967  0.5235
 9501TIP3    H149918   3.716   2.224   5.860  0.9778  0.2546 -0.9295
 9501TIP3    H249919   3.718   2.082   5.808 -0.8955  0.2093 -0.9265
 9502TIP3   OH249920   4.211   1.598   1.547  0.1022 -0.4053  0.5000
 9502TIP3    H149921   4.186   1.690   1.552 -1.6579 -0.8788  1.6192
 9502TIP3    H249922   4.271   1.585   1.620  1.7013  0.1909 -0.6689
 9503TIP3   OH249923   3.381   5.794   6.079  0.1593  0.2309 -0.2040
 9503TIP3    H149924   3.355   5.746   6.000 -0.9523  0.4846 -0.0051
 9503TIP3    H249925   3.447   5.738   6.120  0.1366 -0.3039 -0.8721
 9504TIP3   OH249926   3.559   1.813  14.362  0.5117  0.7387 -0.1045
 9504TIP3    H149927   3.564   1.720  14.339  0.5069  0.3804  1.2783
 9504TIP3    H249928   3.466   1.833  14.358  0.6647  1.3355 -2.7080
 9505TIP3   OH249929   3.562   4.351   4.184  0.7550  0.1756 -0.2213
 9505TIP3    H149930   3.575   4.357   4.090 -0.0268  1.6554 -0.2563
 9505TIP3    H249931   3.504   4.424   4.206  2.2643  0.9077  1.6550
 9506TIP3   OH249932   0.085   6.554   1.335  1.0117 -0.2212 -0.0984
 9506TIP3    H149933   0.016   6.552   1.269 -0.5563 -0.7579  1.4811
 9506TIP3    H249934   0.088   6.465   1.370  1.3788  0.1791  0.9435
 9507TIP3   OH249935   2.186   4.792   6.779  0.2446  0.0486 -0.0713
 9507TIP3    H149936   2.188   4.877   6.823  0.0720 -0.8405  1.7433
 9507TIP3    H249937   2.100   4.789   6.737  0.7214  1.2429 -1.1926
 9508TIP3   OH249938   3.232   1.225  15.003  0.8043 -0.2504  0.1189
 9508TIP3    H149939   3.235   1.134  14.976  1.1745  0.9587 -4.7088
 9508TIP3    H249940   3.139   1.244  15.016  0.3790 -0.6178 -2.0796
 9509TIP3   OH249941   2.077   1.539  12.421  0.2968  0.3220 -0.7221
 9509TIP3    H149942   2.078   1.602  12.349 -0.9558  0.4164 -0.6895
 9509TIP3    H249943   1.988   1.504  12.419 -0.5170  1.9171  2.1236
 9510TIP3   OH249944   1.956   6.566   1.353 -0.1999  0.5291 -0.4524
 9510TIP3    H149945   2.039   6.602   1.383  0.3120 -2.0927  1.6382
 9510TIP3    H249946   1.980   6.485   1.307 -1.5559 -0.5732  0.6863
 9511TIP3   OH249947   4.050   2.684   0.245 -0.4292 -0.1569 -0.6239
 9511TIP3    H149948   3.960   2.656   0.227 -0.4166 -1.0066  0.5140
 9511TIP3    H249949   4.044   2.779   0.250 -1.2301 -0.1859 -0.7438
 9512TIP3   OH249950   5.453   3.115   6.521  0.4055 -0.0066 -0.1236
 9512TIP3    H149951   5.458   3.205   6.554  1.0615 -0.9433  2.5930
 9512TIP3    H249952   5.423   3.064   6.596  3.1944 -2.5363 -0.5608
 9513TIP3   OH249953   3.594   1.059  16.137  0.0230  0.2726 -0.3089
 9513TIP3    H149954   3.599   0.990  16.071 -2.4800  1.1815 -1.5630
 9513TIP3    H249955   3.670   1.116  16.118  0.6111 -0.6952 -0.9244
 9514TIP3   OH249956   4.777   4.348   3.057 -0.0092 -0.4278 -0.0096
 9514TIP3    H149957   4.865   4.344   3.021 -0.2487 -1.1070 -0.5393
 9514TIP3    H249958   4.782   4.297   3.139 -0.1521 -1.3968 -0.5849
 9515TIP3   OH249959   3.513   1.547   3.169  0.3937 -0.4317 -0.6777
 9515TIP3    H149960   3.603   1.520   3.191 -0.4411 -1.4558  1.8405
 9515TIP3    H249961   3.479   1.475   3.115 -0.1941 -2.2210  1.8809
 9516TIP3   OH249962   1.681   5.391  13.467  0.2915 -0.1144 -0.6434
 9516TIP3    H149963   1.713   5.481  13.470  3.5773 -1.1169 -1.3767
 9516TIP3    H249964   1.638   5.383  13.382 -3.1406  1.5343  0.7493
 9517TIP3   OH249965   1.142   0.727  13.248  0.1212  0.3244  0.0096
 9517TIP3    H149966   1.177   0.744  13.335 -0.9903  1.3970  0.2799
 9517TIP3    H249967   1.050   0.703  13.263  0.2435 -0.6804 -0.7811
 9518TIP3   OH249968   3.398   3.703   4.461  0.6298  0.7539  0.5271
 9518TIP3    H149969   3.313   3.732   4.494  0.9492  1.1904  0.9881
 9518TIP3    H249970   3.444   3.784   4.440  1.0159  0.5294  0.4977
 9519TIP3   OH249971   4.450   2.672   4.587  0.5138  0.2222  0.4658
 9519TIP3    H149972   4.538   2.644   4.611  1.6790  1.8766 -1.5461
 9519TIP3    H249973   4.393   2.626   4.648  2.6893 -1.5462  1.3071
 9520TIP3   OH249974   5.301   0.841   1.566  0.2524 -0.3489 -0.1897
 9520TIP3    H149975   5.260   0.926   1.582  0.4426  0.8157 -4.4293
 9520TIP3    H249976   5.229   0.778   1.574 -0.7651  0.7213 -0.5380
 9521TIP3   OH249977   4.405   3.370  11.630  0.0535  0.0182  0.0824
 9521TIP3    H149978   4.393   3.327  11.714  0.4414 -0.7729 -0.2547
 9521TIP3    H249979   4.497   3.395  11.628  0.3271 -0.9838 -0.5622
 9522TIP3   OH249980   5.161   4.434  12.162 -0.1457 -0.2433  0.4967
 9522TIP3    H149981   5.137   4.351  12.202 -2.0189 -0.9376 -1.8251
 9522TIP3    H249982   5.118   4.501  12.215  0.4582 -0.8156  1.7293
 9523TIP3   OH249983   2.283   5.439  14.895  0.3571 -0.1873  0.3317
 9523TIP3    H149984   2.312   5.381  14.826  1.6482 -0.9050  1.4228
 9523TIP3    H249985   2.188   5.429  14.898  0.0975  0.8455 -2.1462
 9524TIP3   OH249986   5.615   4.014   4.927 -0.0333  0.0631  0.0965
 9524TIP3    H149987   5.700   4.058   4.921 -0.5820  1.3208  1.0196
 9524TIP3    H249988   5.602   3.974   4.841  0.5998  1.5549 -0.7293
 9525TIP3   OH249989   4.567   3.271  15.269  0.1463 -0.0902  0.3340
 9525TIP3    H149990   4.516   3.346  15.297 -1.3580 -1.0143  0.2044
 9525TIP3    H249991   4.657   3.304  15.261 -0.4561  1.6464  0.3359
 9526TIP3   OH249992   1.314   0.913  13.067 -0.1901  0.0207 -0.2934
 9526TIP3    H149993   1.296   1.001  13.099 -2.6360 -0.0390 -1.2649
 9526TIP3    H249994   1.265   0.855  13.126 -1.6027 -0.3633 -1.7765
 9527TIP3   OH249995   4.691   4.296  16.513  0.2304 -0.0705 -0.3032
 9527TIP3    H149996   4.769   4.330  16.557  1.2580 -0.2148 -1.9215
 9527TIP3    H249997   4.682   4.206  16.544  0.1806  0.2147  0.5397
 9528TIP3   OH249998   4.860   2.091  10.695  0.1734  0.2803  0.1016
 9528TIP3    H149999   4.768   2.065  10.691  0.2107  0.0730  0.5954
 9528TIP3    H250000   4.908   2.009  10.686  0.3079  0.3710 -0.0022
 9529TIP3   OH250001   0.310   4.551  14.661 -0.5001 -0.1921 -0.0905
 9529TIP3    H150002   0.222   4.589  14.658  0.2017  1.5251 -1.8618
 9529TIP3    H250003   0.364   4.619  14.701  0.2891 -0.5479 -0.5151
 9530TIP3   OH250004   4.407   4.437   5.197 -0.5141 -0.2212  0.1822
 9530TIP3    H150005   4.316   4.465   5.195 -0.5386 -0.3483 -0.9476
 9530TIP3    H250006   4.428   4.415   5.107  0.7343  0.0987  0.3683
 9531TIP3   OH250007   1.389   0.249  14.989 -0.0770  0.3574 -0.1394
 9531TIP3    H150008   1.449   0.279  14.921  0.3498  1.0659  0.5353
 9531TIP3    H250009   1.307   0.231  14.942  0.7401 -0.9374 -1.1186
 9532TIP3   OH250010   5.694   6.160   5.319  0.4759  0.2206  0.2447
 9532TIP3    H150011   5.782   6.123   5.322  0.3861 -0.0118  0.0936
 9532TIP3    H250012   5.656   6.123   5.239 -0.4049 -1.1629  1.2630
 9533TIP3   OH250013   5.881   3.203  11.047  0.5366  0.0932  0.1537
 9533TIP3    H150014   5.889   3.258  11.125  2.6319  0.1845 -0.0661
 9533TIP3    H250015   5.904   3.115  11.076  0.9591  0.0586 -0.2616
 9534TIP3   OH250016   3.686   4.919  16.034 -0.0385 -0.3337 -0.1855
 9534TIP3    H150017   3.705   4.882  16.120 -0.3738  0.6129  0.3049
 9534TIP3    H250018   3.770   4.914  15.987  0.6192  0.7583  0.8105
 9535TIP3   OH250019   2.562   5.290  15.684  0.4467 -0.1299 -0.0902
 9535TIP3    H150020   2.468   5.272  15.685 -0.0560  2.2636 -0.0205
 9535TIP3    H250021   2.580   5.319  15.594  0.6661  1.4970  0.4608
 9536TIP3   OH250022   2.111   5.813   5.181  0.3672 -0.9338 -0.0804
 9536TIP3    H150023   2.105   5.792   5.088  1.6613  1.2590 -0.7246
 9536TIP3    H250024   2.138   5.731   5.223  1.8907 -1.4577 -1.9465
 9537TIP3   OH250025   1.421   3.007  12.833  0.2241  0.4951 -0.0027
 9537TIP3    H150026   1.475   3.034  12.759  0.8880 -1.3463 -0.2453
 9537TIP3    H250027   1.348   2.959  12.793  0.3540 -0.1338  0.5035
 9538TIP3   OH250028   1.193   2.671  11.288  0.3787 -0.4968 -0.1494
 9538TIP3    H150029   1.180   2.705  11.376  2.7114  1.0603 -0.3130
 9538TIP3    H250030   1.138   2.726  11.232  1.3041  0.6266  0.0157
 9539TIP3   OH250031   2.989   3.718  16.187 -0.1067  0.5615 -0.0525
 9539TIP3    H150032   3.035   3.762  16.258 -0.2447  1.8335 -0.7176
 9539TIP3    H250033   3.042   3.736  16.109 -1.8147  2.3799 -0.9059
 9540TIP3   OH250034   5.614   0.252   1.452 -0.0750 -0.4882 -0.1987
 9540TIP3    H150035   5.535   0.200   1.437  0.3383 -1.5723  1.1187
 9540TIP3    H250036   5.596   0.300   1.533  0.8491 -1.2655  0.4841
 9541TIP3   OH250037   0.245   4.380  15.923  0.1061  0.3144 -0.5244
 9541TIP3    H150038   0.338   4.385  15.943 -0.0738  0.1705  0.3730
 9541TIP3    H250039   0.241   4.331  15.841  0.8503  0.8345 -0.8833
 9542TIP3   OH250040   0.990   3.765   6.767  0.3566  0.5499  0.2135
 9542TIP3    H150041   1.080   3.778   6.797  0.1771  0.1161  0.9466
 9542TIP3    H250042   0.939   3.760   6.847 -0.2564  0.2966 -0.1932
 9543TIP3   OH250043   5.456   4.135   3.724 -0.0897 -0.3908  1.1873
 9543TIP3    H150044   5.487   4.224   3.740  1.3545 -1.0304  2.2512
 9543TIP3    H250045   5.362   4.138   3.742  0.1851  0.6247  2.6367
 9544TIP3   OH250046   5.626   2.454  13.085 -0.3158  0.0677 -0.0866
 9544TIP3    H150047   5.630   2.518  13.156 -1.9476  1.8295 -1.4467
 9544TIP3    H250048   5.651   2.504  13.007 -2.0761 -0.7975 -1.2766
 9545TIP3   OH250049   6.108   3.840  14.534  0.6241 -0.1036 -0.0449
 9545TIP3    H150050   6.116   3.930  14.567  2.4665 -0.9129  1.9455
 9545TIP3    H250051   6.144   3.786  14.604 -1.7040 -2.5474 -0.5884
 9546TIP3   OH250052   5.768   5.627   4.906 -0.6673 -0.2983 -0.5432
 9546TIP3    H150053   5.794   5.573   4.980 -0.4947  0.2368 -0.2065
 9546TIP3    H250054   5.775   5.570   4.830 -1.5311 -1.0667 -0.0598
 9547TIP3   OH250055   2.310   1.203  11.561 -0.0247  0.2988  0.0826
 9547TIP3    H150056   2.308   1.221  11.467 -1.2118 -0.9732 -0.1648
 9547TIP3    H250057   2.314   1.108  11.568 -1.3571  0.2929  1.3171
 9548TIP3   OH250058   3.275   4.705   0.206  0.0768  0.0774 -0.4756
 9548TIP3    H150059   3.244   4.615   0.216  2.3453 -0.8373 -0.9845
 9548TIP3    H250060   3.294   4.713   0.112 -0.0987  1.0989 -0.4344
 9549TIP3   OH250061   6.271   4.708   2.938 -0.2689 -0.1686 -0.2409
 9549TIP3    H150062   6.364   4.690   2.926 -0.0656 -0.5505  1.6322
 9549TIP3    H250063   6.267   4.775   3.005 -1.3468  0.2448 -0.6898
 9550TIP3   OH250064   5.044   5.963  15.343  0.4161 -0.1735  0.3998
 9550TIP3    H150065   5.015   6.053  15.328 -0.8013 -0.5048  0.5830
 9550TIP3    H250066   5.138   5.969  15.359  0.4453  0.9953 -0.1364
 9551TIP3   OH250067   5.732   2.941  16.484 -0.2573 -0.0065  0.3734
 9551TIP3    H150068   5.806   3.001  16.476 -0.8219  0.8343  1.2192
 9551TIP3    H250069   5.716   2.936  16.578 -2.0358  0.7955  0.1502
 9552TIP3   OH250070   4.029   0.323   1.376 -0.0359 -0.2978 -0.2741
 9552TIP3    H150071   4.111   0.274   1.366 -0.5391 -1.2826  0.2471
 9552TIP3    H250072   3.990   0.288   1.456 -1.1173 -0.0635 -0.6810
 9553TIP3   OH250073   2.003   0.917  11.722 -0.2168 -0.0528  0.4544
 9553TIP3    H150074   1.952   0.837  11.726 -1.3904  0.5243 -1.4974
 9553TIP3    H250075   2.020   0.940  11.814 -1.4640 -1.5113  1.0852
 9554TIP3   OH250076   3.021   0.345   0.451 -0.2987 -0.1647 -0.4077
 9554TIP3    H150077   3.052   0.413   0.391 -0.2534 -0.2215 -0.4477
 9554TIP3    H250078   2.948   0.387   0.498  0.0572  0.0879 -0.0701
 9555TIP3   OH250079   3.439   6.123   1.216  0.2466  0.2695  0.2948
 9555TIP3    H150080   3.483   6.195   1.170 -2.8139  2.0893 -0.0264
 9555TIP3    H250081   3.377   6.089   1.152 -1.9408  0.8117  2.0366
 9556TIP3   OH250082   5.951   1.500   2.312 -0.2279  0.1562  0.4988
 9556TIP3    H150083   5.924   1.592   2.307  1.1846  0.6137  0.7062
 9556TIP3    H250084   5.984   1.479   2.225  0.0908  0.0718  0.6356
 9557TIP3   OH250085   0.791   4.795   1.640  0.3448  0.5300 -0.1399
 9557TIP3    H150086   0.811   4.710   1.599 -0.4016  0.2748 -0.0019
 9557TIP3    H250087   0.702   4.783   1.675  0.6894  0.9862  0.9052
 9558TIP3   OH250088   0.084   1.199   1.341  0.3680  0.0315  0.2018
 9558TIP3    H150089   0.158   1.140   1.355 -0.3963 -0.3980  3.1085
 9558TIP3    H250090   0.008   1.141   1.334 -0.2148  0.5771  1.6821
 9559TIP3   OH250091   4.220   4.886   0.501  0.3459 -0.1667  0.3879
 9559TIP3    H150092   4.199   4.794   0.517 -1.6901  0.1300 -0.3482
 9559TIP3    H250093   4.316   4.890   0.507  0.4997 -2.3828  0.1101
 9560TIP3   OH250094   5.313   1.230   3.207 -0.6706 -0.0834 -0.8095
 9560TIP3    H150095   5.259   1.206   3.132 -0.5889 -0.5274 -0.7255
 9560TIP3    H250096   5.400   1.246   3.170 -0.7605  0.2465 -0.8868
 9561TIP3   OH250097   6.389   5.459   2.542  0.1233  0.0818 -0.3011
 9561TIP3    H150098   6.351   5.447   2.630 -0.0450  0.8650 -0.2615
 9561TIP3    H250099   6.378   5.552   2.524 -1.2564 -0.3247 -1.7923
 9562TIP3   OH250100   1.292   2.429  11.298 -0.9176 -0.7096 -0.6006
 9562TIP3    H150101   1.247   2.398  11.377  2.8586 -0.2408  2.0016
 9562TIP3    H250102   1.264   2.520  11.289  0.2250 -0.0415  1.6902
 9563TIP3   OH250103   1.340   3.297  14.504 -0.4225 -0.9795  0.3066
 9563TIP3    H150104   1.339   3.276  14.411  0.9453  0.6786 -0.1411
 9563TIP3    H250105   1.330   3.213  14.548  0.4774 -2.0006 -1.3493
 9564TIP3   OH250106   0.942   2.446   4.233  0.1423  0.5403  0.0953
 9564TIP3    H150107   0.992   2.364   4.236  0.5516  0.8244  1.4407
 9564TIP3    H250108   0.980   2.499   4.302 -0.7412  1.5270 -0.1662
 9565TIP3   OH250109   3.695   5.740  13.417  0.0650  0.1525  0.0173
 9565TIP3    H150110   3.612   5.750  13.463  0.6161  1.7154  0.7434
 9565TIP3    H250111   3.685   5.659  13.366 -1.1537 -0.7864  1.6525
 9566TIP3   OH250112   6.701   6.376   3.897  0.0438  0.1465 -0.2896
 9566TIP3    H150113   6.777   6.422   3.932 -0.0965 -0.1880  0.4583
 9566TIP3    H250114   6.683   6.306   3.960  0.0506 -0.7314 -1.2366
 9567TIP3   OH250115   2.067   4.676  17.234  0.1574  0.1904  0.9853
 9567TIP3    H150116   2.101   4.633  17.313  0.3323 -0.0513  0.7795
 9567TIP3    H250117   2.141   4.676  17.173  0.1347  0.7163  0.9559
 9568TIP3   OH250118   5.231   2.115   2.922 -0.3512  0.2140  0.6714
 9568TIP3    H150119   5.146   2.073   2.911  0.1917 -0.5372 -0.8889
 9568TIP3    H250120   5.223   2.198   2.876 -0.6805  0.8292  1.7883
 9569TIP3   OH250121   3.043   2.810   2.792  0.4904  0.1639  0.3186
 9569TIP3    H150122   3.074   2.726   2.758 -0.1107 -0.2581  0.7771
 9569TIP3    H250123   2.972   2.786   2.853 -0.6829  1.0731 -0.6457
 9570TIP3   OH250124   5.772   1.015   0.986  0.2543  0.5317  0.1487
 9570TIP3    H150125   5.713   1.014   1.061  0.1855  2.2055  0.1522
 9570TIP3    H250126   5.753   0.933   0.940 -1.3128  0.5199  0.7337
 9571TIP3   OH250127   4.934   0.718  13.749  0.3979  0.1595  0.2639
 9571TIP3    H150128   4.986   0.786  13.707 -0.6451  1.3143  0.8043
 9571TIP3    H250129   4.999   0.657  13.784  1.3465  0.8174 -0.2955
 9572TIP3   OH250130   4.272   4.528   5.488 -0.5240 -0.2437  0.0868
 9572TIP3    H150131   4.284   4.438   5.457 -1.6743 -0.4479  0.1938
 9572TIP3    H250132   4.297   4.525   5.581 -1.1884 -0.6105  0.2584
 9573TIP3   OH250133   3.944   4.205   0.208 -0.1142 -0.2786  0.4310
 9573TIP3    H150134   4.039   4.208   0.206 -0.1346 -0.0486 -0.3277
 9573TIP3    H250135   3.920   4.248   0.290  0.3673  1.5489 -0.3360
 9574TIP3   OH250136   0.129   1.404   5.016 -0.4452  0.5970 -0.3099
 9574TIP3    H150137   0.052   1.454   5.044 -0.7360  0.7879 -1.4069
 9574TIP3    H250138   0.172   1.379   5.097 -2.4561 -0.7863  0.4068
 9575TIP3   OH250139   5.567   1.902   5.772 -0.1293 -0.3301  0.3383
 9575TIP3    H150140   5.662   1.909   5.781  0.1132  0.6553 -2.2654
 9575TIP3    H250141   5.540   1.853   5.850  2.3252  0.4907  1.8333
 9576TIP3   OH250142   4.907   5.531   3.673 -0.7325  0.0759  0.4185
 9576TIP3    H150143   4.916   5.444   3.633  0.8753 -0.3751  1.6448
 9576TIP3    H250144   4.813   5.543   3.683 -1.0197 -1.1549 -0.5453
 9577TIP3   OH250145   0.484   6.668  13.441  0.3112 -0.4603  0.1497
 9577TIP3    H150146   0.563   6.718  13.461 -0.0543 -0.1105  0.7323
 9577TIP3    H250147   0.511   6.576  13.450  1.0176 -0.3866 -1.0605
 9578TIP3   OH250148   5.824   6.122  14.989  0.4296 -1.1971  0.0857
 9578TIP3    H150149   5.756   6.182  14.956  1.1480 -0.9225 -0.9538
 9578TIP3    H250150   5.833   6.145  15.082 -0.7979 -1.1489  0.2132
 9579TIP3   OH250151   3.938   0.451   0.969 -0.5206 -0.3404 -0.1332
 9579TIP3    H150152   3.893   0.534   0.962  0.0011 -0.0715 -0.3824
 9579TIP3    H250153   3.919   0.406   0.886  0.4497  0.1830 -0.6628
 9580TIP3   OH250154   5.876   2.063  11.282  0.2754  0.4141  0.3168
 9580TIP3    H150155   5.841   2.101  11.201 -1.8431 -0.4138  0.7852
 9580TIP3    H250156   5.808   2.078  11.347  0.1208 -2.4509  0.9653
 9581TIP3   OH250157   5.526   5.273   5.966 -0.1419  0.1576 -0.0234
 9581TIP3    H150158   5.574   5.333   6.022  1.5872 -0.2811 -0.9292
 9581TIP3    H250159   5.574   5.190   5.974 -0.9284 -0.3872 -0.7626
 9582TIP3   OH250160   0.173   4.684   3.337 -0.1888  0.0361  0.2650
 9582TIP3    H150161   0.150   4.593   3.319  1.6332 -0.4550  0.2115
 9582TIP3    H250162   0.246   4.703   3.278 -0.1781  1.3677  0.6587
 9583TIP3   OH250163   5.248   0.426  13.581  0.3800 -0.1646  0.3074
 9583TIP3    H150164   5.214   0.441  13.493  0.1180  0.3164  0.4871
 9583TIP3    H250165   5.342   0.410  13.568  0.3784  0.0838 -0.0434
 9584TIP3   OH250166   2.852   4.107  16.102 -0.2167  0.3576  0.0294
 9584TIP3    H150167   2.790   4.041  16.132 -2.3346  2.2802  0.2111
 9584TIP3    H250168   2.898   4.066  16.028  0.5981 -2.2183  1.8442
 9585TIP3   OH250169   2.698   0.170   2.367  0.0635 -0.2385 -0.1459
 9585TIP3    H150170   2.623   0.222   2.396 -0.4434 -1.1753  0.2753
 9585TIP3    H250171   2.697   0.093   2.424  1.5580 -0.1059  0.1045
 9586TIP3   OH250172   1.377   3.379  14.799  1.0436 -0.6467  0.2056
 9586TIP3    H150173   1.349   3.391  14.709  2.9989  1.5476 -0.1893
 9586TIP3    H250174   1.295   3.376  14.849 -0.0376 -0.8003 -1.4877
 9587TIP3   OH250175   0.299   6.486  15.277  0.1992 -0.1611 -0.3935
 9587TIP3    H150176   0.265   6.398  15.259 -1.5855  0.6912 -1.4888
 9587TIP3    H250177   0.303   6.490  15.373  1.8710 -1.9394 -0.3094
 9588TIP3   OH250178   6.574   0.655   0.003 -0.2735 -0.4209  0.5805
 9588TIP3    H150179   6.567   0.751   0.007 -0.5399 -0.4079 -0.0845
 9588TIP3    H250180   6.657   0.635   0.045 -0.4820  0.0598  1.2516
 9589TIP3   OH250181   1.427   4.985   2.808 -0.1949 -0.1988  0.1048
 9589TIP3    H150182   1.454   5.047   2.740 -0.2275 -1.1169 -0.7734
 9589TIP3    H250183   1.358   5.030   2.856 -2.4366 -0.6417 -2.4618
 9590TIP3   OH250184   1.641   5.363  13.786 -0.4482 -0.3562 -0.1083
 9590TIP3    H150185   1.615   5.419  13.860 -2.1245 -2.5445  1.0829
 9590TIP3    H250186   1.733   5.386  13.771 -0.6227  1.5878  1.3033
 9591TIP3   OH250187   5.385   0.776  10.994  0.0643  0.5223 -0.1461
 9591TIP3    H150188   5.340   0.855  10.964 -1.8913  0.0338  1.2735
 9591TIP3    H250189   5.388   0.719  10.916  0.3970  1.4862 -0.8583
 9592TIP3   OH250190   6.440   6.241   2.824  0.7269 -0.3993  0.0174
 9592TIP3    H150191   6.499   6.314   2.843  0.6394 -0.6860  1.5635
 9592TIP3    H250192   6.477   6.168   2.874 -0.1891 -0.9331 -0.0644
 9593TIP3   OH250193   1.587   0.642   1.371  0.4422 -0.1570  0.6281
 9593TIP3    H150194   1.662   0.582   1.377 -1.0179 -2.1162  0.4530
 9593TIP3    H250195   1.579   0.661   1.278  1.2369  0.7999  0.7391
 9594TIP3   OH250196   0.801   2.375   3.982  0.4906  0.2468  0.2576
 9594TIP3    H150197   0.839   2.435   4.046 -0.1498 -1.9269  2.8480
 9594TIP3    H250198   0.871   2.312   3.963  0.6683  0.8472 -1.2579
 9595TIP3   OH250199   1.141   2.390  12.651 -0.1886 -0.4334 -0.2919
 9595TIP3    H150200   1.109   2.423  12.735 -0.7811 -0.6674 -0.4238
 9595TIP3    H250201   1.092   2.309  12.637  1.0215 -1.2291 -0.1193
 9596TIP3   OH250202   6.129   3.055   2.536 -0.4020  0.1604  0.7590
 9596TIP3    H150203   6.099   2.968   2.559 -1.0715  0.2596  0.2730
 9596TIP3    H250204   6.050   3.103   2.510 -0.5667  1.8768  3.9087
 9597TIP3   OH250205   0.943   4.018   1.953  0.0395 -0.1312 -0.0826
 9597TIP3    H150206   0.933   3.963   2.031  0.6600 -1.2713 -0.7811
 9597TIP3    H250207   0.920   4.106   1.983 -2.5176 -0.9852  0.6713
 9598TIP3   OH250208   4.786   0.698   3.815 -0.3275 -0.1796  0.0842
 9598TIP3    H150209   4.857   0.690   3.880 -0.2472  0.2605  0.0538
 9598TIP3    H250210   4.706   0.687   3.866 -0.3572  1.9700  0.6122
 9599TIP3   OH250211   2.665   0.099  16.488  0.0738 -0.0002 -0.1094
 9599TIP3    H150212   2.651   0.011  16.454 -1.3552 -0.9166  2.5615
 9599TIP3    H250213   2.751   0.096  16.530 -1.4920 -1.4834  3.3902
 9600TIP3   OH250214   1.150   3.011  16.312  0.3114 -0.2313  0.2135
 9600TIP3    H150215   1.156   3.094  16.359 -0.3205  0.4956 -0.9555
 9600TIP3    H250216   1.238   2.975  16.314  1.2900  1.8553 -1.7148
 9601TIP3   OH250217   4.658   4.915  16.135  0.5422 -0.4588 -0.6185
 9601TIP3    H150218   4.640   4.827  16.102 -0.4331 -0.2084 -0.7793
 9601TIP3    H250219   4.660   4.906  16.230 -1.9490 -0.2692 -0.4819
 9602TIP3   OH250220   2.540   4.699   2.089  0.0039  0.1116  0.0509
 9602TIP3    H150221   2.620   4.681   2.040  0.4598  1.6964  0.1817
 9602TIP3    H250222   2.559   4.670   2.178 -0.5174 -1.9360 -0.4339
 9603TIP3   OH250223   2.163   5.069  12.528 -0.0097 -0.0326  0.5539
 9603TIP3    H150224   2.163   5.012  12.452  0.3490 -0.7506  1.0768
 9603TIP3    H250225   2.248   5.055  12.569 -0.2925  0.1517  1.2223
 9604TIP3   OH250226   2.187   0.752  17.278 -0.0484  0.2123 -0.3801
 9604TIP3    H150227   2.136   0.832  17.273 -1.4398 -0.7064 -1.9309
 9604TIP3    H250228   2.277   0.779  17.262 -0.2485  1.6392  0.7247
 9605TIP3   OH250229   5.993   0.760   4.296  0.0849  0.3943  0.7783
 9605TIP3    H150230   6.038   0.792   4.218 -1.1280  0.0731 -0.0765
 9605TIP3    H250231   6.062   0.719   4.349  0.7865 -0.1175 -0.5075
 9606TIP3   OH250232   5.111   0.561  14.214  0.1151 -0.4134  0.3033
 9606TIP3    H150233   5.092   0.613  14.136 -1.2246  1.3753  1.7221
 9606TIP3    H250234   5.028   0.518  14.235  0.3256 -0.5075  0.9910
 9607TIP3   OH250235   5.950   2.389   4.418  0.4552 -0.1865  0.3515
 9607TIP3    H150236   5.919   2.460   4.362  0.1164 -0.7178 -0.1436
 9607TIP3    H250237   6.025   2.353   4.372  0.1281 -0.6755  0.1906
 9608TIP3   OH250238   0.552   3.471  16.674 -0.2625 -0.3161  0.0901
 9608TIP3    H150239   0.630   3.507  16.632  0.0652  0.0685  1.0107
 9608TIP3    H250240   0.566   3.485  16.768 -1.7424  0.3532  0.2333
 9609TIP3   OH250241   4.477   2.002   4.186 -0.7060  0.0050 -0.4583
 9609TIP3    H150242   4.403   1.994   4.125 -1.7028 -0.6101  0.7646
 9609TIP3    H250243   4.441   2.052   4.259  0.4692  0.7471 -0.3790
 9610TIP3   OH250244   0.481   4.086  14.431 -0.0609 -0.1496 -0.2638
 9610TIP3    H150245   0.458   4.087  14.338  0.2082 -1.0355 -0.3503
 9610TIP3    H250246   0.433   4.159  14.469 -1.6526 -0.9131 -0.7525
 9611TIP3   OH250247   3.922   1.449  11.257  0.5910  0.1777  0.4172
 9611TIP3    H150248   3.909   1.402  11.175  0.0156  0.8638  0.1119
 9611TIP3    H250249   4.008   1.420  11.288 -0.3654 -2.2156  1.0116
 9612TIP3   OH250250   2.445   2.428   4.155  0.0866 -0.1398 -0.2713
 9612TIP3    H150251   2.370   2.436   4.214 -0.6574  2.0910 -1.3866
 9612TIP3    H250252   2.520   2.419   4.213 -0.6592  1.5317  1.0549
 9613TIP3   OH250253   6.735   2.216   2.281 -0.2799  0.0800 -0.1368
 9613TIP3    H150254   6.682   2.139   2.300 -0.6386  0.4944  0.5842
 9613TIP3    H250255   6.673   2.288   2.277  0.1522  0.4649  0.0149
 9614TIP3   OH250256   1.129   3.188   4.255  0.4081 -0.0988  0.0741
 9614TIP3    H150257   1.204   3.224   4.208  0.6140 -0.2794  0.2592
 9614TIP3    H250258   1.054   3.205   4.198  0.7767 -1.1304 -0.7392
 9615TIP3   OH250259   4.781   2.874  16.914  0.7473  0.3535  0.0405
 9615TIP3    H150260   4.850   2.856  16.977  0.3249  0.9746  0.7058
 9615TIP3    H250261   4.821   2.860  16.828  1.2722 -0.7046  0.4526
 9616TIP3   OH250262   0.502   5.644   1.694 -0.1963  0.0331 -0.2076
 9616TIP3    H150263   0.481   5.583   1.623  0.5263 -1.4980  0.8435
 9616TIP3    H250264   0.598   5.638   1.703 -0.1077  1.3412 -0.0701
 9617TIP3   OH250265   0.546   3.795  11.162  0.0205  0.0406 -0.5031
 9617TIP3    H150266   0.538   3.760  11.251 -0.5409  1.2647 -0.0521
 9617TIP3    H250267   0.628   3.844  11.163  0.2582 -0.3426 -0.8134
 9618TIP3   OH250268   5.719   0.014   0.555 -0.4616 -0.9981  0.0236
 9618TIP3    H150269   5.682   0.040   0.471 -0.5023  0.6666  0.5235
 9618TIP3    H250270   5.645   0.017   0.616 -0.9958 -4.5497 -0.2463
 9619TIP3   OH250271   0.812   4.374  15.755  0.8069 -0.3229 -0.5136
 9619TIP3    H150272   0.792   4.343  15.843 -0.7204  0.0235 -0.7142
 9619TIP3    H250273   0.803   4.296  15.699 -1.8559  0.1095 -0.8431
 9620TIP3   OH250274   0.702   5.386   1.825 -0.4594 -0.1613 -0.4243
 9620TIP3    H150275   0.643   5.369   1.899 -1.4432 -1.7195 -1.4933
 9620TIP3    H250276   0.788   5.357   1.856 -0.7100 -0.0833  0.3694
 9621TIP3   OH250277   3.846   1.569  12.601  0.2773  0.0317 -0.4619
 9621TIP3    H150278   3.796   1.651  12.605  0.4908  0.1476 -0.1556
 9621TIP3    H250279   3.937   1.597  12.590  0.6053 -0.0905  1.5696
 9622TIP3   OH250280   0.605   1.345  13.459  0.5018 -0.4206  0.4260
 9622TIP3    H150281   0.539   1.384  13.402  1.9550  0.1045 -0.9497
 9622TIP3    H250282   0.607   1.252  13.434 -0.6816 -0.7734  1.4839
 9623TIP3   OH250283   4.805   1.218  16.936 -0.4421 -0.0365  0.1870
 9623TIP3    H150284   4.731   1.206  16.995  0.2930 -0.1284  1.1063
 9623TIP3    H250285   4.808   1.313  16.921 -0.6100 -0.0103  0.3185
 9624TIP3   OH250286   5.276   2.402   2.841  0.6034  0.2687  0.1210
 9624TIP3    H150287   5.227   2.440   2.768 -1.3334 -0.1971  1.1158
 9624TIP3    H250288   5.257   2.460   2.915  1.0204 -0.3091  0.6884
 9625TIP3   OH250289   0.643   2.528   4.522 -0.8268  0.5653  0.1049
 9625TIP3    H150290   0.682   2.581   4.592 -1.2878  1.9550 -0.6552
 9625TIP3    H250291   0.603   2.592   4.463 -1.5777 -0.6562 -0.7499
 9626TIP3   OH250292   5.594   2.257   1.131 -0.4040 -0.4838  0.1691
 9626TIP3    H150293   5.628   2.341   1.099  2.6770 -1.4943  0.5027
 9626TIP3    H250294   5.507   2.279   1.166 -0.6700  2.0834 -1.8076
 9627TIP3   OH250295   0.400   4.898   5.547  0.0351  0.6867 -0.1306
 9627TIP3    H150296   0.449   4.970   5.506  0.4187  0.3430 -0.2867
 9627TIP3    H250297   0.380   4.839   5.475  1.1754 -0.1909  0.2255
 9628TIP3   OH250298   4.245   5.697  15.408  0.2500  0.4908  0.6080
 9628TIP3    H150299   4.221   5.642  15.482  0.2942  0.8631  0.9039
 9628TIP3    H250300   4.339   5.683  15.396  0.0586 -0.3572 -0.0428
 9629TIP3   OH250301   5.704   2.034   5.031  0.3685 -0.0558  0.4622
 9629TIP3    H150302   5.789   2.067   5.001 -0.1859 -0.2062 -1.4012
 9629TIP3    H250303   5.644   2.053   4.959 -0.5440 -2.6341  0.4423
 9630TIP3   OH250304   2.680   3.388   5.206 -0.3938 -0.3005  0.1974
 9630TIP3    H150305   2.736   3.419   5.277 -2.4748  1.4245  1.2009
 9630TIP3    H250306   2.602   3.353   5.250 -2.3228  1.9941 -1.1452
 9631TIP3   OH250307   1.166   2.928   0.262 -0.2937 -0.1005 -0.4764
 9631TIP3    H150308   1.116   2.985   0.321  2.2800 -0.6957  2.5400
 9631TIP3    H250309   1.231   2.987   0.222 -0.1875 -0.2110 -0.4660
 9632TIP3   OH250310   0.373   5.513  15.009  0.3781 -0.4059 -0.2796
 9632TIP3    H150311   0.331   5.455  14.946  0.2333 -0.6402  0.0288
 9632TIP3    H250312   0.351   5.601  14.980 -1.6062 -0.5127  0.7084
 9633TIP3   OH250313   1.718   2.884   3.287  0.3241  0.1560  0.2202
 9633TIP3    H150314   1.787   2.940   3.251 -1.3305  1.6292 -0.7924
 9633TIP3    H250315   1.743   2.796   3.260  1.4224  0.7415 -0.7925
 9634TIP3   OH250316   0.065   3.761   6.651 -0.3665 -0.2076  0.1791
 9634TIP3    H150317   0.092   3.692   6.712 -1.8879 -0.1248  1.0054
 9634TIP3    H250318  -0.026   3.779   6.674 -0.8155  0.2623 -1.7359
 9635TIP3   OH250319   2.402   3.547   0.284  0.9334 -0.3793 -0.2223
 9635TIP3    H150320   2.445   3.629   0.308  0.4223  0.0851 -0.8442
 9635TIP3    H250321   2.333   3.536   0.350  1.1825 -0.4622  0.0279
 9636TIP3   OH250322   2.528   0.126   3.456  0.0744  0.7990  0.0556
 9636TIP3    H150323   2.471   0.127   3.378  0.0002  0.2367  0.1036
 9636TIP3    H250324   2.544   0.219   3.474 -0.1768  0.9433 -0.4363
 9637TIP3   OH250325   1.002   5.000   2.024 -0.5794  0.3619  0.2740
 9637TIP3    H150326   1.007   5.077   2.080 -0.2027  0.0225  0.7160
 9637TIP3    H250327   0.953   5.029   1.947 -1.6758  0.6670  1.0607
 9638TIP3   OH250328   2.109   5.413   4.995 -0.2127 -0.2831 -0.0907
 9638TIP3    H150329   2.023   5.456   4.999 -0.8739 -1.5838  0.5307
 9638TIP3    H250330   2.109   5.354   5.071  1.0700 -0.6052 -0.3245
 9639TIP3   OH250331   6.129   4.499   2.423 -0.1317 -0.2614 -0.2183
 9639TIP3    H150332   6.093   4.587   2.410 -1.7305 -0.8755 -0.1606
 9639TIP3    H250333   6.058   4.450   2.463  0.8860 -1.4783  0.1462
 9640TIP3   OH250334   5.611   1.105   4.911 -0.2546  0.2417  0.4810
 9640TIP3    H150335   5.691   1.155   4.894 -0.8193  1.2297  0.6276
 9640TIP3    H250336   5.542   1.172   4.914 -1.2251 -0.6799 -0.5506
 9641TIP3   OH250337   6.211   2.547   3.954  0.2120 -0.4453 -0.1470
 9641TIP3    H150338   6.227   2.490   4.030  2.7074  3.0489  2.2723
 9641TIP3    H250339   6.120   2.575   3.965 -0.1339 -1.6265  0.2570
 9642TIP3   OH250340   4.495   0.107   3.536 -0.1964  0.2642  0.0183
 9642TIP3    H150341   4.537   0.108   3.621  4.1198 -1.1334 -1.8191
 9642TIP3    H250342   4.499   0.198   3.505  3.0737  0.0166 -0.6218
 9643TIP3   OH250343   6.436   6.759   2.766  0.3549 -0.4938  0.5182
 9643TIP3    H150344   6.413   6.833   2.710 -0.5873 -0.4508  0.9358
 9643TIP3    H250345   6.360   6.701   2.761  0.3487 -0.5970  1.5604
 9644TIP3   OH250346   5.544   4.296  12.328  0.2808  0.1081 -0.1983
 9644TIP3    H150347   5.507   4.283  12.415  0.7161 -0.3521 -0.0745
 9644TIP3    H250348   5.635   4.320  12.343  0.2209  0.5520 -0.5165
 9645TIP3   OH250349   4.262   2.918   2.831 -0.4286  0.0606 -0.4109
 9645TIP3    H150350   4.175   2.951   2.851 -0.6432 -0.8873  0.3252
 9645TIP3    H250351   4.300   2.898   2.917  0.4635  0.3564 -0.7296
 9646TIP3   OH250352   4.416   1.574  14.088  0.0306  0.7615  0.1600
 9646TIP3    H150353   4.403   1.668  14.100 -0.6648  0.6973 -0.0053
 9646TIP3    H250354   4.329   1.541  14.065  0.6516  0.4346 -2.0386
 9647TIP3   OH250355   3.937   6.656  12.427 -0.2433 -0.6243 -0.1153
 9647TIP3    H150356   3.848   6.636  12.401 -0.3577  0.3554 -0.5120
 9647TIP3    H250357   3.938   6.643  12.522 -1.0081  0.0523 -0.0069
 9648TIP3   OH250358   6.628   0.218   3.691  0.3996 -0.2175  0.4268
 9648TIP3    H150359   6.683   0.242   3.617 -0.5402  1.4878  0.2483
 9648TIP3    H250360   6.669   0.261   3.766  0.2578 -0.3545  0.5836
 9649TIP3   OH250361   5.369   3.154  16.417  0.4011 -0.2846  0.0457
 9649TIP3    H150362   5.451   3.182  16.458  0.8961 -0.7552 -0.6073
 9649TIP3    H250363   5.390   3.146  16.324 -0.3749 -0.4633 -0.1226
 9650TIP3   OH250364   2.751   2.652   2.453  0.1888 -0.2203  0.4203
 9650TIP3    H150365   2.715   2.720   2.396  0.7068  1.5310  2.0786
 9650TIP3    H250366   2.674   2.619   2.501 -0.1974 -1.4770 -0.9901
 9651TIP3   OH250367   0.093   2.755  13.035 -0.7607  0.3116  1.0926
 9651TIP3    H150368   0.022   2.698  13.005  1.6281 -1.0593 -2.6582
 9651TIP3    H250369   0.151   2.697  13.085  0.5075 -0.1350 -0.7810
 9652TIP3   OH250370   0.260   4.031   5.709  0.1582  0.3619  0.3662
 9652TIP3    H150371   0.187   4.037   5.772 -0.3023 -2.7326  0.2744
 9652TIP3    H250372   0.339   4.032   5.763 -0.2436 -2.7450  1.2127
 9653TIP3   OH250373   4.820   4.671  12.446  0.0411 -1.1686 -0.1698
 9653TIP3    H150374   4.820   4.579  12.472 -2.4786 -1.1452  0.1800
 9653TIP3    H250375   4.883   4.713  12.505  0.1037 -2.4268  0.6911
 9654TIP3   OH250376   5.051   4.899  17.254 -0.0322 -0.5801  0.2209
 9654TIP3    H150377   5.115   4.913  17.324  0.0658 -1.6090  0.3547
 9654TIP3    H250378   4.969   4.881  17.300 -0.1890 -0.2769  0.0599
 9655TIP3   OH250379   1.055   5.385   6.067  0.2374 -0.1750 -0.0559
 9655TIP3    H150380   0.976   5.414   6.114 -1.1364 -1.9042 -1.2018
 9655TIP3    H250381   1.089   5.313   6.120 -0.8656 -1.6019 -1.2091
 9656TIP3   OH250382   0.572   1.195  12.092 -0.2666  0.5811 -0.2795
 9656TIP3    H150383   0.503   1.258  12.114  1.5836  2.6203 -0.0302
 9656TIP3    H250384   0.541   1.153  12.012 -1.7818  1.4323 -0.1910
 9657TIP3   OH250385   0.775   6.247   4.438 -0.3886  0.4159 -0.2565
 9657TIP3    H150386   0.836   6.304   4.484 -0.2317  0.5896 -0.6770
 9657TIP3    H250387   0.807   6.245   4.348 -0.5242 -0.1564 -0.2955
 9658TIP3   OH250388   1.948   1.997   1.248 -0.1821 -0.2843 -0.2304
 9658TIP3    H150389   1.905   1.925   1.295  0.3886 -1.2097 -1.0982
 9658TIP3    H250390   2.013   2.030   1.310 -1.9466  1.0182  1.0351
 9659TIP3   OH250391   1.179   5.881  13.767  0.1031  0.5722  0.5192
 9659TIP3    H150392   1.144   5.819  13.703  1.6372  0.5929 -0.4119
 9659TIP3    H250393   1.103   5.913  13.815 -0.9504 -0.4179 -0.4400
 9660TIP3   OH250394   6.407   1.758  15.048  0.0364  1.0526  0.2786
 9660TIP3    H150395   6.480   1.716  15.095  1.3834  1.2371 -1.5236
 9660TIP3    H250396   6.440   1.845  15.028 -0.6011  1.0636 -0.7510
 9661TIP3   OH250397   0.693   4.335   5.531 -0.0147 -0.4386  0.5926
 9661TIP3    H150398   0.688   4.315   5.624 -1.2106 -0.8243  0.4644
 9661TIP3    H250399   0.781   4.370   5.518 -0.0365  0.1651  1.9690
 9662TIP3   OH250400   4.279   1.359   5.614 -0.2229 -0.1791  0.3162
 9662TIP3    H150401   4.368   1.364   5.650  0.2435 -2.7645 -0.2711
 9662TIP3    H250402   4.274   1.432   5.552  1.9599 -0.6684 -0.5364
 9663TIP3   OH250403   1.149   6.727   1.928  0.0331 -0.0859 -0.2127
 9663TIP3    H150404   1.184   6.691   1.846  0.0743 -0.8164  0.1134
 9663TIP3    H250405   1.168   6.659   1.993 -0.4954  0.2479  0.2942
 9664TIP3   OH250406   0.214   5.815  16.616 -0.0573  0.3696  0.4824
 9664TIP3    H150407   0.307   5.822  16.594  0.1385 -0.6479  0.9493
 9664TIP3    H250408   0.177   5.758  16.549 -0.2841  0.5150  0.4826
 9665TIP3   OH250409   4.394   6.453   1.985  0.3661  0.1976 -0.1446
 9665TIP3    H150410   4.377   6.529   2.040  1.7761  0.3931  0.0477
 9665TIP3    H250411   4.407   6.381   2.047 -1.0737 -0.2557 -0.3269
 9666TIP3   OH250412   1.502   1.401   1.819 -0.0848 -0.2465 -0.2186
 9666TIP3    H150413   1.506   1.418   1.725 -0.3223  2.2600  0.1633
 9666TIP3    H250414   1.416   1.361   1.832  0.0612 -0.8580 -1.0894
 9667TIP3   OH250415   6.747   6.254   2.559  0.2279  0.1169  0.2871
 9667TIP3    H150416   6.811   6.215   2.500 -0.7062 -1.2102  0.0946
 9667TIP3    H250417   6.730   6.341   2.523  0.5198 -0.2393 -0.7470
 9668TIP3   OH250418   0.142   1.299   2.516  0.2002  0.2913  0.0374
 9668TIP3    H150419   0.117   1.302   2.608 -0.0226  1.2031 -0.0415
 9668TIP3    H250420   0.217   1.241   2.513 -0.2430 -0.3306  0.6869
 9669TIP3   OH250421   6.315   6.147  13.133  0.1975 -0.1926 -0.0013
 9669TIP3    H150422   6.245   6.083  13.123  0.4012 -0.5672  0.8854
 9669TIP3    H250423   6.388   6.111  13.082  0.2651 -0.5970  0.3800
 9670TIP3   OH250424   6.434   6.005  15.384 -0.4548  0.2832 -0.1971
 9670TIP3    H150425   6.464   6.044  15.302 -1.6067  0.1185 -0.7238
 9670TIP3    H250426   6.354   6.053  15.406 -0.4856 -0.0742  0.5032
 9671TIP3   OH250427   3.935   0.391  16.888 -0.0799  0.1274  0.0110
 9671TIP3    H150428   3.896   0.450  16.952  1.5131  1.8035 -0.5041
 9671TIP3    H250429   4.019   0.366  16.925  0.2428 -0.0250 -0.8077
 9672TIP3   OH250430   3.316   5.479  14.244 -0.2388  0.0860 -0.4497
 9672TIP3    H150431   3.333   5.574  14.242  0.1639  0.0110 -1.1012
 9672TIP3    H250432   3.403   5.439  14.245 -0.4093 -0.2807 -0.0303
 9673TIP3   OH250433   3.121   2.750  15.418  0.0508  0.5247  0.4914
 9673TIP3    H150434   3.112   2.672  15.364  2.9701  0.0524  0.5529
 9673TIP3    H250435   3.106   2.823  15.358 -3.1356  0.0309  0.5214
 9674TIP3   OH250436   6.676   2.538  14.306  0.1396  0.0790  0.0176
 9674TIP3    H150437   6.707   2.619  14.346 -2.0549  0.3927  1.2029
 9674TIP3    H250438   6.706   2.469  14.367 -0.2137  0.2400  0.3754
 9675TIP3   OH250439   5.260   0.649   3.897  0.1538 -0.1458  0.1176
 9675TIP3    H150440   5.245   0.556   3.912  0.6225  0.0214  1.7842
 9675TIP3    H250441   5.353   0.655   3.872  0.5389  0.0021  1.5100
 9676TIP3   OH250442   1.845   2.130   3.934  0.5070  0.2163 -0.6376
 9676TIP3    H150443   1.794   2.193   3.984  0.6119  0.9335 -1.4127
 9676TIP3    H250444   1.933   2.136   3.971  0.3549 -0.0015 -0.2351
 9677TIP3   OH250445   4.562   2.240  15.942 -0.0193 -0.4674  0.0694
 9677TIP3    H150446   4.487   2.189  15.912 -0.6996  0.1704  0.6639
 9677TIP3    H250447   4.604   2.270  15.861  1.5339 -3.5133 -0.3760
 9678TIP3   OH250448   0.553   5.405  16.257  0.4160 -0.0822  0.3591
 9678TIP3    H150449   0.623   5.383  16.319  0.2250 -0.3238  0.4933
 9678TIP3    H250450   0.571   5.495  16.231  2.3787 -0.9703 -1.7239
 9679TIP3   OH250451   4.786   0.033  15.972 -1.1075 -0.4788 -0.2603
 9679TIP3    H150452   4.797   0.101  15.906 -1.5444 -0.7904 -0.6671
 9679TIP3    H250453   4.691   0.027  15.984 -1.0724 -0.9905 -0.2109
 9680TIP3   OH250454   1.868   5.382   4.494 -0.0022 -0.7273 -0.4005
 9680TIP3    H150455   1.864   5.332   4.575 -0.5350  0.6712  0.4816
 9680TIP3    H250456   1.796   5.445   4.501  0.2232 -0.2850 -1.7571
 9681TIP3   OH250457   1.027   4.072   3.293  0.1945 -0.3560 -0.0903
 9681TIP3    H150458   0.961   4.139   3.310  1.2203  0.0631  2.9260
 9681TIP3    H250459   1.079   4.107   3.221 -1.6988  0.1349 -1.2860
 9682TIP3   OH250460   6.155   1.470   6.203 -0.4414 -0.5154 -1.0474
 9682TIP3    H150461   6.071   1.470   6.157  0.0600  0.1467 -1.9998
 9682TIP3    H250462   6.163   1.558   6.239 -0.4527 -0.7803 -0.3837
 9683TIP3   OH250463   1.262   0.425   4.449  0.5768 -0.2617  0.0230
 9683TIP3    H150464   1.278   0.519   4.452  0.2668 -0.1863 -0.5887
 9683TIP3    H250465   1.346   0.386   4.426  0.2663  0.0238 -1.7244
 9684TIP3   OH250466   3.007   6.317   1.960 -0.1822  0.2819  0.5784
 9684TIP3    H150467   3.078   6.268   2.001 -0.5046 -0.2353  0.5305
 9684TIP3    H250468   2.955   6.250   1.914  0.3677  0.8817 -0.9824
 9685TIP3   OH250469   0.312   5.231   3.963  0.3601  0.3313  0.2938
 9685TIP3    H150470   0.313   5.267   3.874  0.8655  0.5818  0.3977
 9685TIP3    H250471   0.341   5.140   3.951 -0.3537  0.1194  0.1063
 9686TIP3   OH250472   1.182   4.378   4.861  0.3103  0.3736 -0.6648
 9686TIP3    H150473   1.246   4.446   4.881 -0.3817  0.7738  0.2725
 9686TIP3    H250474   1.173   4.330   4.944 -1.2803  0.9073 -0.5055
 9687TIP3   OH250475   1.071   2.865   6.333  0.2832  0.4761  0.0855
 9687TIP3    H150476   1.124   2.938   6.366 -1.4955  2.1859 -0.6606
 9687TIP3    H250477   1.075   2.874   6.238 -0.3149 -0.1708 -0.0081
 9688TIP3   OH250478   2.707   3.122  15.586 -0.3634  0.0519  0.5232
 9688TIP3    H150479   2.790   3.163  15.561 -0.4733 -0.1318 -0.1503
 9688TIP3    H250480   2.733   3.048  15.642 -0.1576  0.9061  1.5883
 9689TIP3   OH250481   1.154   5.345   0.614 -0.0634  0.7716 -0.0440
 9689TIP3    H150482   1.175   5.335   0.707  0.4396  1.5180 -0.0712
 9689TIP3    H250483   1.120   5.259   0.588 -2.8181  1.2648  1.4668
 9690TIP3   OH250484   6.336   2.219  11.506  0.1344  0.2114  0.2357
 9690TIP3    H150485   6.265   2.280  11.525  0.1179  0.1484  0.3837
 9690TIP3    H250486   6.316   2.185  11.419 -1.5130 -1.8117  1.2985
 9691TIP3   OH250487   6.388   0.792   3.512  0.4613 -0.2296  0.3732
 9691TIP3    H150488   6.464   0.777   3.455 -0.9032 -2.1933 -1.0900
 9691TIP3    H250489   6.385   0.713   3.567  0.6589  0.7984  1.9086
 9692TIP3   OH250490   2.247   6.685   4.972 -0.2020 -0.5013  0.2096
 9692TIP3    H150491   2.334   6.694   4.932 -0.3509 -2.1514 -0.5919
 9692TIP3    H250492   2.260   6.708   5.064  0.3667  2.4649 -0.4847
 9693TIP3   OH250493   6.145   4.708  15.274  0.1427  0.0391 -0.3456
 9693TIP3    H150494   6.167   4.736  15.185  0.2620  1.5152  0.1272
 9693TIP3    H250495   6.130   4.614  15.266 -1.6154  0.3909 -2.3012
 9694TIP3   OH250496   3.045   4.835   1.194 -0.3614 -0.7523  0.6569
 9694TIP3    H150497   2.989   4.880   1.257 -1.6521 -1.4102  0.0357
 9694TIP3    H250498   3.133   4.866   1.213 -1.0169  0.9430  1.1786
 9695TIP3   OH250499   1.623   1.578   2.965 -0.1411 -0.0669  0.6445
 9695TIP3    H150500   1.643   1.664   2.929  1.6683 -0.0943  1.4831
 9695TIP3    H250501   1.579   1.531   2.894  0.5780  0.9018 -0.4603
 9696TIP3   OH250502   5.208   2.569   3.134 -0.3735  0.5985  0.4269
 9696TIP3    H150503   5.161   2.491   3.165  3.4106 -1.5849  1.3850
 9696TIP3    H250504   5.198   2.632   3.205  0.5316 -0.9676  2.0559
 9697TIP3   OH250505   2.801   2.180  16.705  0.4036 -0.3235  0.2595
 9697TIP3    H150506   2.784   2.222  16.789 -2.0099  0.5184 -0.5421
 9697TIP3    H250507   2.762   2.239  16.640  2.6320 -0.6863 -1.5467
 9698TIP3   OH250508   2.011   1.704  16.627 -0.2554  0.3349  0.2298
 9698TIP3    H150509   1.977   1.794  16.626 -0.3247  0.3270  0.9759
 9698TIP3    H250510   1.940   1.652  16.664  0.0083  0.0729  0.3673
 9699TIP3   OH250511   4.311   1.664  17.067 -0.0050 -0.3608 -0.5231
 9699TIP3    H150512   4.229   1.621  17.042  0.0302 -1.5645  1.2612
 9699TIP3    H250513   4.371   1.645  16.995 -0.7549 -1.0665 -0.9795
 9700TIP3   OH250514   5.235   6.689  15.449 -0.1001  0.0582  0.0644
 9700TIP3    H150515   5.294   6.763  15.442 -1.0919  1.0071  1.1532
 9700TIP3    H250516   5.180   6.694  15.371 -0.1748  0.4907  0.1435
 9701TIP3   OH250517   4.283   3.428  13.572  0.0848 -0.2228  0.0343
 9701TIP3    H150518   4.347   3.360  13.593  0.0600 -0.5470 -0.9020
 9701TIP3    H250519   4.286   3.488  13.647  0.5624 -0.9151  0.5771
 9702TIP3   OH250520   4.789   1.759  13.180 -0.4320 -0.7685 -0.1434
 9702TIP3    H150521   4.822   1.818  13.111  0.3452  0.4150  1.1944
 9702TIP3    H250522   4.832   1.676  13.163 -1.9160 -1.1876 -2.3773
 9703TIP3   OH250523   4.538   0.709  17.222  0.5911 -0.3508 -0.3457
 9703TIP3    H150524   4.627   0.725  17.191  0.3580 -0.0737 -0.8850
 9703TIP3    H250525   4.543   0.624  17.265  0.8499 -0.9314 -1.4744
 9704TIP3   OH250526   0.379   2.436   3.010 -0.2824 -0.5573  0.8106
 9704TIP3    H150527   0.447   2.371   3.025 -0.9456 -1.2812  0.6860
 9704TIP3    H250528   0.321   2.397   2.946  1.3884  1.6598 -2.3318
 9705TIP3   OH250529   6.674   6.011   1.617 -0.1120  0.3498 -0.4858
 9705TIP3    H150530   6.691   5.917   1.624  1.3805  0.5975 -0.2973
 9705TIP3    H250531   6.643   6.024   1.527  0.1012 -0.2730 -0.6520
 9706TIP3   OH250532   4.815   4.122   1.633  0.1299 -0.1043 -0.4540
 9706TIP3    H150533   4.879   4.051   1.636  1.1133  0.7705 -0.5047
 9706TIP3    H250534   4.850   4.189   1.691 -0.4549  0.6232 -0.9241
 9707TIP3   OH250535   5.144   5.947   1.900 -0.0626  0.6978 -0.0193
 9707TIP3    H150536   5.051   5.929   1.886 -0.5814  1.3520  2.1859
 9707TIP3    H250537   5.180   5.866   1.935  0.1985  0.4738 -0.7849
 9708TIP3   OH250538   3.795   1.828   1.368  0.4133 -0.1747  0.4827
 9708TIP3    H150539   3.717   1.781   1.398  0.7763 -1.4446 -0.4486
 9708TIP3    H250540   3.760   1.902   1.318 -0.1730  0.4752  1.8134
 9709TIP3   OH250541   0.839   6.604   3.484  0.2079  0.3199  0.0841
 9709TIP3    H150542   0.823   6.512   3.507 -0.5938  0.1167 -1.1578
 9709TIP3    H250543   0.934   6.611   3.476  0.2350 -0.6752 -0.7587
 9710TIP3   OH250544   4.569   0.430  16.350 -0.1149  0.0974  0.1234
 9710TIP3    H150545   4.536   0.346  16.382 -1.8273  0.8639  0.4822
 9710TIP3    H250546   4.548   0.492  16.420 -2.5127  1.5193 -1.7197
 9711TIP3   OH250547   0.907   4.341  12.697  0.1176 -0.0995 -0.1678
 9711TIP3    H150548   0.986   4.294  12.672 -1.1973 -2.8786  0.5299
 9711TIP3    H250549   0.843   4.319  12.629 -0.5030  0.8614  0.0828
 9712TIP3   OH250550   2.145   3.941   0.007  0.4230 -0.0812 -0.2346
 9712TIP3    H150551   2.185   3.981  -0.070  0.9266 -0.0516  0.0349
 9712TIP3    H250552   2.166   4.000   0.079 -0.0494 -0.1062 -0.0747
 9713TIP3   OH250553   0.771   1.592  12.504 -0.0034  0.6681 -0.1415
 9713TIP3    H150554   0.797   1.632  12.588 -1.7877  0.4092  0.5645
 9713TIP3    H250555   0.840   1.528  12.486  1.4790  2.1364  0.0760
 9714TIP3   OH250556   3.815   4.807   5.295 -0.3716 -0.0226  0.4628
 9714TIP3    H150557   3.799   4.901   5.289  2.6535  0.5207 -3.1528
 9714TIP3    H250558   3.737   4.768   5.254 -0.7179  1.0881 -0.0093
 9715TIP3   OH250559   1.390   3.531   5.479  0.0916  0.1107 -0.1222
 9715TIP3    H150560   1.379   3.441   5.508 -0.0871  0.1180 -0.1697
 9715TIP3    H250561   1.313   3.577   5.511 -0.8700 -0.2004 -1.8832
 9716TIP3   OH250562   0.745   6.084  16.683  0.3269  0.3209  0.7719
 9716TIP3    H150563   0.838   6.065  16.670  0.5153  1.1465  0.8741
 9716TIP3    H250564   0.742   6.149  16.753 -0.3097  0.5165  0.5755
 9717TIP3   OH250565   4.437   3.204   4.091  0.3099  0.0331 -0.0516
 9717TIP3    H150566   4.463   3.116   4.118  0.7714  0.5012  1.0747
 9717TIP3    H250567   4.494   3.262   4.141 -1.3887  1.0351  0.8056
 9718TIP3   OH250568   5.275   2.079  14.507  0.6933 -0.0280  0.4339
 9718TIP3    H150569   5.235   2.018  14.568  0.4659 -0.1224  0.1950
 9718TIP3    H250570   5.232   2.163  14.524 -0.7560 -0.4561 -0.8727
 9719TIP3   OH250571   2.947   0.051  16.526 -0.2301 -0.3483  0.2906
 9719TIP3    H150572   3.007   0.113  16.485 -1.2661  0.8349  0.5178
 9719TIP3    H250573   3.004  -0.016  16.564  0.8586 -0.1642 -0.9590
 9720TIP3   OH250574   6.270   0.360   2.833 -0.0382 -0.1829 -0.2931
 9720TIP3    H150575   6.224   0.400   2.906  0.0288  0.2748 -0.4931
 9720TIP3    H250576   6.319   0.288   2.872 -0.0441  0.0237  0.1081
 9721TIP3   OH250577   0.131   2.049  13.896  0.2631 -0.0237  0.3713
 9721TIP3    H150578   0.037   2.052  13.880 -0.0527  0.5614  2.1411
 9721TIP3    H250579   0.141   1.983  13.965  0.9509  0.9544  1.2395
 9722TIP3   OH250580   3.561   2.891  14.973 -0.0832  0.0980  0.2948
 9722TIP3    H150581   3.609   2.948  14.913  0.5942 -1.3138 -0.5222
 9722TIP3    H250582   3.566   2.937  15.057  3.2731 -0.2412  0.4268
 9723TIP3   OH250583   6.101   4.428  15.718  0.1886  0.3273 -0.0220
 9723TIP3    H150584   6.068   4.464  15.635  0.0152 -0.4717 -0.3040
 9723TIP3    H250585   6.022   4.400  15.765  0.4063 -3.3348 -1.4842
 9724TIP3   OH250586   6.276   3.605   2.892 -0.1638  0.3130  0.7556
 9724TIP3    H150587   6.323   3.660   2.955  2.1503 -0.1042 -0.4774
 9724TIP3    H250588   6.345   3.556   2.848 -1.9062 -1.2302 -0.4097
 9725TIP3   OH250589   4.367   2.951  16.734  0.9286 -0.5366  0.6215
 9725TIP3    H150590   4.390   2.903  16.654  3.0888  2.2500 -0.6113
 9725TIP3    H250591   4.428   2.918  16.800  0.8234 -1.0716  0.4620
 9726TIP3   OH250592   3.490   4.229   1.226 -0.8328 -0.9307  0.2659
 9726TIP3    H150593   3.402   4.193   1.234 -0.5214 -1.5777  0.8241
 9726TIP3    H250594   3.532   4.211   1.309  0.1824 -1.5831 -0.3686
 9727TIP3   OH250595   0.744   2.001   4.366 -0.1070 -0.2709  0.4353
 9727TIP3    H150596   0.662   1.960   4.394 -0.2882 -0.2517 -0.0550
 9727TIP3    H250597   0.731   2.019   4.273  0.5121 -0.3983  0.3215
 9728TIP3   OH250598   2.444   2.778   6.530  0.0069  0.4839  0.1275
 9728TIP3    H150599   2.503   2.756   6.458 -0.7234  0.9785 -0.6421
 9728TIP3    H250600   2.449   2.702   6.588  1.1425  0.3788 -0.0820
 9729TIP3   OH250601   4.455   5.862  10.724  0.5676 -0.0321 -0.3189
 9729TIP3    H150602   4.546   5.890  10.716  1.2327 -1.7608  0.6309
 9729TIP3    H250603   4.452   5.777  10.679 -0.4435 -0.2639  0.1405
 9730TIP3   OH250604   5.194   4.698  12.714  0.0543  0.0940  0.0224
 9730TIP3    H150605   5.142   4.763  12.667  1.2289 -0.7279 -2.5715
 9730TIP3    H250606   5.158   4.699  12.803 -0.0966  4.0902  0.0686
 9731TIP3   OH250607   2.613   1.882   3.428 -0.1006  0.5014  0.6731
 9731TIP3    H150608   2.586   1.835   3.507  0.3563 -1.3533 -0.2428
 9731TIP3    H250609   2.546   1.950   3.417 -0.1304  0.8607  2.6707
 9732TIP3   OH250610   2.882   6.210  16.139  0.2854 -0.5441 -1.0569
 9732TIP3    H150611   2.841   6.285  16.094 -1.1224 -1.1528 -0.8407
 9732TIP3    H250612   2.843   6.133  16.097 -1.9870 -1.1753  1.8287
 9733TIP3   OH250613   1.456   0.077  14.730  0.0540  0.3553 -0.6478
 9733TIP3    H150614   1.515   0.151  14.751 -0.0910  0.3772 -0.3025
 9733TIP3    H250615   1.486   0.007  14.787 -0.9495  0.7050  0.3490
 9734TIP3   OH250616   2.237   4.196   5.462 -0.0610 -0.1586  0.7065
 9734TIP3    H150617   2.210   4.158   5.379 -0.0955 -0.2536  0.7606
 9734TIP3    H250618   2.218   4.289   5.454  0.5864 -0.0531  0.3470
 9735TIP3   OH250619   2.795   6.031  14.728  0.4343 -0.0006  0.4456
 9735TIP3    H150620   2.817   6.078  14.809  2.3034 -0.4924  0.2755
 9735TIP3    H250621   2.839   5.946  14.737 -2.2958 -1.5222  0.4457
 9736TIP3   OH250622   6.357   0.797  12.813  0.1002  0.2187 -0.1101
 9736TIP3    H150623   6.273   0.842  12.819  0.7617  1.3734  1.2526
 9736TIP3    H250624   6.368   0.756  12.899 -0.1254 -1.9866 -1.0560
 9737TIP3   OH250625   3.080   6.316  11.087  0.1728 -0.9302  0.6097
 9737TIP3    H150626   3.057   6.323  10.994 -0.1424 -1.5462  0.6336
 9737TIP3    H250627   3.007   6.356  11.134  0.3082 -0.6652  0.5968
 9738TIP3   OH250628   3.117   1.215   3.801 -0.3688  0.0465  0.5653
 9738TIP3    H150629   3.134   1.161   3.724 -0.5932 -2.0587  1.9045
 9738TIP3    H250630   3.140   1.159   3.875 -1.2203  1.5850  2.0698
 9739TIP3   OH250631   0.951   5.553   2.368  0.2358 -0.8238  0.0731
 9739TIP3    H150632   0.941   5.643   2.399  0.7784 -0.6092 -0.3529
 9739TIP3    H250633   0.953   5.560   2.273 -0.3404 -1.3591  0.0139
 9740TIP3   OH250634   3.378   1.608   1.941  0.3403  0.0717  0.6027
 9740TIP3    H150635   3.284   1.626   1.942  0.1616 -0.5599 -1.0118
 9740TIP3    H250636   3.415   1.678   1.887  1.0010  1.0000  2.1808
 9741TIP3   OH250637   0.969   4.635  12.763  0.0634 -0.5706 -0.3965
 9741TIP3    H150638   0.948   4.699  12.694  2.7646 -1.1001 -1.8340
 9741TIP3    H250639   0.919   4.557  12.739  1.4365 -0.9544 -2.1963
 9742TIP3   OH250640   2.703   3.636  11.396  0.6889  0.0214  0.0047
 9742TIP3    H150641   2.623   3.594  11.429  0.4635 -1.0716 -1.8231
 9742TIP3    H250642   2.681   3.665  11.308  1.8682  1.1040  0.0407
 9743TIP3   OH250643   1.085   3.313  12.824  0.6503  0.1643  0.5751
 9743TIP3    H150644   1.163   3.365  12.843  1.4042 -0.8498  0.3573
 9743TIP3    H250645   1.093   3.237  12.882 -0.2763  0.1439  0.6859
 9744TIP3   OH250646   5.847   2.539  14.935 -0.3148  0.4044 -0.2119
 9744TIP3    H150647   5.776   2.589  14.974 -1.4141 -0.2377 -1.3185
 9744TIP3    H250648   5.818   2.522  14.845  0.5252 -1.2213 -0.2181
 9745TIP3   OH250649   2.455   1.017   6.428 -0.0841  0.6264  0.0648
 9745TIP3    H150650   2.394   1.022   6.502 -2.4849 -0.9110 -1.6712
 9745TIP3    H250651   2.433   1.093   6.374  0.4074  0.7449  0.0272
 9746TIP3   OH250652   3.405   6.130  15.104 -0.9247  0.7223  0.4264
 9746TIP3    H150653   3.397   6.220  15.075  0.6838  0.8782  0.3964
 9746TIP3    H250654   3.480   6.130  15.163 -0.9246 -0.5839  0.4608
 9747TIP3   OH250655   5.945   3.905  14.247  0.6778 -0.6362 -0.6319
 9747TIP3    H150656   5.970   3.925  14.337  0.9280  0.5866 -0.9414
 9747TIP3    H250657   6.024   3.926  14.196 -0.2689  1.3420 -1.4080
 9748TIP3   OH250658   5.213   0.238  14.231  0.3106  0.7839  0.1453
 9748TIP3    H150659   5.184   0.210  14.318 -1.3205  0.5646 -0.4372
 9748TIP3    H250660   5.304   0.264  14.244 -0.0182  1.1708  2.0171
 9749TIP3   OH250661   3.568   2.119  14.837 -0.1817  0.1943 -0.4304
 9749TIP3    H150662   3.657   2.104  14.869  0.0908  3.0857  0.4726
 9749TIP3    H250663   3.513   2.064  14.894  0.8391  0.3271  0.7378
 9750TIP3   OH250664   0.570   2.630  11.154  0.3110 -0.1008  0.1879
 9750TIP3    H150665   0.577   2.584  11.237  1.6410 -0.6143 -0.1747
 9750TIP3    H250666   0.659   2.663  11.137  0.1567 -0.3170 -1.1855
 9751TIP3   OH250667   2.329   1.806  14.215  0.4100 -0.4766 -0.1340
 9751TIP3    H150668   2.282   1.887  14.196  1.4449  0.6452  1.8666
 9751TIP3    H250669   2.390   1.796  14.142  0.2287  0.4990 -0.4304
 9752TIP3   OH250670   1.799   0.354  15.644  0.3382  0.5520 -0.2774
 9752TIP3    H150671   1.705   0.350  15.624  0.0029  0.2072  1.2032
 9752TIP3    H250672   1.827   0.438  15.608 -1.1308  1.8662  1.4203
 9753TIP3   OH250673   3.365   4.494   4.522  0.1888 -0.2840 -0.3834
 9753TIP3    H150674   3.316   4.447   4.455  0.7506  2.0550 -2.6045
 9753TIP3    H250675   3.455   4.495   4.489  0.3887  1.3588  0.1440
 9754TIP3   OH250676   0.080   4.443   0.502 -0.0986 -0.3602  0.1351
 9754TIP3    H150677   0.119   4.380   0.563  0.2287 -1.0040 -0.7199
 9754TIP3    H250678  -0.009   4.410   0.488  0.0955 -0.6707 -0.3661
 9755TIP3   OH250679   3.094   0.642  11.730 -0.6420 -0.1228  0.2877
 9755TIP3    H150680   3.053   0.721  11.764 -3.2009 -0.4935 -1.6211
 9755TIP3    H250681   3.137   0.671  11.649 -2.4032 -0.7297 -0.9408
 9756TIP3   OH250682   0.517   1.491   4.935 -0.1076 -0.4870  0.1037
 9756TIP3    H150683   0.474   1.487   5.021 -1.8128 -1.0866 -0.7225
 9756TIP3    H250684   0.450   1.461   4.873  1.8819 -2.5637 -1.1863
 9757TIP3   OH250685   6.527   3.213  14.596 -0.4138  0.0031 -0.1391
 9757TIP3    H150686   6.555   3.127  14.626 -0.6527 -0.2514 -0.6236
 9757TIP3    H250687   6.474   3.195  14.518 -0.6215  0.5757 -0.1355
 9758TIP3   OH250688   5.396   3.625   1.097  0.1384 -0.1167  0.4037
 9758TIP3    H150689   5.318   3.594   1.052 -0.2661 -1.1719  1.7418
 9758TIP3    H250690   5.396   3.719   1.084 -2.5198  0.2064  2.0255
 9759TIP3   OH250691   5.004   2.445   4.014 -0.5546  0.2825 -0.6773
 9759TIP3    H150692   5.012   2.492   3.931  0.7910  1.6557  0.1806
 9759TIP3    H250693   4.948   2.501   4.067 -1.6870 -0.7545 -0.7240
 9760TIP3   OH250694   2.820   3.845   2.657 -0.2755  0.0759  0.3177
 9760TIP3    H150695   2.890   3.897   2.618 -1.5441  1.5422 -0.0983
 9760TIP3    H250696   2.856   3.756   2.663  1.3106  0.6252 -0.6165
 9761TIP3   OH250697   3.862   2.755  12.518 -0.2813  0.2501  0.7365
 9761TIP3    H150698   3.893   2.845  12.530 -1.5022  0.4378  2.9815
 9761TIP3    H250699   3.778   2.765  12.473  0.9508 -0.0242 -1.7958
 9762TIP3   OH250700   4.032   5.482  13.316 -0.7689 -0.0293  0.2722
 9762TIP3    H150701   4.091   5.440  13.253  1.2701  1.3968  1.1229
 9762TIP3    H250702   4.063   5.452  13.401  1.8695  4.1730  1.0687
 9763TIP3   OH250703   2.957   1.029   4.289 -0.0207 -0.1357  0.3631
 9763TIP3    H150704   2.915   1.111   4.316  0.6869  0.4018 -0.1347
 9763TIP3    H250705   2.938   0.969   4.361  2.3124  1.4204  2.4471
 9764TIP3   OH250706   1.991   5.300   0.897 -0.6231  0.3809  0.2754
 9764TIP3    H150707   1.932   5.226   0.889 -0.5359  0.3138  0.2445
 9764TIP3    H250708   2.005   5.330   0.807  1.6293 -1.3825 -0.0727
 9765TIP3   OH250709   2.223   6.177   4.387  0.0455  0.6220  0.4795
 9765TIP3    H150710   2.130   6.200   4.393 -0.1762 -0.1866  0.2784
 9765TIP3    H250711   2.224   6.098   4.333  0.7509  0.0149  1.3597
 9766TIP3   OH250712   4.688   2.346  11.741 -0.2849  0.1975  0.0617
 9766TIP3    H150713   4.693   2.436  11.772  0.2188  0.0235  0.4985
 9766TIP3    H250714   4.720   2.349  11.651  0.6406  0.3026  0.3946
 9767TIP3   OH250715   4.439   1.816   6.718 -0.8715  0.7039  0.8372
 9767TIP3    H150716   4.362   1.776   6.758 -0.3553 -0.1181  1.0345
 9767TIP3    H250717   4.438   1.907   6.748 -1.1946  0.4315  1.6707
 9768TIP3   OH250718   5.829   5.384  16.459  0.6880  0.2520  0.3566
 9768TIP3    H150719   5.769   5.414  16.528 -0.6374 -1.1954 -0.1021
 9768TIP3    H250720   5.778   5.391  16.378  1.7841  0.7113 -0.3118
 9769TIP3   OH250721   5.652   1.016  14.489  0.3974  0.5566  0.5641
 9769TIP3    H150722   5.599   0.943  14.457  0.5189  0.3592  0.8147
 9769TIP3    H250723   5.625   1.090  14.435  1.2276  0.0316 -0.6117
 9770TIP3   OH250724   4.708   2.728   1.295  0.5672  0.0703 -0.3559
 9770TIP3    H150725   4.686   2.791   1.227 -1.7865  0.1798  0.4353
 9770TIP3    H250726   4.736   2.782   1.369  1.2955  0.0337 -0.5971
 9771TIP3   OH250727   1.537   5.368   4.272 -0.0026 -0.1366  0.6447
 9771TIP3    H150728   1.494   5.434   4.326  0.3022  0.9623 -0.4248
 9771TIP3    H250729   1.465   5.324   4.226 -0.0943  0.8009 -0.1347
 9772TIP3   OH250730   0.422   5.335   4.620 -0.0511 -0.0723  0.2065
 9772TIP3    H150731   0.335   5.298   4.635 -0.3401  0.5897  0.2084
 9772TIP3    H250732   0.450   5.367   4.705  0.8593 -1.6462  0.5309
 9773TIP3   OH250733   2.727   3.533  12.202 -0.3335 -0.2221  0.0682
 9773TIP3    H150734   2.701   3.530  12.110 -0.4840 -0.0467  0.1057
 9773TIP3    H250735   2.710   3.623  12.230 -0.9433 -0.4412  0.4541
 9774TIP3   OH250736   1.639   1.350   1.469 -0.3952  0.0789  0.1488
 9774TIP3    H150737   1.551   1.361   1.505 -0.3443  1.7711 -0.1447
 9774TIP3    H250738   1.625   1.324   1.378 -0.6357  1.1473 -0.1362
 9775TIP3   OH250739   4.189   6.086  12.116  0.4604 -0.5977  0.6871
 9775TIP3    H150740   4.118   6.150  12.126  0.2641 -1.0042  2.1796
 9775TIP3    H250741   4.213   6.092  12.024 -0.6536  0.4605  0.4247
 9776TIP3   OH250742   5.347   0.190  14.880  0.0369  0.3543  0.0408
 9776TIP3    H150743   5.370   0.271  14.837 -1.0082  0.7925  0.2815
 9776TIP3    H250744   5.334   0.214  14.972 -0.0046 -0.1333  0.1688
 9777TIP3   OH250745   4.750   2.814  17.347 -0.1697  0.1454  0.2115
 9777TIP3    H150746   4.659   2.794  17.369 -0.3163 -0.7043 -1.0498
 9777TIP3    H250747   4.801   2.750  17.397 -0.4273 -0.9610 -0.8952
 9778TIP3   OH250748   6.097   2.260   6.742 -0.0162  0.0522  0.3796
 9778TIP3    H150749   6.104   2.219   6.828 -1.8175 -0.2033  0.4476
 9778TIP3    H250750   6.057   2.193   6.687  1.1382  0.2070 -0.6840
 9779TIP3   OH250751   2.102   6.536   5.636 -0.4218  0.2478  0.0733
 9779TIP3    H150752   2.034   6.505   5.696 -0.2488 -1.5336 -0.6133
 9779TIP3    H250753   2.181   6.540   5.689 -0.4049 -0.6972  0.1241
 9780TIP3   OH250754   3.982   0.291  13.171 -0.3841  0.5426  0.3067
 9780TIP3    H150755   3.948   0.208  13.139  1.1470 -0.5091  1.2513
 9780TIP3    H250756   4.020   0.333  13.094  1.1154 -0.8575  0.2116
 9781TIP3   OH250757   1.324   5.358  14.655 -0.5373 -0.3018  0.2462
 9781TIP3    H150758   1.288   5.368  14.743  0.6520  1.5742  0.5900
 9781TIP3    H250759   1.247   5.346  14.599 -1.4512  0.2796  1.3327
 9782TIP3   OH250760   3.944   0.351  13.625 -0.1897  0.5663  0.0958
 9782TIP3    H150761   3.956   0.363  13.531  1.1369  0.4496  0.2385
 9782TIP3    H250762   3.912   0.261  13.634 -1.0127  0.8099 -0.2775
 9783TIP3   OH250763   5.983   1.219  17.142  0.3594  0.0478 -0.3322
 9783TIP3    H150764   5.961   1.312  17.130  0.2153 -0.2446 -3.0386
 9783TIP3    H250765   6.058   1.205  17.085 -1.1117 -1.9638 -1.9371
 9784TIP3   OH250766   1.681   4.573  15.221 -1.1309  0.7102  0.3369
 9784TIP3    H150767   1.609   4.511  15.204 -2.1124  2.1530 -1.0773
 9784TIP3    H250768   1.752   4.543  15.165 -2.0452  1.5237 -1.3506
 9785TIP3   OH250769   3.732   4.381  13.889  0.5794 -0.2126 -0.4401
 9785TIP3    H150770   3.724   4.311  13.825 -1.6357 -0.1015 -0.3613
 9785TIP3    H250771   3.700   4.344  13.971  2.4821 -0.0591  0.4299
 9786TIP3   OH250772   4.550   2.243  14.992  0.1517 -0.0145  0.7178
 9786TIP3    H150773   4.493   2.232  14.917  0.8097  3.1205 -0.3740
 9786TIP3    H250774   4.497   2.290  15.057  0.0724 -1.3270  1.6471
 9787TIP3   OH250775   2.445   1.289  12.359  0.0303 -0.1513 -0.1584
 9787TIP3    H150776   2.423   1.309  12.450  0.3746  1.7678 -0.4572
 9787TIP3    H250777   2.370   1.320  12.308  0.5065  0.2133 -0.6490
 9788TIP3   OH250778   1.578   4.871  15.681 -0.2182  0.1239 -0.0555
 9788TIP3    H150779   1.612   4.796  15.631  0.5085  0.9269 -0.8134
 9788TIP3    H250780   1.491   4.887  15.645 -1.8961 -2.4445  2.4273
 9789TIP3   OH250781   0.648   4.518   4.013  0.2062  0.1783 -0.3306
 9789TIP3    H150782   0.711   4.450   4.034  0.8402  0.7492 -0.3697
 9789TIP3    H250783   0.573   4.500   4.070  0.9116  0.2557  0.6495
 9790TIP3   OH250784   3.365   0.131  15.588 -0.0430  0.2561  0.2677
 9790TIP3    H150785   3.308   0.192  15.635  0.3536  1.5899 -0.9017
 9790TIP3    H250786   3.396   0.181  15.512  2.5089 -0.4619  0.7331
 9791TIP3   OH250787   3.136   2.568  13.092  0.9553  0.4086  0.5314
 9791TIP3    H150788   3.222   2.543  13.059  1.0771  0.8146  0.5336
 9791TIP3    H250789   3.087   2.597  13.015  0.2518 -1.3694  0.2732
 9792TIP3   OH250790   0.182   6.696   1.007  0.6091 -0.0292 -0.1707
 9792TIP3    H150791   0.118   6.724   1.073  0.1753  0.2086 -0.6843
 9792TIP3    H250792   0.250   6.762   1.010  1.4311 -0.8783  1.1805
 9793TIP3   OH250793   5.269   6.148  16.150  0.3115 -0.0973 -0.6464
 9793TIP3    H150794   5.181   6.109  16.156 -1.5777  3.5492 -1.4950
 9793TIP3    H250795   5.296   6.131  16.060  0.0779 -0.4634 -0.6524
 9794TIP3   OH250796   2.319   0.477  12.736  0.8804  0.3725  0.0723
 9794TIP3    H150797   2.367   0.558  12.753 -1.4250  1.9651 -0.6016
 9794TIP3    H250798   2.275   0.458  12.819  1.0811  0.0313  0.1025
 9795TIP3   OH250799   4.191   2.207  16.161  0.3769 -0.7522 -0.0828
 9795TIP3    H150800   4.249   2.277  16.132  0.5513 -1.3801 -1.2887
 9795TIP3    H250801   4.128   2.251  16.218  1.5261  0.0778  0.6062
 9796TIP3   OH250802   0.281   2.900  16.422 -0.8273  0.2069 -0.1306
 9796TIP3    H150803   0.268   2.983  16.467 -1.5330  0.4804 -0.8146
 9796TIP3    H250804   0.249   2.834  16.484 -0.2255  0.4361  0.4297
 9797TIP3   OH250805   4.267   1.203   1.099  0.3658 -0.0477 -0.2398
 9797TIP3    H150806   4.190   1.238   1.144  0.7534  0.7662 -0.1887
 9797TIP3    H250807   4.334   1.198   1.167  0.5832 -0.0055 -0.4489
 9798TIP3   OH250808   0.109   4.785  13.475  0.3981 -0.1897  0.0854
 9798TIP3    H150809   0.139   4.738  13.397  1.0842  1.0789 -0.4424
 9798TIP3    H250810   0.028   4.741  13.499  1.4085 -2.1626  0.1130
 9799TIP3   OH250811   1.031   3.307  11.369  0.4176 -0.0810 -0.3057
 9799TIP3    H150812   0.991   3.390  11.344 -0.6581 -1.0183 -1.8798
 9799TIP3    H250813   0.982   3.279  11.447  1.2274  1.0288  0.6391
 9800TIP3   OH250814   4.768   3.708  15.559  0.3452  0.1042 -0.3248
 9800TIP3    H150815   4.792   3.725  15.469 -0.1164  0.9827 -0.2893
 9800TIP3    H250816   4.675   3.689  15.556  0.3856 -0.1438 -0.0689
 9801TIP3   OH250817   6.057   1.447   4.286 -0.1612 -0.4902 -0.1137
 9801TIP3    H150818   5.982   1.505   4.299 -0.9726 -1.8171  1.4877
 9801TIP3    H250819   6.133   1.499   4.312 -0.7974  0.0850  0.6288
 9802TIP3   OH250820   2.930   3.011  11.983  0.2158  0.5553  0.8910
 9802TIP3    H150821   2.924   3.021  12.078  2.1532  0.0993  1.1147
 9802TIP3    H250822   2.936   2.916  11.969  1.7236  0.6873  0.4952
 9803TIP3   OH250823   3.434   0.254  16.784 -0.4033  0.4534  0.0260
 9803TIP3    H150824   3.442   0.193  16.858 -3.8125 -0.0193  0.1888
 9803TIP3    H250825   3.471   0.207  16.710  0.7253 -0.1214  0.9245
 9804TIP3   OH250826   1.764   6.073   5.401  0.6288  0.5064 -0.4178
 9804TIP3    H150827   1.832   6.066   5.334  0.4781  1.4395 -0.6837
 9804TIP3    H250828   1.683   6.046   5.356  0.7072  0.0577 -0.2939
 9805TIP3   OH250829   1.916   0.348  15.932  0.2830  0.3693 -0.4150
 9805TIP3    H150830   1.871   0.284  15.987  0.1684  0.6789 -0.1487
 9805TIP3    H250831   1.920   0.306  15.846  0.4426 -0.1098 -0.1836
 9806TIP3   OH250832   6.126   0.932  14.608 -0.4411 -0.0869  0.5229
 9806TIP3    H150833   6.138   0.987  14.685  0.1771  0.5423 -0.0120
 9806TIP3    H250834   6.062   0.979  14.555 -1.5764 -0.9759  1.0602
 9807TIP3   OH250835   3.296   0.042  14.925 -0.3304  0.0693 -0.4384
 9807TIP3    H150836   3.246   0.085  14.994  1.4484  1.0523  0.3049
 9807TIP3    H250837   3.248   0.063  14.844 -0.9012  1.3163  0.1893
 9808TIP3   OH250838   6.105   2.188  11.914  0.2363  0.2022  0.1453
 9808TIP3    H150839   6.095   2.212  12.006  0.9201 -1.0230  0.5563
 9808TIP3    H250840   6.176   2.124  11.913  3.1326  3.1120 -1.7353
 9809TIP3   OH250841   3.413   1.603   2.679 -0.2373  0.0119 -0.3363
 9809TIP3    H150842   3.393   1.677   2.736 -0.2329  0.0395 -0.3699
 9809TIP3    H250843   3.332   1.553   2.675  0.6346 -1.7895  2.2914
 9810TIP3   OH250844   3.124   1.790  12.307  0.0196 -0.1900 -0.3725
 9810TIP3    H150845   3.133   1.798  12.212 -3.0577 -0.0812 -0.7581
 9810TIP3    H250846   3.155   1.701  12.326  3.8112  0.8509 -0.8617
 9811TIP3   OH250847   0.825   4.708  13.849 -0.0450  0.1788  0.4399
 9811TIP3    H150848   0.887   4.636  13.844  1.1042  1.2042 -3.2699
 9811TIP3    H250849   0.875   4.785  13.821 -2.0709  1.7574  0.9090
 9812TIP3   OH250850   1.257   4.610   1.246  0.3224 -0.3720  0.0498
 9812TIP3    H150851   1.345   4.575   1.231  0.0805 -0.6029 -0.8922
 9812TIP3    H250852   1.217   4.548   1.308  1.2467  0.4468  1.5039
 9813TIP3   OH250853   3.387   3.790  13.337  0.0011 -0.3743 -0.6356
 9813TIP3    H150854   3.362   3.757  13.423  0.9774 -1.6684 -0.8191
 9813TIP3    H250855   3.412   3.881  13.353 -1.4075 -0.0995  0.1425
 9814TIP3   OH250856   3.322   5.805  11.027 -0.0065  0.2056  0.1517
 9814TIP3    H150857   3.371   5.814  10.945 -1.4467 -0.9524 -0.8922
 9814TIP3    H250858   3.284   5.718  11.023 -0.5941  0.3485  1.8076
 9815TIP3   OH250859   3.009   4.570   0.624  0.1753 -1.0357  1.0529
 9815TIP3    H150860   2.949   4.607   0.689 -1.2940  0.0457 -0.8076
 9815TIP3    H250861   3.092   4.614   0.641 -0.6764  0.6519  1.0405
 9816TIP3   OH250862   5.527   5.189   2.415  0.4470  0.2474  0.1557
 9816TIP3    H150863   5.534   5.103   2.375 -0.3605  0.0348  0.4582
 9816TIP3    H250864   5.435   5.197   2.441  0.1947  1.7030 -1.0091
 9817TIP3   OH250865   4.010   3.377   2.831 -0.4519  0.4949  0.7075
 9817TIP3    H150866   3.977   3.414   2.749 -0.8656  1.4909  1.3065
 9817TIP3    H250867   4.105   3.369   2.818 -0.6637 -0.6082 -0.3381
 9818TIP3   OH250868   6.700   0.306   3.973  0.1424 -0.1413  0.0753
 9818TIP3    H150869   6.636   0.242   4.004 -3.0341  2.7212  0.0231
 9818TIP3    H250870   6.774   0.296   4.033 -1.5989 -1.6015  2.1431
 9819TIP3   OH250871   2.869   1.752   1.779  0.4539 -0.0866 -0.0465
 9819TIP3    H150872   2.860   1.840   1.816  0.3850 -0.1479  0.0833
 9819TIP3    H250873   2.794   1.704   1.813  0.8039 -0.3629  0.3532
 9820TIP3   OH250874   2.882   1.431   2.090  0.2047  0.7136 -0.1087
 9820TIP3    H150875   2.969   1.465   2.114 -0.0150  0.9825  0.3053
 9820TIP3    H250876   2.861   1.368   2.159 -0.3872  1.4232  0.3644
 9821TIP3   OH250877   1.808   3.986  16.819  0.5771  0.7663  0.0440
 9821TIP3    H150878   1.773   3.943  16.897  0.5730  1.6795  0.5570
 9821TIP3    H250879   1.888   3.939  16.798 -0.7663 -1.2243 -1.0017
 9822TIP3   OH250880   4.093   0.008  13.653  0.2356 -0.5394  0.6584
 9822TIP3    H150881   4.026   0.037  13.715  0.8191 -0.3667  1.2096
 9822TIP3    H250882   4.088  -0.088  13.656  1.4919 -0.6100  2.3742
 9823TIP3   OH250883   1.903   3.715  13.185 -0.3761 -0.1410  0.1082
 9823TIP3    H150884   1.958   3.662  13.128 -1.9710  0.4794 -2.1639
 9823TIP3    H250885   1.906   3.671  13.270  0.9262 -1.9725 -0.8158
 9824TIP3   OH250886   4.546   1.129  12.069 -0.2044  0.2451  0.6623
 9824TIP3    H150887   4.473   1.069  12.054 -1.4958  1.0404  3.1946
 9824TIP3    H250888   4.591   1.094  12.146  0.6449  1.0871  0.5695
 9825TIP3   OH250889   2.027   6.509  16.488  0.2253 -0.1563  0.8340
 9825TIP3    H150890   2.081   6.532  16.412 -0.1578 -0.4211  0.4770
 9825TIP3    H250891   2.090   6.487  16.557  0.5976 -2.4000 -0.1534
 9826TIP3   OH250892   2.401   6.291  16.490 -0.0044 -0.4972  0.6419
 9826TIP3    H150893   2.496   6.289  16.485 -0.0228 -2.7953  0.2481
 9826TIP3    H250894   2.379   6.241  16.569 -0.8840 -0.2494  0.5690
 9827TIP3   OH250895   0.665   4.403   0.842 -0.5406  0.9113  0.2635
 9827TIP3    H150896   0.752   4.388   0.805 -1.0832  0.5973 -0.9633
 9827TIP3    H250897   0.608   4.408   0.765 -1.5007  1.8301  1.0120
 9828TIP3   OH250898   3.876   2.172   6.333 -0.0418  0.1471  0.1964
 9828TIP3    H150899   3.927   2.238   6.379  0.5381 -0.6706  0.7463
 9828TIP3    H250900   3.940   2.108   6.303 -0.4263  0.5416 -1.5900
 9829TIP3   OH250901   2.795   1.173   1.983  0.2952 -0.2252 -0.2401
 9829TIP3    H150902   2.817   1.255   2.027  1.6298  1.1611 -3.2211
 9829TIP3    H250903   2.845   1.107   2.029 -0.7380  0.5574  2.1845
 9830TIP3   OH250904   2.944   3.100   1.480  0.5942  0.1637  0.3287
 9830TIP3    H150905   2.939   3.118   1.386  0.3521  2.8717  0.7658
 9830TIP3    H250906   3.011   3.032   1.488  1.2697  0.5095 -1.7407
 9831TIP3   OH250907   1.626   2.038   1.660 -0.1106  0.3155 -0.1909
 9831TIP3    H150908   1.653   2.057   1.570  0.9150 -3.4017 -0.8467
 9831TIP3    H250909   1.673   2.103   1.713  2.0188  0.5069 -2.1383
 9832TIP3   OH250910   5.712   0.303   3.675 -0.0917  0.0278  0.0526
 9832TIP3    H150911   5.730   0.393   3.647  2.2192 -0.2360  0.4800
 9832TIP3    H250912   5.774   0.288   3.747  3.5493 -3.5170 -3.3223
 9833TIP3   OH250913   6.015   5.931   5.852  0.0952 -0.7606  0.0777
 9833TIP3    H150914   5.927   5.894   5.854  0.1623 -0.8998  1.2732
 9833TIP3    H250915   6.072   5.859   5.879  0.3470 -0.1299  1.2873
 9834TIP3   OH250916   3.873   4.622  12.417  0.0148 -0.4688 -0.3899
 9834TIP3    H150917   3.914   4.567  12.350  2.1402  0.5433 -0.0057
 9834TIP3    H250918   3.833   4.560  12.479  0.8531 -1.5104 -0.8754
 9835TIP3   OH250919   1.247   3.559  16.088  0.1205  0.4228  0.4227
 9835TIP3    H150920   1.286   3.542  16.003 -0.0134  0.6858  0.3091
 9835TIP3    H250921   1.305   3.624  16.129 -0.5944  1.3738 -0.0422
 9836TIP3   OH250922   5.240   1.017  15.651 -0.5981  0.7544  0.7537
 9836TIP3    H150923   5.224   1.098  15.603  1.0947  0.5032 -0.3427
 9836TIP3    H250924   5.174   0.956  15.618  0.0340  0.8227 -0.7286
 9837TIP3   OH250925   1.376   0.985   3.763 -0.1566  0.2041 -0.1889
 9837TIP3    H150926   1.455   1.010   3.810 -0.6041  1.2229  0.0568
 9837TIP3    H250927   1.406   0.964   3.675  0.0535  3.8935 -1.1573
 9838TIP3   OH250928   3.978   1.306  11.829  0.4791 -0.6350 -0.1168
 9838TIP3    H150929   3.905   1.271  11.777  0.8770 -0.5256 -0.7542
 9838TIP3    H250930   4.056   1.282  11.779  0.8476 -0.2671  0.2852
 9839TIP3   OH250931   3.043   2.646  11.722  0.0451 -0.0566 -0.1110
 9839TIP3    H150932   3.057   2.597  11.803 -0.9896  1.4778  1.0528
 9839TIP3    H250933   3.127   2.688  11.704  0.3506 -0.6000  0.0142
 9840TIP3   OH250934   2.161   3.163  14.078  0.1210  0.1460 -0.4033
 9840TIP3    H150935   2.147   3.254  14.050  0.7601 -0.0103 -1.2564
 9840TIP3    H250936   2.073   3.132  14.102  0.0328  1.3161  0.9936
 9841TIP3   OH250937   4.926   1.991  14.629 -0.7744  0.1578  0.0714
 9841TIP3    H150938   4.966   1.934  14.695  2.2002 -0.0046 -1.7178
 9841TIP3    H250939   4.963   2.078  14.648  0.4583  0.0300 -1.5415
 9842TIP3   OH250940   1.425   6.736  12.174 -0.2314  0.0186 -0.0976
 9842TIP3    H150941   1.377   6.818  12.185  3.1186  1.9545  1.8033
 9842TIP3    H250942   1.416   6.691  12.258 -1.6674 -1.4625 -0.9763
 9843TIP3   OH250943   5.537   2.530  14.014  0.0497 -0.0079 -0.6227
 9843TIP3    H150944   5.537   2.437  14.036 -0.2723  0.0672 -0.3031
 9843TIP3    H250945   5.499   2.533  13.926  0.2673 -0.1993 -0.7234
 9844TIP3   OH250946   3.249   2.359  16.748 -0.1847 -0.6959 -0.1106
 9844TIP3    H150947   3.241   2.454  16.745  0.6069 -0.5370  1.7474
 9844TIP3    H250948   3.171   2.328  16.702 -0.5039  0.8318 -0.6760
 9845TIP3   OH250949   5.067   4.142   0.598 -0.2548  0.0895 -0.0710
 9845TIP3    H150950   5.031   4.211   0.653  0.4054  0.2195  0.2065
 9845TIP3    H250951   4.992   4.110   0.547 -0.8587 -0.0003  0.8671
 9846TIP3   OH250952   6.426   5.564  13.727  0.1450  0.2530  0.0641
 9846TIP3    H150953   6.493   5.526  13.670  1.7949  0.3954  1.8041
 9846TIP3    H250954   6.451   5.656  13.735 -0.8767  0.5534 -0.0603
 9847TIP3   OH250955   5.161   3.676   4.833  0.4989 -0.2067 -0.1787
 9847TIP3    H150956   5.073   3.710   4.824  0.2209 -0.7091  0.5111
 9847TIP3    H250957   5.192   3.712   4.916 -0.0179 -2.0129  0.8747
 9848TIP3   OH250958   4.794   4.224  11.317 -0.3982  0.3303  0.2224
 9848TIP3    H150959   4.778   4.302  11.264 -0.0100 -1.1775 -2.2917
 9848TIP3    H250960   4.887   4.229  11.340 -0.6497  1.1689  1.1408
 9849TIP3   OH250961   2.508   3.098   6.228  0.3244  0.2153  0.0373
 9849TIP3    H150962   2.446   3.161   6.189 -1.3418 -1.4136 -0.0797
 9849TIP3    H250963   2.495   3.106   6.322 -0.6205 -0.6116 -0.0059
 9850TIP3   OH250964   2.424   2.209  11.572 -0.1268 -0.6675 -0.0655
 9850TIP3    H150965   2.472   2.219  11.489 -1.7534  0.3299 -0.9342
 9850TIP3    H250966   2.405   2.298  11.599 -2.3636 -1.0069 -0.3106
 9851TIP3   OH250967   1.936   5.087   6.091 -0.2118 -0.2073  0.5301
 9851TIP3    H150968   1.954   5.141   6.014 -2.4515  0.8819  0.6941
 9851TIP3    H250969   1.987   5.129   6.161  1.7281 -1.1273 -0.2750
 9852TIP3   OH250970   6.000   2.210  14.275  0.1772  0.3508 -0.2229
 9852TIP3    H150971   5.971   2.217  14.184  1.2846 -0.2456 -0.6435
 9852TIP3    H250972   5.940   2.267  14.324 -0.2489  0.9174 -1.3616
 9853TIP3   OH250973   5.119   4.929   2.485  0.5383 -0.2659 -0.3928
 9853TIP3    H150974   5.093   5.013   2.449 -0.7127 -0.2709  0.4539
 9853TIP3    H250975   5.197   4.904   2.435  1.6998  1.9700  0.1704
 9854TIP3   OH250976   4.903   6.414   1.745  0.3195  0.6471 -0.3088
 9854TIP3    H150977   4.828   6.376   1.698  0.0604  1.6872 -0.7780
 9854TIP3    H250978   4.980   6.379   1.701  0.1575 -1.0697  0.6831
 9855TIP3   OH250979   4.807   3.763  10.662 -0.2050  0.8373  0.6493
 9855TIP3    H150980   4.895   3.788  10.634 -0.0238 -0.2728  0.1422
 9855TIP3    H250981   4.775   3.707  10.592 -1.1866  0.9445  0.9957
 9856TIP3   OH250982   6.590   2.984  15.705 -0.0872 -0.2864  0.0894
 9856TIP3    H150983   6.632   3.042  15.641 -2.6382  0.9949 -0.5856
 9856TIP3    H250984   6.595   2.897  15.665  0.8973  0.0047 -0.4708
 9857TIP3   OH250985   5.441   5.846   1.222 -0.3753 -0.3936 -0.0890
 9857TIP3    H150986   5.365   5.837   1.280  0.4624 -1.3443  0.9249
 9857TIP3    H250987   5.435   5.771   1.162  0.2181 -1.0105  0.5910
 9858TIP3   OH250988   3.154   6.321  16.852  0.2905 -0.3331  0.1792
 9858TIP3    H150989   3.211   6.397  16.847  0.2502 -0.1391  2.0206
 9858TIP3    H250990   3.194   6.265  16.919 -1.2604 -0.5155  1.0102
 9859TIP3   OH250991   5.176   6.667   6.129  0.1750 -0.0044  0.1934
 9859TIP3    H150992   5.232   6.708   6.196  1.3863 -0.7309 -0.3427
 9859TIP3    H250993   5.096   6.644   6.176  0.5595  0.5041  1.1375
 9860TIP3   OH250994   3.323   1.392   3.859 -0.2876 -0.3870  0.1022
 9860TIP3    H150995   3.343   1.472   3.812  0.5564  1.3414  3.1850
 9860TIP3    H250996   3.261   1.346   3.802  0.8016  1.3875 -2.7063
 9861TIP3   OH250997   2.268   5.359   0.644  0.1835 -0.3822  0.4525
 9861TIP3    H150998   2.309   5.440   0.672  0.4073 -1.0881  2.3136
 9861TIP3    H250999   2.175   5.380   0.637  0.4964  0.6034 -1.4510
 9862TIP3   OH251000   0.416   2.915   3.256 -0.1623  0.3787  0.1939
 9862TIP3    H151001   0.487   2.926   3.319 -0.2256  1.0571  0.1499
 9862TIP3    H251002   0.447   2.847   3.197  0.4502  0.6642  0.1787
 9863TIP3   OH251003   1.654   1.949  11.188 -0.1069  0.1112  0.0164
 9863TIP3    H151004   1.654   1.856  11.210 -2.4475  0.4804  1.9606
 9863TIP3    H251005   1.604   1.954  11.107 -0.4206 -0.3041  0.1758
 9864TIP3   OH251006   6.218   1.643   1.155 -0.3563 -0.1741 -0.0065
 9864TIP3    H151007   6.215   1.609   1.065  3.2766  0.7261 -0.6291
 9864TIP3    H251008   6.176   1.729   1.149  0.7456  0.3103 -1.1141
 9865TIP3   OH251009   2.560   2.654  13.373  0.2700 -0.6184 -0.1322
 9865TIP3    H151010   2.626   2.625  13.436 -1.4004  2.3621  3.2938
 9865TIP3    H251011   2.486   2.594  13.387 -0.9315  1.3302  2.5706
 9866TIP3   OH251012   4.324   4.687   6.207  0.4455  0.1320  0.0529
 9866TIP3    H151013   4.397   4.628   6.227 -2.5334 -2.9208  2.9791
 9866TIP3    H251014   4.333   4.759   6.270  0.5133 -0.6302  0.9267
 9867TIP3   OH251015   6.556   2.759   4.049  1.0571  0.0423 -0.5738
 9867TIP3    H151016   6.516   2.739   3.965  1.0919  2.6124 -1.3067
 9867TIP3    H251017   6.650   2.748   4.035  0.9248 -2.0512 -0.0538
 9868TIP3   OH251018   1.488   4.273   4.312 -1.0472 -0.1168  0.3218
 9868TIP3    H151019   1.497   4.328   4.234  0.2812  1.5387  1.5968
 9868TIP3    H251020   1.393   4.256   4.318 -1.3092  0.7111 -0.9569
 9869TIP3   OH251021   6.048   4.441   0.825  0.5514 -0.3661  0.1547
 9869TIP3    H151022   5.956   4.445   0.801  0.0338 -0.7986  1.9241
 9869TIP3    H251023   6.089   4.390   0.755 -0.1329  1.4533 -1.6736
 9870TIP3   OH251024   5.947   3.066  13.577  0.3202 -0.2558 -0.8044
 9870TIP3    H151025   5.901   3.008  13.638  0.8331  1.0224  0.8783
 9870TIP3    H251026   6.030   3.021  13.560  0.6739 -0.0851  0.4076
 9871TIP3   OH251027   5.230   0.950   4.306 -0.2750 -0.4083 -0.2100
 9871TIP3    H151028   5.259   1.030   4.350  0.1554 -0.7614  0.1578
 9871TIP3    H251029   5.305   0.891   4.312 -0.2885 -0.5386 -1.2418
 9872TIP3   OH251030   5.547   0.833  17.149 -0.3994 -0.4528  0.2687
 9872TIP3    H151031   5.465   0.782  17.149 -0.4401 -0.4035  1.0804
 9872TIP3    H251032   5.613   0.772  17.181 -0.4722  0.0306  1.3764
 9873TIP3   OH251033   4.229   4.755  14.056 -0.2248 -0.4175  0.0516
 9873TIP3    H151034   4.248   4.689  14.123 -0.2026  0.5010  0.9725
 9873TIP3    H251035   4.252   4.839  14.097 -0.5740  0.2011 -0.9699
 9874TIP3   OH251036   2.316   3.062  10.887  0.5680  0.0996  0.4910
 9874TIP3    H151037   2.277   3.094  10.968  1.4289  1.6987  0.3167
 9874TIP3    H251038   2.355   3.140  10.847  3.8537 -1.3194  0.6317
 9875TIP3   OH251039   0.175   3.360  11.705  0.1437  0.0641 -0.4612
 9875TIP3    H151040   0.103   3.421  11.723  0.5051  0.8804 -1.6381
 9875TIP3    H251041   0.232   3.366  11.781 -0.6965 -0.0948  0.1930
 9876TIP3   OH251042   6.744   4.567   1.656 -0.6615  0.3375 -0.0874
 9876TIP3    H151043   6.725   4.518   1.576 -2.4012  0.4125  0.2472
 9876TIP3    H251044   6.736   4.503   1.726 -1.9776  0.8401  0.2595
 9877TIP3   OH251045   5.379   0.506  14.267  0.0724 -0.3627 -0.6486
 9877TIP3    H151046   5.287   0.485  14.248 -0.3169 -0.2336  0.9410
 9877TIP3    H251047   5.398   0.582  14.211 -0.5108 -0.9171 -1.6267
 9878TIP3   OH251048   2.320   3.161  12.375  0.4532 -0.4485  0.5694
 9878TIP3    H151049   2.380   3.236  12.368 -0.0703 -0.0616  0.0554
 9878TIP3    H251050   2.308   3.149  12.469  0.8220 -0.1112  0.6655
 9879TIP3   OH251051   5.221   5.488  13.594 -0.3835  0.7182 -0.0460
 9879TIP3    H151052   5.278   5.531  13.531 -2.0100  1.7083 -0.8966
 9879TIP3    H251053   5.260   5.509  13.679  1.3379  0.1078 -0.6318
 9880TIP3   OH251054   0.021   0.191  16.697 -0.7070  0.2830 -0.3035
 9880TIP3    H151055  -0.034   0.135  16.751 -1.9706  0.6273 -1.2021
 9880TIP3    H251056   0.021   0.276  16.742  1.2276 -0.3625  1.0698
 9881TIP3   OH251057   6.724   2.560  11.467  0.9707 -0.2687  0.3225
 9881TIP3    H151058   6.664   2.547  11.541  1.2460  0.7318  0.7396
 9881TIP3    H251059   6.715   2.480  11.415 -0.6343 -0.1896  0.4325
 9882TIP3   OH251060   0.746   3.500  11.076 -0.4298 -0.2576 -0.1283
 9882TIP3    H151061   0.689   3.428  11.048 -1.3976  0.7248 -0.7193
 9882TIP3    H251062   0.834   3.461  11.076 -1.2814 -2.7293  3.7680
 9883TIP3   OH251063   2.196   0.365  12.977  0.4050 -0.5642 -0.0533
 9883TIP3    H151064   2.168   0.404  13.060  1.4388 -1.6347  0.8331
 9883TIP3    H251065   2.171   0.272  12.984  2.3634 -1.1418 -0.0162
 9884TIP3   OH251066   0.964   6.514   1.028  0.3330 -0.1793  0.4086
 9884TIP3    H151067   0.918   6.535   1.108 -0.5280  0.9281 -0.3445
 9884TIP3    H251068   0.951   6.590   0.971  2.1949 -0.2679 -0.2357
 9885TIP3   OH251069   6.688   0.073  15.661 -0.0147 -0.0366  0.3154
 9885TIP3    H151070   6.717   0.143  15.602 -0.4549 -0.4481 -0.3971
 9885TIP3    H251071   6.645   0.120  15.732  2.6923  0.6386  1.6578
 9886TIP3   OH251072   0.397   5.684  15.596  0.2192  0.0603 -0.3737
 9886TIP3    H151073   0.439   5.742  15.532  0.8388 -0.0084 -0.0389
 9886TIP3    H251074   0.339   5.629  15.544  0.6365  0.0733 -0.8654
 9887TIP3   OH251075   4.307   3.465  15.385 -0.5574  0.1674  0.4698
 9887TIP3    H151076   4.306   3.382  15.432  2.9525 -0.2600  0.1279
 9887TIP3    H251077   4.374   3.517  15.430 -0.1347  1.3874 -1.4542
 9888TIP3   OH251078   5.888   3.014   5.327 -0.1887  0.2252 -0.5474
 9888TIP3    H151079   5.894   2.951   5.398  0.3904 -0.6380 -1.3354
 9888TIP3    H251080   5.977   3.051   5.321  0.2780 -1.0069 -1.9447
 9889TIP3   OH251081   5.690   4.975  13.350  0.3712 -0.1757  0.2694
 9889TIP3    H151082   5.655   4.905  13.404  1.3056  0.9600  2.4918
 9889TIP3    H251083   5.636   4.975  13.271 -1.6797 -1.3174  1.6037
 9890TIP3   OH251084   3.429   4.454  17.143 -0.8242  0.0436  0.0127
 9890TIP3    H151085   3.373   4.517  17.098 -0.5221  0.1793 -0.1754
 9890TIP3    H251086   3.519   4.481  17.121 -0.6991 -1.3380 -1.2979
 9891TIP3   OH251087   4.670   5.257  14.997 -0.7826  0.4540  0.1192
 9891TIP3    H151088   4.750   5.280  15.044  0.0807  2.1192 -2.0018
 9891TIP3    H251089   4.644   5.338  14.952 -0.8468 -1.2425 -3.1903
 9892TIP3   OH251090   3.369   4.624  12.770 -0.2812 -0.3114  0.2679
 9892TIP3    H151091   3.386   4.622  12.865  0.8294  0.1442  0.0963
 9892TIP3    H251092   3.454   4.646  12.731 -1.1117  1.3357 -0.7262
 9893TIP3   OH251093   5.399   0.009  13.366 -0.2837  0.8208  0.0738
 9893TIP3    H151094   5.304   0.003  13.376 -0.5384  2.1497 -1.0975
 9893TIP3    H251095   5.413   0.096  13.328  1.4635  0.9215  0.8687
 9894TIP3   OH251096   3.729   4.250   2.141  0.4261 -0.4178  0.1020
 9894TIP3    H151097   3.741   4.345   2.147  2.0255 -0.6925  3.1186
 9894TIP3    H251098   3.634   4.238   2.137  0.0822  1.2823  1.9111
 9895TIP3   OH251099   4.600   3.659  14.056  0.1136  0.4483  0.2244
 9895TIP3    H151100   4.679   3.707  14.079  0.1376 -0.2979  1.8498
 9895TIP3    H251101   4.631   3.575  14.022  0.0670  1.4096 -2.4182
 9896TIP3   OH251102   2.580   3.295   4.741 -0.2207 -0.3950 -0.1581
 9896TIP3    H151103   2.500   3.348   4.745 -0.9749 -1.2573 -2.2380
 9896TIP3    H251104   2.549   3.208   4.716  1.2597 -1.1482  0.4999
 9897TIP3   OH251105   2.222   6.346  11.918 -0.1506  0.2042 -0.2657
 9897TIP3    H151106   2.170   6.373  11.993 -0.1293  0.5708 -0.3812
 9897TIP3    H251107   2.164   6.288  11.868 -0.2920  0.2542 -0.1602
 9898TIP3   OH251108   4.458   4.338   1.287  0.0388 -0.0759 -0.2492
 9898TIP3    H151109   4.523   4.326   1.357  1.3626  0.9792 -1.2401
 9898TIP3    H251110   4.458   4.255   1.240  2.9462  0.7591 -2.0179
 9899TIP3   OH251111   3.118   0.405  14.390  0.0540 -0.9374  0.0028
 9899TIP3    H151112   3.158   0.467  14.450 -0.7486 -0.5140  0.1224
 9899TIP3    H251113   3.033   0.383  14.430  0.0191 -1.5633 -0.3891
 9900TIP3   OH251114   0.006   2.444   0.903  0.5311  0.3589  0.1209
 9900TIP3    H151115   0.024   2.353   0.883  0.4775  0.3473  0.1242
 9900TIP3    H251116   0.017   2.490   0.819 -1.5469  0.0303 -0.4088
 9901TIP3   OH251117   2.263   1.529  12.123  0.2620 -0.1720 -0.0168
 9901TIP3    H151118   2.212   1.538  12.204  0.5126 -0.2551  0.1493
 9901TIP3    H251119   2.198   1.504  12.057  0.2273 -1.1709  0.3833
 9902TIP3   OH251120   5.375   6.067   1.985 -0.0106  0.4589 -0.3104
 9902TIP3    H151121   5.298   6.035   1.937  0.0667 -0.1383 -0.0401
 9902TIP3    H251122   5.342   6.084   2.073 -0.2383  1.9041 -0.6426
 9903TIP3   OH251123   5.736   3.114   4.564  0.0006 -0.1108  0.3132
 9903TIP3    H151124   5.663   3.141   4.620 -0.1111  2.3481 -0.8840
 9903TIP3    H251125   5.772   3.196   4.530  0.6470 -1.4199 -2.4562
 9904TIP3   OH251126   1.699   0.911   4.790  0.8012 -0.3708  0.3715
 9904TIP3    H151127   1.664   0.826   4.818  1.4411 -0.2695  1.5583
 9904TIP3    H251128   1.642   0.976   4.830  0.3382 -0.2198 -0.5007
 9905TIP3   OH251129   6.342   5.528  14.529 -0.2638  0.0417 -0.3470
 9905TIP3    H151130   6.327   5.520  14.623  2.2223  0.1957  0.1583
 9905TIP3    H251131   6.435   5.553  14.522 -0.4967  0.5346 -2.8273
 9906TIP3   OH251132   6.585   0.197   1.500 -0.0178 -0.1751  0.3270
 9906TIP3    H151133   6.588   0.207   1.405 -0.1758 -0.3170  0.3076
 9906TIP3    H251134   6.493   0.180   1.520 -0.2101  1.1380  0.6345
 9907TIP3   OH251135   6.601   6.416  11.134  0.2463 -0.2771  0.4501
 9907TIP3    H151136   6.542   6.355  11.090 -0.8943  0.7616  0.5115
 9907TIP3    H251137   6.551   6.449  11.208  0.2722  1.8454 -0.4234
 9908TIP3   OH251138   6.202   5.801   5.030 -0.0216  0.0420  0.0179
 9908TIP3    H151139   6.143   5.876   5.030 -2.6627 -1.7593  2.9342
 9908TIP3    H251140   6.157   5.736   4.975  0.3745 -0.6057  0.4487
 9909TIP3   OH251141   1.686   4.198  14.015 -0.0221 -0.1309 -0.1305
 9909TIP3    H151142   1.712   4.245  13.936  1.6704 -1.2410 -0.2831
 9909TIP3    H251143   1.709   4.257  14.087  3.3834 -1.1238 -0.2432
 9910TIP3   OH251144   3.432   3.248   0.511  0.0238  0.5664  0.2727
 9910TIP3    H151145   3.424   3.293   0.426  0.0685  0.9136  0.4512
 9910TIP3    H251146   3.368   3.177   0.506  0.2747  0.3651 -0.1936
 9911TIP3   OH251147   4.145   0.063   2.467 -0.1322  0.3120  0.4115
 9911TIP3    H151148   4.129  -0.026   2.498  1.2414  0.8204  2.8019
 9911TIP3    H251149   4.120   0.119   2.541  1.2517  1.7510 -0.1609
 9912TIP3   OH251150   0.830   1.174  12.815 -0.3464  0.3950  0.0453
 9912TIP3    H151151   0.867   1.111  12.877 -1.0086  0.4161  0.4666
 9912TIP3    H251152   0.736   1.162  12.822 -0.4150 -0.1892 -1.5783
 9913TIP3   OH251153   5.490   6.134  11.074 -0.3859 -0.4664 -0.1832
 9913TIP3    H151154   5.584   6.124  11.060 -0.3242 -0.1186 -0.0180
 9913TIP3    H251155   5.471   6.076  11.148 -0.1908 -0.0800  0.1740
 9914TIP3   OH251156   0.298   5.091  16.634  0.0316  0.1021  0.3273
 9914TIP3    H151157   0.266   5.091  16.724  1.6325  0.9391  0.9559
 9914TIP3    H251158   0.262   5.012  16.594 -1.1354  0.0002  1.5428
 9915TIP3   OH251159   0.516   1.502  12.976  0.4480 -0.0740 -0.5490
 9915TIP3    H151160   0.545   1.593  12.982  0.5631 -0.1470 -0.0154
 9915TIP3    H251161   0.586   1.457  12.929 -0.7677  0.6305 -3.2765
 9916TIP3   OH251162   5.246   1.206  13.813  0.0736  0.6979 -0.3209
 9916TIP3    H151163   5.299   1.148  13.868 -0.8435  1.2638  1.2383
 9916TIP3    H251164   5.163   1.160  13.802  0.3778  0.4280 -1.5761
 9917TIP3   OH251165   5.120   0.814  11.315 -0.1043 -0.0100  0.0567
 9917TIP3    H151166   5.131   0.831  11.409 -0.9668  1.6020 -0.0896
 9917TIP3    H251167   5.056   0.879  11.287  0.3209 -0.3079 -1.7054
 9918TIP3   OH251168   6.119   6.011   4.042  0.4801 -0.3229  0.2378
 9918TIP3    H151169   6.130   5.941   3.978  0.2714 -2.5635  2.5180
 9918TIP3    H251170   6.207   6.031   4.072  0.5615  0.5945 -0.5743
 9919TIP3   OH251171   6.664   4.941  12.106 -0.6320  0.3439 -0.7764
 9919TIP3    H151172   6.633   4.989  12.182  0.4578  0.5140 -0.4163
 9919TIP3    H251173   6.637   4.850  12.122 -0.3188  0.3562 -0.1180
 9920TIP3   OH251174   2.005   4.909   4.713 -0.7473 -0.3002 -0.3438
 9920TIP3    H151175   2.035   4.975   4.651 -0.6954 -0.1700 -0.1813
 9920TIP3    H251176   1.918   4.940   4.741  0.5899  1.4738  2.2324
 9921TIP3   OH251177   5.041   5.963   2.376 -0.4768  0.6650  0.4042
 9921TIP3    H151178   4.996   5.903   2.435 -1.5980 -0.2628 -1.3132
 9921TIP3    H251179   4.972   6.024   2.347  0.0097  0.9872 -0.0906
 9922TIP3   OH251180   4.427   3.540   3.869  0.2156  0.1289  0.1854
 9922TIP3    H151181   4.522   3.556   3.872  0.1377  0.8277 -0.7568
 9922TIP3    H251182   4.388   3.622   3.898 -0.1093 -0.3817  1.2400
 9923TIP3   OH251183   0.567   2.934  11.024 -0.2140  0.5492  0.1229
 9923TIP3    H151184   0.659   2.911  11.036  0.2898  2.2514 -0.1840
 9923TIP3    H251185   0.560   2.956  10.931 -0.7504  1.1017  0.2868
 9924TIP3   OH251186   2.188   1.616  14.388 -0.0272  0.0874 -0.2855
 9924TIP3    H151187   2.229   1.691  14.345 -0.0936  1.2733  1.6079
 9924TIP3    H251188   2.145   1.652  14.465 -1.1422 -1.7358  0.0185
 9925TIP3   OH251189   2.519   5.130  10.846  0.1397 -0.4560 -0.3900
 9925TIP3    H151190   2.587   5.065  10.863  0.6526 -0.9726 -3.6823
 9925TIP3    H251191   2.438   5.080  10.837  0.1066 -0.3529 -0.6718
 9926TIP3   OH251192   2.160   0.074  12.426  0.3010  0.3988  0.4163
 9926TIP3    H151193   2.078   0.025  12.414  0.9271 -0.4915 -0.4083
 9926TIP3    H251194   2.198   0.038  12.506  0.0575  0.5750  0.6145
 9927TIP3   OH251195   0.722   1.585   0.290  0.0672  0.1382  0.7168
 9927TIP3    H151196   0.809   1.623   0.281  0.7586 -1.3566  0.8592
 9927TIP3    H251197   0.670   1.627   0.221  1.2000  0.1982 -0.1217
 9928TIP3   OH251198   3.714   5.353  12.377  0.1015 -0.2989 -0.7837
 9928TIP3    H151199   3.780   5.345  12.446  1.1659 -0.8718 -1.8409
 9928TIP3    H251200   3.648   5.412  12.414  2.2459  2.0796 -0.4467
 9929TIP3   OH251201   4.391   2.133   1.801 -0.3029 -0.2837 -0.4932
 9929TIP3    H151202   4.303   2.121   1.837  0.1872  0.3993  1.0235
 9929TIP3    H251203   4.398   2.227   1.785  0.0546 -0.3756 -0.9067
 9930TIP3   OH251204   2.915   5.839   0.667  0.0492 -0.1163  0.0074
 9930TIP3    H151205   2.979   5.809   0.602 -1.1465 -2.1622 -0.3196
 9930TIP3    H251206   2.922   5.776   0.739 -0.5590  0.5060  0.6335
 9931TIP3   OH251207   3.365   2.616   1.263  0.2081  0.2930 -0.6304
 9931TIP3    H151208   3.364   2.615   1.168  1.9035 -0.1930 -0.6694
 9931TIP3    H251209   3.456   2.603   1.287  0.1276  2.2249  1.0645
 9932TIP3   OH251210   4.863   5.573   5.131  0.1546  0.5326  0.1700
 9932TIP3    H151211   4.859   5.616   5.216  1.2462  2.8791 -0.8649
 9932TIP3    H251212   4.957   5.560   5.115 -0.0995 -1.5691  0.0525
 9933TIP3   OH251213   4.440   5.941   1.155  0.1359 -0.0091 -0.0705
 9933TIP3    H151214   4.400   6.028   1.159 -0.4806 -0.3101  0.5572
 9933TIP3    H251215   4.412   5.905   1.071  0.1556  0.2908 -0.2037
 9934TIP3   OH251216   4.483   6.565  11.403 -0.2589 -0.7046 -0.1859
 9934TIP3    H151217   4.512   6.507  11.332 -0.9223 -1.7971  0.4091
 9934TIP3    H251218   4.560   6.575  11.458  0.1183 -0.2667 -0.7773
 9935TIP3   OH251219   1.874   1.295   0.868 -0.2274 -0.8107 -0.1239
 9935TIP3    H151220   1.868   1.233   0.795 -0.0101 -0.9133 -0.0535
 9935TIP3    H251221   1.938   1.257   0.928 -0.0500 -0.4929 -0.1081
 9936TIP3   OH251222   6.757   5.241  16.265 -0.0919 -0.2100  0.0736
 9936TIP3    H151223   6.820   5.207  16.201 -0.2436  1.2109 -0.8754
 9936TIP3    H251224   6.807   5.246  16.347  0.3781 -1.1942 -0.1446
 9937TIP3   OH251225   1.999   2.798   0.499  0.1067  0.0358  0.1340
 9937TIP3    H151226   2.059   2.724   0.494  0.4353  0.3130 -0.0538
 9937TIP3    H251227   1.944   2.788   0.421  1.1917  0.8761 -0.7710
 9938TIP3   OH251228   6.380   4.967  15.836  0.6869  0.0766 -0.8363
 9938TIP3    H151229   6.323   4.913  15.781 -0.3257  2.0864 -1.8703
 9938TIP3    H251230   6.341   4.962  15.924  0.6038 -0.8317 -0.9204
 9939TIP3   OH251231   6.410   1.726   3.532  0.9773 -0.1115  0.2194
 9939TIP3    H151232   6.349   1.679   3.475  0.3431  1.1620 -0.2077
 9939TIP3    H251233   6.497   1.703   3.498  0.7437 -1.7108  0.6453
 9940TIP3   OH251234   0.612   1.712   4.710 -0.0254 -0.4601  0.0243
 9940TIP3    H151235   0.616   1.640   4.774 -0.2300 -0.0149  0.5491
 9940TIP3    H251236   0.537   1.691   4.656  1.1932 -1.7826 -1.2400
 9941TIP3   OH251237   0.212   0.366   1.238  0.0360 -0.6445 -0.4798
 9941TIP3    H151238   0.169   0.400   1.317  1.3388 -0.7790  0.3230
 9941TIP3    H251239   0.291   0.419   1.230 -0.2925 -0.3416 -1.9707
 9942TIP3   OH251240   1.351   6.191   1.308  0.1368 -0.1104 -0.7108
 9942TIP3    H151241   1.405   6.160   1.382  1.5769 -1.3581 -2.2079
 9942TIP3    H251242   1.412   6.196   1.235 -0.5745  3.8985 -1.2587
 9943TIP3   OH251243   2.437   2.824  13.690 -0.1704  0.1955 -0.1783
 9943TIP3    H151244   2.456   2.835  13.784 -1.1734  1.8857 -0.1263
 9943TIP3    H251245   2.494   2.888  13.647 -2.4848  2.2864 -0.3474
 9944TIP3   OH251246   4.470   3.618   1.466 -0.3878 -0.2045 -0.2117
 9944TIP3    H151247   4.563   3.603   1.483 -0.9453 -1.9892  1.5828
 9944TIP3    H251248   4.446   3.692   1.522 -0.3019 -0.5131  0.2356
 9945TIP3   OH251249   3.067   5.324   2.591  0.3650 -0.2436 -0.5297
 9945TIP3    H151250   3.012   5.253   2.556 -0.5834  0.2797 -0.1206
 9945TIP3    H251251   3.017   5.359   2.664  0.4486  1.3980 -1.2281
 9946TIP3   OH251252   5.076   2.210   1.520 -0.2211 -0.5494 -0.2737
 9946TIP3    H151253   5.119   2.288   1.484  0.1244 -1.0972 -1.0692
 9946TIP3    H251254   5.104   2.208   1.612  0.5310 -0.2620 -0.4881
 9947TIP3   OH251255   1.478   1.305  11.416  0.3104  0.1172  0.1516
 9947TIP3    H151256   1.503   1.368  11.483  0.1699 -0.5058  0.7996
 9947TIP3    H251257   1.561   1.276  11.378  0.4271 -0.0411  0.5312
 9948TIP3   OH251258   5.633   6.143   1.357  0.5763  0.0669 -0.3862
 9948TIP3    H151259   5.611   6.191   1.277  0.4673  0.5576 -0.0608
 9948TIP3    H251260   5.723   6.115   1.344  0.2967 -0.5790 -1.0418
 9949TIP3   OH251261   0.167   2.185   2.063  0.2783  0.0549  0.1202
 9949TIP3    H151262   0.229   2.131   2.112 -1.3800 -1.1329  1.0328
 9949TIP3    H251263   0.085   2.176   2.110 -0.9852  0.2800 -1.9008
 9950TIP3   OH251264   3.152   1.545  15.832  0.2443  0.0524 -0.1485
 9950TIP3    H151265   3.118   1.456  15.818  0.3139  0.1224 -0.7848
 9950TIP3    H251266   3.073   1.600  15.835  0.1789 -0.0730  0.6133
 9951TIP3   OH251267   5.482   5.150   0.594  0.2106  0.3100 -0.9361
 9951TIP3    H151268   5.494   5.231   0.545 -1.0069  0.7483 -0.5285
 9951TIP3    H251269   5.443   5.177   0.677  0.5766 -0.6134 -0.4403
 9952TIP3   OH251270   5.751   5.959  15.825 -0.3293  0.0137 -0.4762
 9952TIP3    H151271   5.789   5.992  15.744 -0.7722 -1.3929 -1.2882
 9952TIP3    H251272   5.664   5.927  15.799 -0.5592 -0.2663  0.5959
 9953TIP3   OH251273   3.129   4.103  12.907 -0.0719  0.2718  0.6063
 9953TIP3    H151274   3.204   4.140  12.953 -0.1561  0.7783  0.3528
 9953TIP3    H251275   3.156   4.102  12.815 -0.3420  0.3749  0.5255
 9954TIP3   OH251276   5.943   3.392  14.181 -0.2827 -0.2328  0.1439
 9954TIP3    H151277   5.962   3.485  14.188 -2.2423  0.1804  0.4174
 9954TIP3    H251278   5.988   3.353  14.256 -0.5202  0.6816  0.7752
 9955TIP3   OH251279   4.201   1.094  14.579  0.9489  0.0658  0.1870
 9955TIP3    H151280   4.225   1.107  14.488 -0.5723  1.8697 -0.0206
 9955TIP3    H251281   4.131   1.030  14.577 -0.0583  1.1472 -0.0919
 9956TIP3   OH251282   6.341   6.652  16.743 -0.1978 -0.7840  0.3762
 9956TIP3    H151283   6.312   6.562  16.761 -0.9457 -0.6427 -0.0911
 9956TIP3    H251284   6.303   6.673  16.657  2.5118 -1.1281 -1.0367
 9957TIP3   OH251285   3.438   1.194  17.166  0.5227  0.0828 -0.6279
 9957TIP3    H151286   3.445   1.289  17.160  0.3134  0.2168  0.9246
 9957TIP3    H251287   3.395   1.178  17.250  1.9444 -1.4408 -0.1471
 9958TIP3   OH251288   1.511   6.546  13.060 -0.0540  0.0172 -0.2207
 9958TIP3    H151289   1.440   6.610  13.058 -1.3896 -1.3919 -1.5428
 9958TIP3    H251290   1.575   6.579  12.997 -1.6417 -0.8260 -2.4103
 9959TIP3   OH251291   2.141   4.100  15.243 -0.0323  0.0919 -0.3833
 9959TIP3    H151292   2.163   4.016  15.284 -1.8395  0.9574  2.7064
 9959TIP3    H251293   2.194   4.164  15.291  0.9330  0.8590 -2.3497
 9960TIP3   OH251294   4.904   5.570  15.235 -0.3080 -0.3764 -0.7013
 9960TIP3    H151295   4.955   5.611  15.165  0.2574 -0.8304 -0.5602
 9960TIP3    H251296   4.817   5.609  15.227  0.6336  2.2569  0.5421
 9961TIP3   OH251297   5.319   3.045   2.574  0.1955  0.5034 -0.2765
 9961TIP3    H151298   5.277   2.965   2.543 -0.4970  1.0325 -0.7326
 9961TIP3    H251299   5.247   3.107   2.585  0.8930  1.6239 -1.6553
 9962TIP3   OH251300   6.513   1.303  13.875 -0.0497 -0.1300 -0.4323
 9962TIP3    H151301   6.506   1.211  13.901  0.6916 -0.1694 -0.3375
 9962TIP3    H251302   6.516   1.300  13.779  0.6513 -0.2629 -0.4098
 9963TIP3   OH251303   5.625   1.755  14.810 -0.0680 -0.1404  0.1376
 9963TIP3    H151304   5.537   1.762  14.848  0.1226 -0.3501  0.6235
 9963TIP3    H251305   5.634   1.662  14.790 -0.6180  0.1324 -1.5262
 9964TIP3   OH251306   2.255   2.308  14.572  0.5059  0.0859  0.0173
 9964TIP3    H151307   2.202   2.248  14.519  2.3683  0.1495 -2.0764
 9964TIP3    H251308   2.232   2.395  14.539 -1.4441  0.5539  2.3543
 9965TIP3   OH251309   3.238   4.401   2.775 -0.3886  0.1191  0.5055
 9965TIP3    H151310   3.205   4.488   2.798  0.0859  0.1193  1.2129
 9965TIP3    H251311   3.204   4.343   2.844 -1.3327 -0.4042 -0.3667
 9966TIP3   OH251312   6.631   3.857   0.364  0.0800  0.6241 -0.3763
 9966TIP3    H151313   6.607   3.840   0.273 -0.7267 -1.0485  0.1261
 9966TIP3    H251314   6.688   3.784   0.388  1.3249  1.7076  0.1174
 9967TIP3   OH251315   1.762   2.233  12.193 -0.1253  0.0722 -0.2878
 9967TIP3    H151316   1.783   2.153  12.241 -0.9037  0.4662  0.7484
 9967TIP3    H251317   1.825   2.297  12.225 -0.9558  0.4652  0.6030
 9968TIP3   OH251318   3.445   5.689   5.037  0.2216 -0.1817  0.6162
 9968TIP3    H151319   3.380   5.623   5.012 -0.0165  1.2067 -3.1066
 9968TIP3    H251320   3.523   5.666   4.988  1.0954  0.7002  1.5446
 9969TIP3   OH251321   1.083   4.760   2.885 -0.3751 -0.0350 -0.6401
 9969TIP3    H151322   0.992   4.729   2.889  0.3683 -2.2874  1.3217
 9969TIP3    H251323   1.096   4.783   2.793 -2.6910 -0.3603 -1.1249
 9970TIP3   OH251324   6.463   1.268  14.643 -0.0826  0.0055 -0.0542
 9970TIP3    H151325   6.401   1.201  14.612  0.7616  0.2331 -2.4462
 9970TIP3    H251326   6.530   1.272  14.575  1.6989  0.9443  1.6693
 9971TIP3   OH251327   1.029   1.433  16.315 -0.0076 -0.1210 -0.3326
 9971TIP3    H151328   0.945   1.463  16.279 -0.0824  0.2613  0.1525
 9971TIP3    H251329   1.005   1.363  16.376  0.0349 -0.1272 -0.3237
 9972TIP3   OH251330   4.895   0.441   5.423  0.1186  0.2862 -0.4218
 9972TIP3    H151331   4.817   0.414   5.374  0.3622 -0.2064 -0.5494
 9972TIP3    H251332   4.865   0.511   5.480 -0.5012 -0.1321 -0.2193
 9973TIP3   OH251333   1.361   2.262   6.638  0.0119  0.2759 -0.0980
 9973TIP3    H151334   1.390   2.243   6.728 -1.4028 -2.3640 -0.1216
 9973TIP3    H251335   1.270   2.234   6.635  1.0870 -3.8162 -3.4117
 9974TIP3   OH251336   2.762   0.137   0.127  0.0206  0.2756 -0.2073
 9974TIP3    H151337   2.837   0.142   0.186 -0.6749  2.3920  0.5829
 9974TIP3    H251338   2.783   0.199   0.057 -0.1437 -0.5848 -1.0378
 9975TIP3   OH251339   4.175   2.049   2.731 -0.5676  0.2710  0.5267
 9975TIP3    H151340   4.183   2.099   2.650 -1.6339  1.2830  1.0278
 9975TIP3    H251341   4.139   1.964   2.703 -1.4948  0.8218  0.0014
 9976TIP3   OH251342   1.837   0.863   3.295 -0.0985  0.3243  0.1982
 9976TIP3    H151343   1.783   0.941   3.313 -0.6458 -0.1850  0.8214
 9976TIP3    H251344   1.798   0.823   3.218  0.3952  0.8454 -0.3340
 9977TIP3   OH251345   3.313   1.733   2.326  0.2807 -0.3932  0.0396
 9977TIP3    H151346   3.236   1.789   2.339  1.4132  0.9006  1.5397
 9977TIP3    H251347   3.372   1.785   2.272  1.2098 -0.2284  1.1747
 9978TIP3   OH251348   4.525   4.007   3.454  0.3727  0.3591  0.2114
 9978TIP3    H151349   4.482   4.091   3.470 -0.1776  0.1811 -0.2708
 9978TIP3    H251350   4.459   3.942   3.477  0.3267  0.0810 -0.6718
 9979TIP3   OH251351   4.728   2.600   5.844 -0.0960 -0.2552 -0.0130
 9979TIP3    H151352   4.719   2.506   5.827 -1.8419 -0.1090 -0.0575
 9979TIP3    H251353   4.815   2.622   5.811  0.4186 -1.8911  0.1840
 9980TIP3   OH251354   4.050   2.484   3.363  0.4161 -0.7724 -0.0389
 9980TIP3    H151355   3.988   2.557   3.355  0.1829 -0.6701  1.9854
 9980TIP3    H251356   4.004   2.420   3.417  0.3804 -2.7591 -2.3093
 9981TIP3   OH251357   0.063   0.887  14.366  0.2281  0.3033  0.0435
 9981TIP3    H151358   0.157   0.901  14.381  0.5183 -1.7810  0.5194
 9981TIP3    H251359   0.059   0.802  14.321 -1.4299  0.4526 -0.1537
 9982TIP3   OH251360   3.043   1.111  11.823  0.0291 -0.0236  0.0309
 9982TIP3    H151361   3.120   1.063  11.854  1.2145  1.1053 -1.0371
 9982TIP3    H251362   3.045   1.100  11.728 -1.6364 -0.6674  0.0407
 9983TIP3   OH251363   5.411   6.679   1.046 -0.2605  0.1692  0.0113
 9983TIP3    H151364   5.441   6.644   1.130  1.5631  0.7497 -0.3492
 9983TIP3    H251365   5.320   6.649   1.039 -0.3936 -0.0766  2.0714
 9984TIP3   OH251366   4.199   6.768  14.362  0.2292 -1.4410  0.2742
 9984TIP3    H151367   4.234   6.724  14.284 -0.6085 -0.7576 -0.5011
 9984TIP3    H251368   4.258   6.842  14.376 -0.9380 -0.1707 -1.1553
 9985TIP3   OH251369   5.879   0.264   3.894 -0.1650 -0.2412  0.2078
 9985TIP3    H151370   5.856   0.323   3.966 -1.8999  0.0261 -0.5320
 9985TIP3    H251371   5.906   0.183   3.938 -0.0757  0.2891  1.1749
 9986TIP3   OH251372   5.985   1.895   2.836  0.3061 -0.9182  0.0849
 9986TIP3    H151373   5.896   1.927   2.846 -0.0517 -2.0424  0.6444
 9986TIP3    H251374   6.004   1.851   2.919  0.7885 -2.0972 -0.6327
 9987TIP3   OH251375   3.657   3.568  13.947  0.3519  0.4563 -0.2543
 9987TIP3    H151376   3.716   3.638  13.919  0.5578  0.3828  0.0012
 9987TIP3    H251377   3.697   3.488  13.913  1.0294  0.2748  0.9225
 9988TIP3   OH251378   3.739   6.040   2.137  0.5818  0.2010 -0.0240
 9988TIP3    H151379   3.813   6.016   2.192  0.2274 -0.4439  0.1819
 9988TIP3    H251380   3.712   6.126   2.169  0.4505 -0.1171  0.7457
 9989TIP3   OH251381   1.329   5.515  14.914 -0.2119 -0.1898  0.5216
 9989TIP3    H151382   1.413   5.469  14.910  0.5058  1.0796  0.2952
 9989TIP3    H251383   1.312   5.524  15.008 -0.5447 -1.2150  0.5686
 9990TIP3   OH251384   4.344   5.668  16.911 -0.4853  0.1452 -0.0666
 9990TIP3    H151385   4.296   5.589  16.885 -0.8217  0.7076 -1.1952
 9990TIP3    H251386   4.423   5.634  16.953 -1.4881 -0.7942  1.1835
 9991TIP3   OH251387   1.709   2.818  14.064  0.2526 -0.4395  0.4740
 9991TIP3    H151388   1.653   2.742  14.077 -0.9184  0.4970  1.0984
 9991TIP3    H251389   1.654   2.879  14.015  1.6226 -0.4872 -1.2107
 9992TIP3   OH251390   4.921   0.913  11.744  0.2249 -0.4863  0.3877
 9992TIP3    H151391   4.990   0.965  11.703  0.0918  0.6437  1.5622
 9992TIP3    H251392   4.962   0.874  11.821 -0.4212  0.1906  1.0955
 9993TIP3   OH251393   4.117   6.209   5.916 -0.4413  0.1342  0.3057
 9993TIP3    H151394   4.199   6.235   5.959 -0.6091  2.3523 -0.5680
 9993TIP3    H251395   4.145   6.173   5.832 -0.3401  1.5932 -0.3186
 9994TIP3   OH251396   4.768   5.956   2.618 -0.4987  0.3108 -0.1991
 9994TIP3    H151397   4.830   6.027   2.635 -1.0964  1.5130 -2.5338
 9994TIP3    H251398   4.823   5.884   2.586 -0.0949  0.5647 -0.0949
 9995TIP3   OH251399   2.628   1.827  13.812  0.0930 -0.8022 -0.0765
 9995TIP3    H151400   2.719   1.808  13.835 -0.0667 -0.2415  1.0592
 9995TIP3    H251401   2.578   1.755  13.851 -0.2985  0.7461  2.4714
 9996TIP3   OH251402   4.757   5.371   2.435  0.5843 -1.2611  0.4127
 9996TIP3    H151403   4.749   5.388   2.529 -2.2825 -0.2290  0.0918
 9996TIP3    H251404   4.676   5.326   2.412  1.5565 -2.1728 -1.4693
 9997TIP3   OH251405   1.807   2.811   5.135 -0.3183  0.2120  0.0978
 9997TIP3    H151406   1.801   2.856   5.051 -3.1183  0.6001  0.4251
 9997TIP3    H251407   1.736   2.747   5.133  0.9350 -1.3077  1.3454
 9998TIP3   OH251408   5.369   1.410   6.085  0.5084  0.4177 -0.0239
 9998TIP3    H151409   5.370   1.494   6.132  0.2405  0.5648 -0.2750
 9998TIP3    H251410   5.325   1.430   6.002  0.2055 -0.0321  0.0255
 9999TIP3   OH251411   0.749   0.322  13.523 -0.1000 -0.2686 -0.1702
 9999TIP3    H151412   0.799   0.287  13.449  1.7930  2.4153 -0.3174
 9999TIP3    H251413   0.814   0.334  13.592 -0.6454  2.3563 -0.0054
10000TIP3   OH251414   2.114   3.963   0.839  0.1834 -0.0836 -0.2277
10000TIP3    H151415   2.148   3.986   0.926  0.7492 -0.2232 -0.4091
10000TIP3    H251416   2.125   4.042   0.787  1.9444 -0.6347 -0.7951
10001TIP3   OH251417   3.782   6.725   6.107 -0.4354  0.1457 -0.3987
10001TIP3    H151418   3.689   6.706   6.122 -0.2895  0.3522  0.8938
10001TIP3    H251419   3.828   6.664   6.165  0.1232  2.1475  1.3667
10002TIP3   OH251420   3.600   5.074  11.052 -0.4021 -0.1762  0.0299
10002TIP3    H151421   3.607   4.986  11.016  2.0822 -0.2465  0.4680
10002TIP3    H251422   3.598   5.132  10.976  1.5768 -0.4837 -0.3036
10003TIP3   OH251423   4.872   2.084  11.848  0.2481  0.2448 -0.9301
10003TIP3    H151424   4.799   2.140  11.872 -0.9874 -1.1619 -1.2693
10003TIP3    H251425   4.950   2.133  11.875 -0.7973  1.8111 -0.6363
10004TIP3   OH251426   5.349   1.750   5.177 -0.1439 -0.0427  0.0946
10004TIP3    H151427   5.398   1.744   5.095  0.5629  0.9220  0.4249
10004TIP3    H251428   5.394   1.691   5.237  0.1150  0.2254  0.1625
10005TIP3   OH251429   3.828   2.713  15.891 -0.2865  0.2093  0.0484
10005TIP3    H151430   3.772   2.696  15.815  0.1849  0.9032 -0.4657
10005TIP3    H251431   3.771   2.701  15.967 -0.6439 -0.9812 -0.3857
10006TIP3   OH251432   5.613   1.331   2.189  0.7081 -0.3424  0.2098
10006TIP3    H151433   5.629   1.280   2.269 -1.9223 -0.7637  0.5729
10006TIP3    H251434   5.587   1.417   2.221  0.3427 -0.2914 -0.2141
10007TIP3   OH251435   6.156   2.627  15.637  0.1868 -0.5385  0.0679
10007TIP3    H151436   6.206   2.546  15.650  1.5225  0.4120  1.2003
10007TIP3    H251437   6.178   2.653  15.547  0.1759 -1.1324 -0.1175
10008TIP3   OH251438   3.050   4.674  15.719  0.6882 -0.5205  0.2249
10008TIP3    H151439   2.978   4.738  15.719  1.0387 -0.1192  0.4910
10008TIP3    H251440   3.084   4.676  15.630 -0.7086 -1.9590 -0.3901
10009TIP3   OH251441   6.206   1.689  12.939 -0.2243 -0.1811 -0.6002
10009TIP3    H151442   6.276   1.700  12.874 -0.7976  2.4323 -0.8711
10009TIP3    H251443   6.151   1.619  12.903  2.2991 -2.5107 -0.2546
10010TIP3   OH251444   1.871   3.348   2.811  0.0794  0.1794 -0.0877
10010TIP3    H151445   1.882   3.363   2.905 -0.2555  1.5217 -0.2322
10010TIP3    H251446   1.810   3.274   2.804  1.6219 -1.2196  0.7231
10011TIP3   OH251447   0.539   4.525  15.631 -0.2770 -0.1518  0.0219
10011TIP3    H151448   0.623   4.507  15.674 -0.8712 -0.3029  1.1688
10011TIP3    H251449   0.484   4.562  15.700 -1.2939 -0.4558 -0.5987
10012TIP3   OH251450   3.576   1.226   6.695 -0.0355  0.6206 -0.0843
10012TIP3    H151451   3.544   1.255   6.781 -0.4299 -0.4907  0.1541
10012TIP3    H251452   3.497   1.222   6.640 -0.4961 -2.6078  0.6367
10013TIP3   OH251453   1.586   5.535   5.060  0.0927  0.3793 -0.4822
10013TIP3    H151454   1.627   5.612   5.098  1.9087 -0.9825  0.5196
10013TIP3    H251455   1.531   5.500   5.131 -0.3729  0.5056 -0.7780
10014TIP3   OH251456   2.083   4.981   2.623 -0.4309  0.2037 -0.1305
10014TIP3    H151457   2.118   4.926   2.552  0.7372  1.4501 -0.5569
10014TIP3    H251458   1.988   4.966   2.619 -0.2328 -1.0617 -0.8343
10015TIP3   OH251459   6.472   4.367   3.266 -0.1584 -0.8234 -0.3681
10015TIP3    H151460   6.462   4.358   3.171  0.6929 -0.1652 -0.5385
10015TIP3    H251461   6.419   4.297   3.303 -2.9514  0.7036 -1.2302
10016TIP3   OH251462   4.427   0.689  12.780  0.0928 -0.0027 -0.3519
10016TIP3    H151463   4.404   0.596  12.776  1.4112 -0.4507  1.3989
10016TIP3    H251464   4.451   0.712  12.691  0.4402 -1.5319 -0.6760
10017TIP3   OH251465   4.815   0.615   2.062 -0.2413  0.0581 -0.0204
10017TIP3    H151466   4.843   0.524   2.048  1.7803  0.1812  2.5553
10017TIP3    H251467   4.868   0.645   2.135 -2.7103  2.5256  0.8949
10018TIP3   OH251468   0.305   1.884  15.252 -0.2158  0.0285  0.8757
10018TIP3    H151469   0.395   1.853  15.254  0.3789  1.3249 -1.2666
10018TIP3    H251470   0.313   1.980  15.246 -1.5641  0.0736 -1.8741
10019TIP3   OH251471   2.106   2.558   3.951 -0.7464  0.0913 -0.1651
10019TIP3    H151472   2.108   2.465   3.973 -1.0843  0.0153 -0.4369
10019TIP3    H251473   2.084   2.560   3.858 -1.4630  0.4518 -0.0016
10020TIP3   OH251474   1.168   3.933  15.879  0.1910  0.6823 -0.0479
10020TIP3    H151475   1.190   3.974  15.962 -2.2864  0.5575  0.7639
10020TIP3    H251476   1.112   3.859  15.903  0.1345  0.1157 -1.7811
10021TIP3   OH251477   0.988   4.920   6.507 -0.2175  0.6215  0.3887
10021TIP3    H151478   1.076   4.883   6.513 -1.1134 -2.2984 -1.9120
10021TIP3    H251479   0.963   4.937   6.598  2.5413  1.2451  1.1270
10022TIP3   OH251480   6.244   2.355  15.712 -0.6441  0.3828  0.5111
10022TIP3    H151481   6.168   2.317  15.755 -2.2476  1.0291 -1.5807
10022TIP3    H251482   6.288   2.406  15.779 -0.7094 -1.8107  2.3567
10023TIP3   OH251483   4.387   0.477   2.005  0.2501 -0.3538 -0.0204
10023TIP3    H151484   4.451   0.543   2.031 -0.7243  1.6982 -2.4774
10023TIP3    H251485   4.302   0.518   2.021 -0.3797 -0.4052 -2.7830
10024TIP3   OH251486   1.001   5.590   2.688  0.2890  0.0455 -0.4612
10024TIP3    H151487   0.917   5.563   2.725 -0.4922  1.1686 -1.3400
10024TIP3    H251488   0.977   5.642   2.611  1.8139 -0.2500 -1.1595
10025TIP3   OH251489   0.673   1.533   0.748  0.2148 -1.1156  0.4934
10025TIP3    H151490   0.762   1.517   0.717  0.8913  0.7033  1.3848
10025TIP3    H251491   0.633   1.587   0.679  1.3938  2.0740  2.1502
10026TIP3   OH251492   2.499   0.880  16.283  0.4002  0.1187  0.4347
10026TIP3    H151493   2.426   0.835  16.325  0.9398 -0.2082  1.0468
10026TIP3    H251494   2.512   0.833  16.200  2.1250 -2.1449  1.8354
10027TIP3   OH251495   4.403   1.107   1.367  0.0343  0.6337  0.3923
10027TIP3    H151496   4.448   1.025   1.390  0.7747  0.6643 -0.8340
10027TIP3    H251497   4.461   1.176   1.399 -0.1670  0.6737  0.6683
10028TIP3   OH251498   1.453   5.731  17.062  0.2796  0.4464 -0.5002
10028TIP3    H151499   1.448   5.823  17.088 -3.2894  1.0777 -2.7170
10028TIP3    H251500   1.463   5.733  16.967 -4.5742 -1.0823 -1.3410
10029TIP3   OH251501   2.203   2.408  16.936 -0.3700 -0.0438  0.4195
10029TIP3    H151502   2.132   2.387  16.875  0.5221 -1.8160 -0.0784
10029TIP3    H251503   2.266   2.337  16.925  1.8128  1.7781  0.3720
10030TIP3   OH251504   0.493   0.998   3.331 -0.0058  0.0719 -0.0495
10030TIP3    H151505   0.544   1.052   3.391 -0.2421  1.0236 -0.6955
10030TIP3    H251506   0.432   1.059   3.289 -0.3854 -0.7199 -0.6711
10031TIP3   OH251507   2.165   0.796   1.749  0.2737  0.2448 -0.6623
10031TIP3    H151508   2.214   0.876   1.732 -0.0938  1.0663  1.8111
10031TIP3    H251509   2.073   0.822   1.746  0.0133 -0.7283 -2.6321
10032TIP3   OH251510   5.185   5.088   4.021 -0.1634 -0.2625 -0.2134
10032TIP3    H151511   5.242   5.164   4.011  0.4582 -0.5001  1.2942
10032TIP3    H251512   5.106   5.111   3.972  0.4332  0.8998 -0.6697
10033TIP3   OH251513   5.579   0.724  10.388 -0.1384  0.3711 -0.1200
10033TIP3    H151514   5.653   0.673  10.421 -0.5884  0.2056  0.6682
10033TIP3    H251515   5.613   0.813  10.382  0.5786  0.0319 -1.2666
10034TIP3   OH251516   0.001   3.576  12.820 -0.3504  0.1490  0.2380
10034TIP3    H151517   0.007   3.521  12.898 -0.1625 -0.5251 -0.2363
10034TIP3    H251518  -0.034   3.517  12.752 -0.8411  0.8126 -0.0985
10035TIP3   OH251519   1.360   3.920   3.740 -0.2999  0.4107 -0.2113
10035TIP3    H151520   1.455   3.913   3.745 -0.1325  0.1312 -2.6555
10035TIP3    H251521   1.328   3.831   3.750 -0.3775  0.5817  1.2365
10036TIP3   OH251522   2.644   6.624  16.814  0.4229 -0.0813 -0.0077
10036TIP3    H151523   2.593   6.671  16.747  0.2977 -0.4712 -0.1925
10036TIP3    H251524   2.592   6.545  16.832  0.3844  0.0951  0.6614
10037TIP3   OH251525   4.624   0.165  15.620  0.1614  0.0423  0.3626
10037TIP3    H151526   4.570   0.220  15.677 -1.0906  0.5486 -1.2337
10037TIP3    H251527   4.571   0.087  15.605  0.5286 -0.1329 -0.0197
10038TIP3   OH251528   6.681   3.450  11.825  0.5573  0.4225 -0.2625
10038TIP3    H151529   6.627   3.505  11.881 -0.4150 -0.6989 -0.0754
10038TIP3    H251530   6.666   3.361  11.856 -0.1212 -0.2530 -2.3582
10039TIP3   OH251531   6.356   6.040   4.178  0.0681 -0.0748  0.1285
10039TIP3    H151532   6.407   5.959   4.173 -0.6538 -0.5129 -0.2934
10039TIP3    H251533   6.356   6.063   4.271  2.9819  1.2269 -0.0777
10040TIP3   OH251534   4.864   3.754   2.418  0.3685 -0.6919 -0.0847
10040TIP3    H151535   4.823   3.836   2.444  0.6181 -0.1158 -1.4565
10040TIP3    H251536   4.900   3.719   2.500 -1.2344 -0.3174  0.8244
10041TIP3   OH251537   1.794   1.166   2.209  0.5614  0.4621 -0.1452
10041TIP3    H151538   1.704   1.196   2.224  0.8928  0.3435  2.8705
10041TIP3    H251539   1.798   1.080   2.252  2.2934  0.8331  0.5284
10042TIP3   OH251540   4.329   0.077   1.547  0.4980  0.0586 -0.2496
10042TIP3    H151541   4.347  -0.011   1.514 -2.4560 -0.7743  0.0883
10042TIP3    H251542   4.278   0.063   1.626 -0.0949  2.0942 -0.2097
10043TIP3   OH251543   5.056   0.323   1.565  0.3229 -0.2154  0.2144
10043TIP3    H151544   5.004   0.362   1.494  0.6316 -0.3221 -0.0744
10043TIP3    H251545   5.124   0.389   1.584  0.9294 -0.6566 -0.3685
10044TIP3   OH251546   6.532   6.026  12.988 -0.0187  0.1620 -0.5929
10044TIP3    H151547   6.613   6.023  12.938  0.7159  1.9341  0.3965
10044TIP3    H251548   6.516   5.936  13.015  0.3821 -0.5833 -2.6742
10045TIP3   OH251549   5.381   0.544   6.363  0.5139  0.6742 -0.7005
10045TIP3    H151550   5.438   0.467   6.357 -0.8383 -0.3265 -1.0217
10045TIP3    H251551   5.384   0.568   6.456  2.3751  1.4012 -0.8900
10046TIP3   OH251552   1.196   6.391  13.951  0.2434  0.7750  0.1270
10046TIP3    H151553   1.234   6.459  13.896 -0.8203  2.3068  1.2008
10046TIP3    H251554   1.210   6.421  14.041  1.2841 -1.2939  0.7298
10047TIP3   OH251555   5.095   0.277   1.197 -0.4498 -0.0874  0.4535
10047TIP3    H151556   5.121   0.334   1.124  0.7647 -0.1690  0.7985
10047TIP3    H251557   5.078   0.338   1.269 -0.4545 -0.0766  0.4433
10048TIP3   OH251558   4.816   4.801   5.590 -0.0510 -0.0895  0.1960
10048TIP3    H151559   4.818   4.884   5.543  0.6801 -0.6990 -0.8873
10048TIP3    H251560   4.907   4.772   5.594 -0.4230 -1.4999 -0.6759
10049TIP3   OH251561   0.626   0.938   5.090 -0.0802  0.4030 -0.3352
10049TIP3    H151562   0.553   0.897   5.044 -0.5267  0.6362  0.1644
10049TIP3    H251563   0.704   0.904   5.045 -0.4687 -0.3177 -0.4812
10050TIP3   OH251564   4.229   2.069   5.628  0.2115 -0.0099  0.2242
10050TIP3    H151565   4.321   2.082   5.605  0.1523 -0.8622 -0.5417
10050TIP3    H251566   4.183   2.138   5.581  0.2414 -0.9100 -1.1783
10051TIP3   OH251567   5.994   6.624  16.683 -0.1433  0.5756 -0.1337
10051TIP3    H151568   5.919   6.600  16.628  0.2043  0.6240 -0.6328
10051TIP3    H251569   6.061   6.651  16.621  0.4508  0.0860  0.2937
10052TIP3   OH251570   0.776   5.705   5.236  0.3055  0.0116 -0.0888
10052TIP3    H151571   0.739   5.771   5.295 -2.1534 -0.3353 -1.1473
10052TIP3    H251572   0.722   5.710   5.157  1.8142 -1.3958 -1.2661
10053TIP3   OH251573   2.278   3.271   2.472  0.3010  0.0679 -0.2113
10053TIP3    H151574   2.234   3.302   2.551  0.6799  1.2706 -0.4575
10053TIP3    H251575   2.262   3.340   2.407  2.2270  0.3822 -0.4123
10054TIP3   OH251576   3.390   4.497   3.582  0.0761 -0.3106  0.2476
10054TIP3    H151577   3.445   4.419   3.580 -0.2497 -0.5836  1.3138
10054TIP3    H251578   3.336   4.487   3.661 -1.9073 -0.3285 -1.0252
10055TIP3   OH251579   6.607   6.107  16.458  0.7465 -0.1362 -0.1463
10055TIP3    H151580   6.648   6.054  16.526 -0.9888 -0.9152  0.3492
10055TIP3    H251581   6.532   6.149  16.502  0.0910  0.0238 -1.3639
10056TIP3   OH251582   3.053   0.617  16.678  0.1017 -0.1763  0.5124
10056TIP3    H151583   3.080   0.639  16.768 -1.3870  2.9026  0.3439
10056TIP3    H251584   3.135   0.616  16.629  0.6613  1.6703  1.3144
10057TIP3   OH251585   2.091   4.001   5.669  0.1810 -0.3398 -0.3008
10057TIP3    H151586   2.142   3.920   5.664 -1.6990 -1.5195 -2.0625
10057TIP3    H251587   2.123   4.054   5.597  0.0471 -0.3931 -0.4007
10058TIP3   OH251588   3.155   3.421  12.552  0.0866  0.3227 -0.0199
10058TIP3    H151589   3.142   3.379  12.467  2.5223  0.2678 -0.4405
10058TIP3    H251590   3.197   3.353  12.605  0.6149  1.0575  0.5034
10059TIP3   OH251591   4.536   5.157  16.279 -0.1676 -0.0965 -0.1194
10059TIP3    H151592   4.613   5.168  16.224  0.8319  2.1974  1.5489
10059TIP3    H251593   4.504   5.069  16.259  3.2068 -1.3919 -0.4753
10060TIP3   OH251594   1.347   5.172   3.830 -0.1933  0.4759 -0.1964
10060TIP3    H151595   1.314   5.121   3.905 -0.8971  0.8122 -0.2759
10060TIP3    H251596   1.421   5.221   3.866 -0.3158  0.3795  0.1954
10061TIP3   OH251597   4.613   6.528  14.903  0.1665  0.5772  0.7185
10061TIP3    H151598   4.541   6.481  14.945 -0.0262  1.7677  1.7935
10061TIP3    H251599   4.654   6.463  14.847 -1.7650 -0.1310  0.0287
10062TIP3   OH251600   2.944   4.744   6.112  0.0387  0.2775 -0.5352
10062TIP3    H151601   2.850   4.754   6.097 -0.1015  0.0602  0.1979
10062TIP3    H251602   2.969   4.668   6.059 -0.1329  0.5189 -0.9717
10063TIP3   OH251603   3.752   4.114   2.851 -0.3365  0.1301  0.9455
10063TIP3    H151604   3.751   4.191   2.908  0.0669 -0.9989  2.5213
10063TIP3    H251605   3.671   4.068   2.872  0.4132 -0.9460  1.5269
10064TIP3   OH251606   1.703   5.868   3.170 -0.3820  0.9231 -0.0847
10064TIP3    H151607   1.709   5.786   3.121 -0.1137  0.7992  0.1471
10064TIP3    H251608   1.694   5.936   3.104 -2.1556  0.5822 -0.2353
10065TIP3   OH251609   2.140   4.468   0.995  0.1223  0.7274  0.0397
10065TIP3    H151610   2.079   4.513   0.937 -0.3713  0.2057  0.1476
10065TIP3    H251611   2.184   4.539   1.042  0.1006  1.1322 -0.5358
10066TIP3   OH251612   0.185   5.361  14.422 -0.4956  0.2569 -0.2890
10066TIP3    H151613   0.108   5.389  14.372 -0.4255 -1.7787 -1.6880
10066TIP3    H251614   0.150   5.339  14.509 -0.8675  2.5052  0.1873
10067TIP3   OH251615   2.966   3.195  15.101 -0.3096 -0.1671 -0.0102
10067TIP3    H151616   3.036   3.218  15.040 -0.9080  0.6059 -0.4370
10067TIP3    H251617   2.893   3.170  15.044 -1.5744  2.5744  0.2462
10068TIP3   OH251618   0.110   0.970   6.046 -0.1896  0.1770 -0.1718
10068TIP3    H151619   0.182   1.022   6.010 -0.4684  0.8825  0.2698
10068TIP3    H251620   0.106   0.893   5.990  1.7726 -0.5512  0.5729
10069TIP3   OH251621   4.307   1.008  11.998  0.1752  0.4259  0.7025
10069TIP3    H151622   4.232   0.952  12.018  0.5279  0.0796  1.0504
10069TIP3    H251623   4.278   1.059  11.921 -0.8825  1.2155  1.5892
10070TIP3   OH251624   4.881   5.571   5.426  0.2574 -0.2960  0.3444
10070TIP3    H151625   4.902   5.505   5.493 -0.3661  0.0011  0.8456
10070TIP3    H251626   4.931   5.648   5.453  0.6668 -0.4354 -0.0112
10071TIP3   OH251627   1.604   1.550  15.107 -0.0562 -0.0208 -0.3326
10071TIP3    H151628   1.648   1.505  15.178 -1.7792 -1.2964  0.0080
10071TIP3    H251629   1.593   1.640  15.138 -1.7291 -0.8054  1.5413
10072TIP3   OH251630   6.603   2.941   3.759 -0.6864  0.0457  0.1362
10072TIP3    H151631   6.586   3.035   3.753 -0.3999  0.2122  1.5401
10072TIP3    H251632   6.579   2.918   3.848  0.6757 -0.9125  0.2904
10073TIP3   OH251633   4.614   5.578  15.880 -0.4312 -0.0612 -0.5664
10073TIP3    H151634   4.610   5.558  15.786  0.6901 -0.4477 -0.5535
10073TIP3    H251635   4.579   5.499  15.922  3.7238 -2.1789 -0.5300
10074TIP3   OH251636   5.428   0.830   1.305 -0.3007  1.3451 -0.0924
10074TIP3    H151637   5.476   0.755   1.339  0.0173  0.8107 -1.6643
10074TIP3    H251638   5.381   0.864   1.381  0.4756  0.2849  0.9045
10075TIP3   OH251639   4.322   6.057  14.412 -0.6160  0.3185 -0.0503
10075TIP3    H151640   4.309   6.148  14.385  0.4955 -0.0261 -1.9642
10075TIP3    H251641   4.265   6.006  14.354 -1.0751 -0.2502  0.8672
10076TIP3   OH251642   3.420   5.055   2.543  0.7263 -0.0951 -0.2345
10076TIP3    H151643   3.403   5.145   2.515 -0.1845  0.4920  2.0119
10076TIP3    H251644   3.508   5.058   2.580  0.6307 -0.0970 -0.0076
10077TIP3   OH251645   4.303   1.669   1.905  0.9433  0.6880  0.6097
10077TIP3    H151646   4.396   1.659   1.928  1.4365 -2.3922 -1.9103
10077TIP3    H251647   4.303   1.723   1.827  0.4253  1.7269  1.3032
10078TIP3   OH251648   3.579   0.121   3.887  0.0116  0.2448 -0.1548
10078TIP3    H151649   3.516   0.083   3.948 -0.1173 -0.5916 -0.7880
10078TIP3    H251650   3.526   0.161   3.819  0.1603  0.5432 -0.0981
10079TIP3   OH251651   5.799   1.696   0.854  0.1659  0.8024  0.1901
10079TIP3    H151652   5.820   1.769   0.912  0.9698  0.9849 -0.3110
10079TIP3    H251653   5.848   1.715   0.774  2.4966 -1.5390  0.9139
10080TIP3   OH251654   3.134   0.676   1.505 -0.5397  0.1471  0.0862
10080TIP3    H151655   3.181   0.739   1.560 -0.8490  0.9386 -0.5293
10080TIP3    H251656   3.079   0.730   1.448 -0.3054 -0.6379 -0.9308
10081TIP3   OH251657   5.594   1.577   0.683  0.3671  0.5959  0.5901
10081TIP3    H151658   5.652   1.638   0.729  1.4060 -0.9378  1.3858
10081TIP3    H251659   5.617   1.587   0.590  1.4596  0.4531  0.8417
10082TIP3   OH251660   3.143   2.215  13.299  0.1910  0.4408 -0.0869
10082TIP3    H151661   3.213   2.279  13.313  1.4754 -1.0264  0.5307
10082TIP3    H251662   3.064   2.260  13.328  1.2283  1.3429  1.5569
10083TIP3   OH251663   0.002   4.416  15.163  0.4378  0.0635 -0.4947
10083TIP3    H151664  -0.064   4.348  15.145 -0.3190  0.4054  0.8242
10083TIP3    H251665   0.037   4.392  15.248  1.5626  0.2714 -0.8904
10084TIP3   OH251666   2.498   6.604   0.245 -0.6941  0.3528 -0.2911
10084TIP3    H151667   2.452   6.687   0.232 -0.4417  0.2885 -1.7414
10084TIP3    H251668   2.566   6.603   0.177 -0.1000 -0.6283  0.2942
10085TIP3   OH251669   4.507   1.569  16.522  0.0113  0.4264 -0.3217
10085TIP3    H151670   4.448   1.621  16.467 -2.3639 -1.3090  0.3985
10085TIP3    H251671   4.530   1.628  16.595 -2.0942  0.7412  0.1519
10086TIP3   OH251672   3.385   6.005   4.947  0.4106  0.4285  0.2706
10086TIP3    H151673   3.352   5.917   4.927  1.8676  0.0600 -0.6286
10086TIP3    H251674   3.446   5.992   5.020 -0.3291  0.9047  0.9966
10087TIP3   OH251675   5.357   5.901   3.403  0.2257 -0.2414  0.0282
10087TIP3    H151676   5.278   5.941   3.439  1.4039 -0.6782  3.4630
10087TIP3    H251677   5.401   5.972   3.356 -2.9305 -0.4258 -3.6341
10088TIP3   OH251678   0.078   1.343   0.994 -0.4922 -0.0587  0.2337
10088TIP3    H151679   0.037   1.270   0.947 -1.0646 -0.0818  0.7687
10088TIP3    H251680   0.117   1.397   0.924  1.8742 -2.0057 -0.0687
10089TIP3   OH251681   1.900   2.987   3.966  0.4052  0.2900 -0.0467
10089TIP3    H151682   1.934   2.930   4.035 -0.0182 -1.0051 -0.8749
10089TIP3    H251683   1.821   2.943   3.935  1.0115  0.4306 -1.8777
10090TIP3   OH251684   3.367   5.778   2.629  0.1523 -0.2901 -0.1647
10090TIP3    H151685   3.317   5.716   2.576  0.6985 -0.7979 -0.1116
10090TIP3    H251686   3.351   5.750   2.719  1.5204 -1.2826 -0.1882
10091TIP3   OH251687   0.285   5.876   1.628  0.4618  0.2090  0.2550
10091TIP3    H151688   0.267   5.937   1.557 -0.8210  0.4464  0.7704
10091TIP3    H251689   0.347   5.814   1.591  0.9233  1.1599 -0.6211
10092TIP3   OH251690   4.646   3.549   3.090 -0.2093 -0.2474  0.0307
10092TIP3    H151691   4.646   3.527   3.184 -0.8361 -0.0969  0.0722
10092TIP3    H251692   4.620   3.468   3.047 -1.3245  0.0617  0.0963
10093TIP3   OH251693   5.892   5.443   3.864 -0.8452  0.1880 -0.2397
10093TIP3    H151694   5.840   5.470   3.789  1.9275 -0.0380 -2.4022
10093TIP3    H251695   5.951   5.375   3.830 -0.0289 -0.5089  2.3347
10094TIP3   OH251696   6.451   2.588   2.891 -0.1536 -0.0351  0.3072
10094TIP3    H151697   6.367   2.570   2.934  0.6274  0.0767  1.9536
10094TIP3    H251698   6.427   2.617   2.803 -1.8863  0.8604  1.0232
10095TIP3   OH251699   3.448   5.403  16.842 -1.1498 -0.3702  0.2198
10095TIP3    H151700   3.444   5.471  16.908 -0.4728  0.4246 -0.5288
10095TIP3    H251701   3.435   5.321  16.890  1.1324  0.0065  1.6263
10096TIP3   OH251702   4.540   4.229  15.168  0.2174  0.3360 -0.0183
10096TIP3    H151703   4.564   4.283  15.094  0.5368 -0.2908 -0.3812
10096TIP3    H251704   4.448   4.205  15.153 -0.3051  1.7500  0.7607
10097TIP3   OH251705   3.584   1.653   6.324  0.0357  0.4056  0.3648
10097TIP3    H151706   3.569   1.688   6.236 -2.0254 -1.7711 -0.2833
10097TIP3    H251707   3.545   1.718   6.383  2.3220  2.3739 -0.1747
10098TIP3   OH251708   0.808   4.958  14.288  0.3056 -0.4878  0.2201
10098TIP3    H151709   0.732   4.950  14.346 -1.3172  0.2607 -1.6645
10098TIP3    H251710   0.832   5.050  14.293 -0.1145 -0.3266 -0.5825
10099TIP3   OH251711   1.667   0.170  14.123  0.4531  0.1357 -0.3395
10099TIP3    H151712   1.687   0.153  14.031  0.4459 -2.4505  0.0609
10099TIP3    H251713   1.737   0.229  14.152  0.5132  0.9286 -1.9385
10100TIP3   OH251714   3.577   6.047  13.078  0.0385  0.2641  0.3900
10100TIP3    H151715   3.657   6.005  13.109 -0.8407 -1.3490  0.5972
10100TIP3    H251716   3.561   6.009  12.992  0.1080  1.4613 -0.1743
10101TIP3   OH251717   5.340   4.592   4.404 -0.3922 -0.2876 -0.0216
10101TIP3    H151718   5.273   4.587   4.336 -1.5005  1.1815  0.8904
10101TIP3    H251719   5.301   4.547   4.480 -0.9245  1.6168  0.9006
10102TIP3   OH251720   2.285   1.025  11.148 -0.1566 -0.1872 -0.4704
10102TIP3    H151721   2.235   0.948  11.176  1.1128 -0.4456  1.2988
10102TIP3    H251722   2.345   0.992  11.081  0.4715 -0.8002  0.3733
10103TIP3   OH251723   4.956   2.531   6.039 -0.2114  0.3426  0.0318
10103TIP3    H151724   4.948   2.445   5.998  1.8772  0.6000 -1.0054
10103TIP3    H251725   5.034   2.525   6.093  0.9110  2.0147 -1.2914
10104TIP3   OH251726   4.085   2.619  13.847 -0.6128 -0.3654  0.4483
10104TIP3    H151727   4.158   2.603  13.907  2.0143 -1.1263 -2.6412
10104TIP3    H251728   4.024   2.548  13.864 -0.0592 -0.4488  2.2937
10105TIP3   OH251729   4.051   2.867   0.834 -0.5245  0.0405 -0.3951
10105TIP3    H151730   4.090   2.787   0.799 -0.3575 -0.3248  0.5883
10105TIP3    H251731   3.992   2.897   0.765 -2.6425 -2.3861  0.1937
10106TIP3   OH251732   2.977   0.394  11.496  0.1255  0.0991 -0.5918
10106TIP3    H151733   2.909   0.460  11.513  0.3643  0.4920 -1.1437
10106TIP3    H251734   2.928   0.313  11.481 -0.1309 -0.1414  1.2725
10107TIP3   OH251735   1.232   5.208  11.701 -0.4793 -0.4911 -0.3804
10107TIP3    H151736   1.204   5.145  11.768 -0.6377 -1.3027 -1.1819
10107TIP3    H251737   1.316   5.174  11.670 -0.0389  0.2956 -0.0690
10108TIP3   OH251738   3.130   5.584  16.258  0.4675  0.2760 -0.0216
10108TIP3    H151739   3.196   5.624  16.314  0.7958  0.3360 -0.4434
10108TIP3    H251740   3.134   5.634  16.177  1.1128 -0.8068 -0.6822
10109TIP3   OH251741   1.176   3.341  16.299 -0.7305  0.3187  0.7529
10109TIP3    H151742   1.255   3.297  16.331 -0.4299 -0.3906 -0.8758
10109TIP3    H251743   1.205   3.388  16.221 -2.0625 -0.5344 -0.2882
10110TIP3   OH251744   0.724   4.924  13.632  0.3932  0.2784 -0.2805
10110TIP3    H151745   0.679   4.887  13.557  2.2571 -2.6289 -0.1071
10110TIP3    H251746   0.813   4.940  13.602  0.9366 -0.1066  1.0422
10111TIP3   OH251747   4.980   4.189  15.005  0.0750 -0.1402  0.0838
10111TIP3    H151748   4.990   4.256  14.938 -0.3273  0.3772  0.5278
10111TIP3    H251749   4.936   4.234  15.077 -0.4783 -0.9666  0.2692
10112TIP3   OH251750   4.836   2.140   6.135 -0.1282  0.5645 -0.4264
10112TIP3    H151751   4.922   2.099   6.141 -0.5334 -0.5391 -1.5892
10112TIP3    H251752   4.795   2.124   6.220  0.2093 -0.3323 -0.4256
10113TIP3   OH251753   6.460   1.940  16.915 -0.1909 -0.0077 -0.0050
10113TIP3    H151754   6.555   1.949  16.906 -0.3262  1.9804  0.0835
10113TIP3    H251755   6.440   1.974  17.002 -0.9991 -0.2375 -0.0915
10114TIP3   OH251756   5.466   6.763   2.732  0.3927 -0.0098  0.2070
10114TIP3    H151757   5.419   6.692   2.775 -2.5400  1.7496  0.1814
10114TIP3    H251758   5.557   6.733   2.729 -0.4788 -3.1832  1.2600
10115TIP3   OH251759   5.027   2.669   1.461  0.5330  0.2381  0.2655
10115TIP3    H151760   5.081   2.738   1.502  2.2654  0.1634 -1.7015
10115TIP3    H251761   4.962   2.717   1.410  1.9687  0.5028 -1.3984
10116TIP3   OH251762   6.118   5.761   3.907 -0.0557  0.2107  0.0937
10116TIP3    H151763   6.182   5.691   3.895  0.0374  0.4897 -1.1194
10116TIP3    H251764   6.061   5.730   3.977 -0.9868 -1.8071 -1.4777
10117TIP3   OH251765   5.248   4.478  14.053  0.6021  0.4109 -0.2194
10117TIP3    H151766   5.326   4.502  14.003  0.6898  0.2893 -0.1403
10117TIP3    H251767   5.183   4.455  13.986  0.8023 -0.0077 -0.2715
10118TIP3   OH251768   6.755   1.443  12.423  0.0866  0.2970  0.4006
10118TIP3    H151769   6.764   1.522  12.368  2.0987 -1.0657 -1.4284
10118TIP3    H251770   6.717   1.377  12.364  2.4139 -1.2512  0.5112
10119TIP3   OH251771   4.825   1.401  11.424 -0.0391  0.4712 -0.0140
10119TIP3    H151772   4.892   1.338  11.452  0.8534  1.2329 -0.3851
10119TIP3    H251773   4.780   1.357  11.352  2.0584  1.0769 -1.7942
10120TIP3   OH251774   3.421   0.046   4.122 -0.6676 -0.7426 -0.5749
10120TIP3    H151775   3.336   0.007   4.143 -0.0375 -1.5240  0.7165
10120TIP3    H251776   3.433   0.114   4.189 -0.6171 -0.0787 -1.2469
10121TIP3   OH251777   5.368   1.107  14.203 -0.1423  0.1989 -0.5025
10121TIP3    H151778   5.397   1.079  14.117  1.6935  0.2056  0.0776
10121TIP3    H251779   5.295   1.166  14.186  1.6721  2.1024 -2.2119
10122TIP3   OH251780   0.662   6.371  13.252  0.0180 -0.0336 -0.2877
10122TIP3    H151781   0.695   6.332  13.171 -0.8599 -0.5250 -0.4199
10122TIP3    H251782   0.706   6.323  13.321  0.9591  0.5540 -0.4646
10123TIP3   OH251783   1.567   6.489  13.306 -0.0049 -0.5176 -0.1506
10123TIP3    H151784   1.625   6.564  13.322 -1.0419 -0.1344  2.1207
10123TIP3    H251785   1.541   6.498  13.214  0.4631  1.4859 -0.1229
10124TIP3   OH251786   0.298   0.546   3.848 -0.0997  0.2420 -0.2458
10124TIP3    H151787   0.313   0.526   3.756  1.6624  0.3934 -0.0177
10124TIP3    H251788   0.327   0.469   3.896  1.1337  1.0092  0.2918
10125TIP3   OH251789   1.673   5.744   0.254 -0.4399  0.2813 -0.8272
10125TIP3    H151790   1.685   5.680   0.183  0.1126  1.6325 -1.9884
10125TIP3    H251791   1.689   5.829   0.213 -3.0029  1.3698  0.2033
10126TIP3   OH251792   2.243   5.910  16.880  0.0403  0.3823  0.2744
10126TIP3    H151793   2.168   5.881  16.826  0.0932 -1.6687  1.1940
10126TIP3    H251794   2.253   5.840  16.945  1.7743  1.4096  1.1596
10127TIP3   OH251795   0.877   0.379   1.558 -0.8371 -0.2989 -0.1774
10127TIP3    H151796   0.946   0.396   1.622 -0.4463  1.3039 -0.9615
10127TIP3    H251797   0.797   0.371   1.609 -0.4752  0.5745  0.5552
10128TIP3   OH251798   0.857   3.361   6.761 -0.2235 -0.1868 -0.1501
10128TIP3    H151799   0.876   3.268   6.757  0.7020  0.0298 -1.1853
10128TIP3    H251800   0.940   3.404   6.739 -0.8381  0.8643 -0.5011
10129TIP3   OH251801   0.007   1.546   3.125  0.0736 -0.1262  0.0937
10129TIP3    H151802   0.000   1.502   3.040  0.1951  0.5518 -0.2728
10129TIP3    H251803   0.087   1.510   3.164 -0.2788 -0.8507  0.1701
10130TIP3   OH251804   5.610   1.475   1.729 -0.3534  0.3051  0.5895
10130TIP3    H151805   5.688   1.486   1.674 -0.7436  1.6710  0.2808
10130TIP3    H251806   5.642   1.428   1.807  0.8028  0.9381  0.5199
10131TIP3   OH251807   4.148   3.026  11.319 -0.0279  0.0054 -0.0590
10131TIP3    H151808   4.080   3.051  11.256 -1.0632  0.3669  1.1563
10131TIP3    H251809   4.184   3.109  11.350 -1.2827 -0.0425  1.6566
10132TIP3   OH251810   2.695   2.504   1.620  0.0957  0.2443  0.3195
10132TIP3    H151811   2.786   2.476   1.632 -0.0252 -0.0245  0.6341
10132TIP3    H251812   2.699   2.573   1.555  0.4350 -0.3739 -0.3321
10133TIP3   OH251813   5.978   3.126  12.623 -0.3783 -0.5934  0.8760
10133TIP3    H151814   5.898   3.147  12.670  0.5889  1.3758  1.7597
10133TIP3    H251815   5.967   3.167  12.537 -0.4533 -0.5944  0.8851
10134TIP3   OH251816   3.432   3.511  17.117 -0.4340 -0.3991 -0.6445
10134TIP3    H151817   3.439   3.507  17.213 -0.4069 -1.2310 -0.6736
10134TIP3    H251818   3.444   3.420  17.088 -1.9188 -0.4096 -1.3295
10135TIP3   OH251819   4.430   5.058  14.575 -0.3446 -0.1974  0.3873
10135TIP3    H151820   4.469   5.028  14.493 -0.4592  1.9601 -0.5196
10135TIP3    H251821   4.502   5.054  14.638  0.4605  0.5121 -0.4511
10136TIP3   OH251822   3.775   2.658   0.276 -0.0924 -0.0707 -0.4127
10136TIP3    H151823   3.781   2.611   0.360  0.3311 -2.0002 -1.4487
10136TIP3    H251824   3.683   2.685   0.271 -0.0953  0.1936  0.7191
10137TIP3   OH251825   4.305   2.971   0.154  0.4918  0.6643  0.1760
10137TIP3    H151826   4.349   3.051   0.182 -0.5721  1.2010  0.3904
10137TIP3    H251827   4.242   3.001   0.088  2.4771 -0.4771 -2.3592
10138TIP3   OH251828   2.866   6.031   0.971 -0.4064  0.0232 -0.3592
10138TIP3    H151829   2.858   6.108   0.914  1.4008 -0.1579 -0.9511
10138TIP3    H251830   2.816   5.963   0.927 -1.9284  0.8074  0.1114
10139TIP3   OH251831   5.871   6.168  17.053 -0.5113  0.5663 -0.5826
10139TIP3    H151832   5.836   6.133  17.135  1.6488  0.9184  0.5452
10139TIP3    H251833   5.834   6.112  16.986 -0.3168 -1.3618  0.8427
10140TIP3   OH251834   1.527   1.051   4.965 -0.3884 -0.1118  0.6878
10140TIP3    H151835   1.504   1.016   5.051 -0.5810  0.3991  0.8465
10140TIP3    H251836   1.446   1.042   4.914  0.0815 -1.5842  0.1680
10141TIP3   OH251837   5.261   3.720  12.001 -0.6483 -0.0243  0.3328
10141TIP3    H151838   5.328   3.742  11.936 -0.6523  0.4615  0.4901
10141TIP3    H251839   5.292   3.640  12.041 -0.9828 -0.7150 -0.7443
10142TIP3   OH251840   3.010   4.621  12.539  0.1495  0.0753  0.3497
10142TIP3    H151841   3.074   4.633  12.469 -0.5644  2.4024 -0.0133
10142TIP3    H251842   3.026   4.695  12.598 -1.5757  0.2136  0.7089
10143TIP3   OH251843   2.198   1.720   4.781  0.9499  0.4331  0.7103
10143TIP3    H151844   2.251   1.678   4.849 -0.7248 -0.9429  1.2399
10143TIP3    H251845   2.191   1.811   4.810  3.0556  0.6781  0.5616
10144TIP3   OH251846   5.450   0.135  13.692  0.8654 -0.0596  0.2863
10144TIP3    H151847   5.516   0.137  13.761  4.6826  1.5496 -2.9742
10144TIP3    H251848   5.469   0.212  13.638 -3.9913  0.6873 -0.8748
10145TIP3   OH251849   4.500   1.773  16.277  0.1167 -0.2478 -0.0693
10145TIP3    H151850   4.438   1.701  16.266  0.3621 -0.5054  0.1931
10145TIP3    H251851   4.529   1.795  16.189  0.9597 -1.2925 -0.0747
10146TIP3   OH251852   2.303   1.837  12.608  0.1601  0.0001  0.4093
10146TIP3    H151853   2.237   1.879  12.553  0.8617  0.3085 -0.2158
10146TIP3    H251854   2.281   1.744  12.605 -0.4245  0.1321  0.4588
10147TIP3   OH251855   6.710   0.081  14.110 -0.2213  0.3617  0.3655
10147TIP3    H151856   6.779   0.080  14.177  0.9959  1.3984 -0.8095
10147TIP3    H251857   6.648   0.148  14.141 -0.4723 -0.2380  1.1928
10148TIP3   OH251858   0.891   4.444  12.401 -0.7282 -0.7663  0.1764
10148TIP3    H151859   0.890   4.475  12.311  0.8614 -2.6951 -0.5845
10148TIP3    H251860   0.972   4.480  12.438 -1.4163  0.0881  0.8928
10149TIP3   OH251861   6.299   0.926  15.872  0.3210  0.1541 -0.6096
10149TIP3    H151862   6.226   0.866  15.856 -0.8791  1.8827 -1.9822
10149TIP3    H251863   6.258   1.005  15.907  1.8179  0.3864  0.7377
10150TIP3   OH251864   5.195   0.684  15.991 -0.4946  0.1929 -0.3237
10150TIP3    H151865   5.117   0.695  15.937  0.3509 -0.8335 -1.8262
10150TIP3    H251866   5.161   0.669  16.080 -2.0238 -0.7965 -1.0313
10151TIP3   OH251867   4.536   1.053   6.148 -0.2231 -0.6864  0.4970
10151TIP3    H151868   4.447   1.064   6.182 -0.5575 -1.3500 -0.1402
10151TIP3    H251869   4.553   1.133   6.099 -0.3457 -0.4231  0.8760
10152TIP3   OH251870   4.724   3.966  15.165 -0.5512  0.7722 -0.0494
10152TIP3    H151871   4.658   3.900  15.187 -0.6716  1.1692  0.8249
10152TIP3    H251872   4.675   4.048  15.160 -0.1602  1.0474  0.4595
10153TIP3   OH251873   1.471   3.591  14.984  0.1343 -0.0730 -0.5495
10153TIP3    H151874   1.428   3.570  15.067  1.4961  0.4200  0.3230
10153TIP3    H251875   1.495   3.506  14.947  1.1693 -0.2722  0.5079
10154TIP3   OH251876   6.350   6.612  14.204 -0.0306 -0.1219  0.9444
10154TIP3    H151877   6.359   6.517  14.207 -3.4851 -0.7303 -1.4405
10154TIP3    H251878   6.286   6.633  14.271 -0.1870  0.3471  0.6584
10155TIP3   OH251879   4.912   4.461   5.219  0.2602  0.1968 -0.6254
10155TIP3    H151880   4.835   4.479   5.273  0.3806 -0.0219 -0.3807
10155TIP3    H251881   4.880   4.467   5.129 -0.0856 -0.0763 -0.5227
10156TIP3   OH251882   0.973   4.388   4.623  0.3449 -0.1538  0.6067
10156TIP3    H151883   0.959   4.482   4.637  0.3366  0.0515 -0.6811
10156TIP3    H251884   0.923   4.346   4.693 -0.2463  0.7822  0.7692
10157TIP3   OH251885   4.534   1.957  13.957  0.2711 -0.2783 -0.0369
10157TIP3    H151886   4.592   2.011  14.012  0.0454 -0.8164  0.7506
10157TIP3    H251887   4.482   1.907  14.020  0.0420 -0.9502 -0.7516
10158TIP3   OH251888   2.611   2.820   6.303  0.5705 -0.3436 -0.3247
10158TIP3    H151889   2.672   2.823   6.376  0.6593 -0.2087 -0.4039
10158TIP3    H251890   2.590   2.912   6.286 -0.5861 -0.4332  0.4866
10159TIP3   OH251891   3.810   1.917   5.885 -0.4028 -0.0559 -0.1094
10159TIP3    H151892   3.812   1.931   5.980  0.5827  1.7628 -0.3502
10159TIP3    H251893   3.841   1.828   5.873 -1.1586 -0.5394  1.3023
10160TIP3   OH251894   6.406   2.710  13.745 -0.0982  0.2583 -0.1798
10160TIP3    H151895   6.357   2.667  13.815  0.3405  1.1214  0.6834
10160TIP3    H251896   6.441   2.789  13.786  2.1308 -0.3823 -0.7290
10161TIP3   OH251897   1.376   3.830   1.594  0.4195 -0.2062  0.2581
10161TIP3    H151898   1.319   3.814   1.669 -0.7848  0.1739 -0.5361
10161TIP3    H251899   1.412   3.918   1.610  0.7875 -0.4426  0.7572
10162TIP3   OH251900   3.771   3.856   2.224 -0.1985 -0.1088  0.3029
10162TIP3    H151901   3.857   3.884   2.258  0.3578 -0.1355 -1.0065
10162TIP3    H251902   3.785   3.849   2.129 -0.6887 -3.4743  0.3664
10163TIP3   OH251903   6.154   4.111   5.912 -0.1167 -0.0079 -0.0270
10163TIP3    H151904   6.166   4.107   6.007 -0.1454 -0.3279 -0.0342
10163TIP3    H251905   6.202   4.035   5.879  0.6232  0.5768 -0.3462
10164TIP3   OH251906   4.921   0.571  13.471 -0.0727  0.9936  0.7798
10164TIP3    H151907   4.922   0.623  13.552 -1.8910  1.1908  0.7173
10164TIP3    H251908   4.884   0.487  13.497  0.4080  0.6450  0.3623
10165TIP3   OH251909   6.751   5.571  13.876  0.4131 -0.4709  0.4344
10165TIP3    H151910   6.712   5.569  13.963 -0.2136 -0.9283  0.1506
10165TIP3    H251911   6.767   5.664  13.859 -0.2441 -0.3006  0.6964
10166TIP3   OH251912   3.535   6.302   4.633 -0.1500  0.3064  0.1196
10166TIP3    H151913   3.534   6.241   4.560 -1.6954  0.7349 -0.2333
10166TIP3    H251914   3.468   6.270   4.693  0.1700  0.7249  0.7190
10167TIP3   OH251915   2.681   3.720  12.588 -0.1168  0.8396  0.4780
10167TIP3    H151916   2.685   3.765  12.504  0.9036 -0.7864 -0.3936
10167TIP3    H251917   2.767   3.679  12.598 -0.2029  1.0086  2.3435
10168TIP3   OH251918   4.974   2.804   5.165  0.4449 -0.5201 -0.4337
10168TIP3    H151919   4.909   2.845   5.222  0.4888 -0.3283 -0.5204
10168TIP3    H251920   5.007   2.730   5.215 -0.4159 -1.0986 -0.6968
10169TIP3   OH251921   1.172   2.632   1.912 -0.2420  0.0671  0.4301
10169TIP3    H151922   1.165   2.572   1.986 -0.4076  0.9576  1.1513
10169TIP3    H251923   1.255   2.609   1.870 -0.4875 -0.9066  0.4673
10170TIP3   OH251924   0.136   2.246   4.013 -0.1645 -0.1698  0.1067
10170TIP3    H151925   0.122   2.184   3.941 -2.6568 -0.8781  1.0811
10170TIP3    H251926   0.093   2.205   4.088  0.7512  1.3944  1.5454
10171TIP3   OH251927   5.471   2.758  11.460 -0.1177  0.1003 -0.2558
10171TIP3    H151928   5.453   2.666  11.480 -1.9249  0.9099  2.3071
10171TIP3    H251929   5.525   2.789  11.533 -0.9430  1.4712 -0.1898
10172TIP3   OH251930   2.417   5.045  15.947 -0.0186 -0.2511  0.1358
10172TIP3    H151931   2.484   5.096  15.991  0.0605  0.9938 -1.3453
10172TIP3    H251932   2.336   5.064  15.995  0.2851  0.0637  0.5228
10173TIP3   OH251933   5.607   5.563  12.648 -0.5204  0.0212 -0.3067
10173TIP3    H151934   5.571   5.481  12.683 -0.7041 -0.5658 -1.7922
10173TIP3    H251935   5.530   5.612  12.619 -0.3403  0.2561 -0.3867
10174TIP3   OH251936   6.085   2.323   5.783 -0.1532 -0.1314  0.2295
10174TIP3    H151937   6.087   2.308   5.689 -0.4087 -1.3828  0.4043
10174TIP3    H251938   6.098   2.418   5.793 -1.8001  0.2928 -1.1464
10175TIP3   OH251939   0.348   2.266  13.068  0.0229  0.0167  0.3163
10175TIP3    H151940   0.319   2.202  13.004  1.2302  0.2366 -0.4867
10175TIP3    H251941   0.305   2.348  13.042  1.4077  0.3771 -0.9575
10176TIP3   OH251942   1.960   2.683  15.257 -0.4885 -0.4548  0.5602
10176TIP3    H151943   1.950   2.628  15.179 -0.7750  0.2006  0.1246
10176TIP3    H251944   2.037   2.737  15.239  0.1252 -1.0798  1.2238
10177TIP3   OH251945   3.918   3.933   1.460 -0.3164  0.2667  0.1073
10177TIP3    H151946   3.961   3.909   1.543  0.8690  0.3197 -0.4742
10177TIP3    H251947   3.964   3.880   1.394  1.3764  2.9547 -1.0362
10178TIP3   OH251948   1.751   5.138   1.974  0.2734  0.4483  0.0147
10178TIP3    H151949   1.712   5.072   1.916 -1.6130  3.3271 -2.3495
10178TIP3    H251950   1.809   5.188   1.917 -1.5255  3.3093  0.4664
10179TIP3   OH251951   2.550   3.313  16.265  0.7117  0.4900 -0.2860
10179TIP3    H151952   2.630   3.365  16.265  0.9118  0.1858  0.1741
10179TIP3    H251953   2.534   3.293  16.357  1.6700 -1.7970 -0.5454
10180TIP3   OH251954   3.345   1.575  16.035  0.0764  0.4615 -0.4017
10180TIP3    H151955   3.285   1.562  15.962 -0.1982  1.6069 -0.4006
10180TIP3    H251956   3.299   1.634  16.094  0.6259  0.2063  0.2996
10181TIP3   OH251957   6.534   3.514  15.556  0.3000  0.3203 -0.0539
10181TIP3    H151958   6.610   3.565  15.529  1.0980 -0.7235  0.1856
10181TIP3    H251959   6.529   3.527  15.651  0.7602 -0.3748  0.0706
10182TIP3   OH251960   0.728   6.326   1.121  0.0558  0.0359  0.2936
10182TIP3    H151961   0.760   6.235   1.122  0.2657  0.1069  0.1928
10182TIP3    H251962   0.800   6.376   1.083 -0.1300  0.2186  0.1775
10183TIP3   OH251963   5.464   5.024  13.202 -0.1594 -0.2492  0.0081
10183TIP3    H151964   5.396   4.961  13.224  0.2482 -0.7333 -0.0987
10183TIP3    H251965   5.431   5.107  13.235  0.6433 -0.9868  2.9364
10184TIP3   OH251966   1.798   0.842   2.004  0.6502  0.5243  0.1443
10184TIP3    H151967   1.760   0.760   2.032  1.5297 -0.9895 -2.6480
10184TIP3    H251968   1.723   0.899   1.986  0.0138  0.1624  1.5834
10185TIP3   OH251969   6.364   0.860  16.679  0.6538 -0.3741  0.3381
10185TIP3    H151970   6.390   0.886  16.590 -1.9126 -0.0450 -0.4016
10185TIP3    H251971   6.304   0.929  16.707 -1.9504 -2.5643  0.5641
10186TIP3   OH251972   3.849   6.586  17.023  0.0727 -1.2953  0.7311
10186TIP3    H151973   3.820   6.677  17.014  0.2454 -1.3559 -0.5635
10186TIP3    H251974   3.819   6.560  17.110 -1.4853 -0.5523  0.4387
10187TIP3   OH251975   6.517   2.244   4.906  0.6056  0.3179  0.1016
10187TIP3    H151976   6.592   2.298   4.880  1.3942 -0.5254  0.5657
10187TIP3    H251977   6.556   2.162   4.937 -0.2930  0.8752  2.9848
10188TIP3   OH251978   1.727   2.590   6.324 -0.1040  0.3242  0.0680
10188TIP3    H151979   1.756   2.681   6.322 -1.5064  0.7903 -1.5335
10188TIP3    H251980   1.651   2.591   6.383 -0.0798  0.1794  0.1021
10189TIP3   OH251981   1.845   1.491   5.340 -0.2262  0.5251 -0.6277
10189TIP3    H151982   1.807   1.578   5.335 -1.0119  0.2362  0.1235
10189TIP3    H251983   1.893   1.490   5.423  0.4397  0.4867 -0.9998
10190TIP3   OH251984   0.892   4.453   5.065  0.5625 -0.1368 -0.2801
10190TIP3    H151985   0.920   4.532   5.111 -0.0175  0.5506 -1.0829
10190TIP3    H251986   0.960   4.388   5.085  1.1993  0.6506  0.1498
10191TIP3   OH251987   1.998   4.000   2.330  0.3708 -0.3662  0.4018
10191TIP3    H151988   2.040   3.961   2.406  2.4805  2.0940  0.6568
10191TIP3    H251989   1.916   4.036   2.363  0.4843 -0.7802  1.1436
10192TIP3   OH251990   0.094   4.334   1.300  0.3341  0.0250  0.3455
10192TIP3    H151991   0.076   4.246   1.266 -1.9084  0.3070  0.6730
10192TIP3    H251992   0.170   4.322   1.357 -0.3425 -1.8496  0.9366
10193TIP3   OH251993   1.941   3.610   1.694 -0.2386  0.5313 -0.2153
10193TIP3    H151994   1.852   3.636   1.669 -1.0042 -0.0377  1.6894
10193TIP3    H251995   1.998   3.663   1.639 -1.7327  0.2164 -2.2041
10194TIP3   OH251996   0.240   4.705   0.812  0.7979 -0.1034  0.1584
10194TIP3    H151997   0.292   4.625   0.804  0.6448 -0.1014 -1.0601
10194TIP3    H251998   0.202   4.718   0.725 -2.2713 -0.7933  1.2667
10195TIP3   OH251999   5.481   0.288  11.860 -0.0343 -0.8714 -0.0305
10195TIP3    H152000   5.565   0.312  11.899  0.6228 -2.2403 -0.5389
10195TIP3    H252001   5.421   0.282  11.934 -0.1831  1.8696  0.1725
10196TIP3   OH252002   1.910   3.019   2.810  0.2318 -0.9067  0.0424
10196TIP3    H152003   1.916   3.039   2.717  0.6493  0.2179  0.3028
10196TIP3    H252004   1.823   2.978   2.820 -0.4198  0.2722 -0.6060
10197TIP3   OH252005   4.891   4.806  15.258  0.1692 -0.1803 -0.5481
10197TIP3    H152006   4.965   4.749  15.274 -0.1334 -0.2889  0.5389
10197TIP3    H252007   4.842   4.807  15.340 -0.4227  0.7810 -0.8837
10198TIP3   OH252008   0.157   5.484   0.324  0.2293  0.5612  0.1463
10198TIP3    H152009   0.163   5.444   0.237  1.2947 -1.9593  1.2671
10198TIP3    H252010   0.189   5.574   0.312 -1.2535  0.8411 -2.3343
10199TIP3   OH252011   3.959   5.087   2.439 -0.6139  0.3264 -0.0731
10199TIP3    H152012   4.014   5.099   2.516  0.3983 -0.6858 -0.6031
10199TIP3    H252013   3.998   5.144   2.373  0.4957 -1.1661 -0.7654
10200TIP3   OH252014   6.197   1.069  17.325 -0.5394 -0.5626 -0.5203
10200TIP3    H152015   6.213   1.104  17.412  1.6685  0.8635 -1.4211
10200TIP3    H252016   6.152   1.139  17.278 -0.9494 -1.0015 -0.7960
10201TIP3   OH252017   3.787   4.608  14.745  0.7053  0.2228 -0.1639
10201TIP3    H152018   3.795   4.520  14.782  0.2733 -0.2578 -1.1570
10201TIP3    H252019   3.842   4.605  14.666  1.1910  1.0439  0.1331
10202TIP3   OH252020   5.340   0.899  15.871  0.4915  0.3905  0.2601
10202TIP3    H152021   5.308   0.933  15.787 -0.4454 -0.1659  0.3843
10202TIP3    H252022   5.289   0.819  15.886  0.9415  0.2612  1.1631
10203TIP3   OH252023   2.611   0.633  10.830  0.5524 -0.1592  0.1077
10203TIP3    H152024   2.598   0.540  10.812 -2.2491  0.2963 -0.8192
10203TIP3    H252025   2.522   0.669  10.834  1.5588  2.6808 -0.5952
10204TIP3   OH252026   4.507   3.986  11.826 -0.1677  0.2886 -0.5069
10204TIP3    H152027   4.534   4.076  11.842 -0.4300  0.3506 -0.4149
10204TIP3    H252028   4.442   3.992  11.756 -1.0883  0.3016  0.3214
10205TIP3   OH252029   1.958   4.501   3.595 -0.0424  0.3037 -0.1558
10205TIP3    H152030   1.938   4.449   3.517  0.4799  1.8675 -1.3770
10205TIP3    H252031   1.873   4.516   3.636 -0.3124 -0.6008 -0.3632
10206TIP3   OH252032   2.524   4.850  15.795  0.3110  1.0021  0.1133
10206TIP3    H152033   2.598   4.910  15.792  0.5638  0.8118  1.9355
10206TIP3    H252034   2.466   4.886  15.862 -0.5153  0.3093 -0.2136
10207TIP3   OH252035   0.379   2.174   0.135  0.4682 -0.1807  0.8725
10207TIP3    H152036   0.370   2.270   0.130  0.7839 -0.1929 -2.0702
10207TIP3    H252037   0.329   2.149   0.213 -0.9838  2.2540  0.8376
10208TIP3   OH252038   0.229   6.215  14.467 -0.2473 -0.6570  0.0653
10208TIP3    H152039   0.248   6.146  14.402  0.2134  0.3274 -0.8901
10208TIP3    H252040   0.168   6.273  14.423 -0.0021 -0.0182  0.5534
10209TIP3   OH252041   1.360   1.892  16.495  0.2059 -0.3195 -0.4587
10209TIP3    H152042   1.325   1.909  16.582  1.5364 -2.5059  0.5931
10209TIP3    H252043   1.282   1.882  16.440 -0.6792  0.2314  0.6531
10210TIP3   OH252044   3.139   4.973  16.957  0.0549 -0.2915 -0.5428
10210TIP3    H152045   3.195   4.967  17.035  1.2470 -1.2161 -1.4202
10210TIP3    H252046   3.052   4.951  16.988  0.2886  0.5003  0.7469
10211TIP3   OH252047   6.745   0.307  16.197 -0.2356 -0.0045  0.1884
10211TIP3    H152048   6.688   0.231  16.196  0.7227 -0.7882  1.7701
10211TIP3    H252049   6.794   0.299  16.278 -0.3710  2.5195  0.5834
10212TIP3   OH252050   2.810   3.488  14.623  0.3323 -0.0349 -0.2109
10212TIP3    H152051   2.856   3.552  14.568  0.3571  0.1744  0.0509
10212TIP3    H252052   2.877   3.459  14.685  0.7253 -1.3971 -1.2359
10213TIP3   OH252053   4.284   2.878   5.993  0.2962  0.2223  0.0335
10213TIP3    H152054   4.298   2.907   6.084  0.0122  0.9625 -0.1518
10213TIP3    H252055   4.369   2.847   5.964  0.3379 -0.2336  0.6314
10214TIP3   OH252056   2.544   5.599  16.543 -0.1972  0.1437  0.1409
10214TIP3    H152057   2.572   5.561  16.626  3.3550  0.5596 -0.6722
10214TIP3    H252058   2.607   5.669  16.527 -0.9985  0.3373 -2.7127
10215TIP3   OH252059   5.665   4.324  14.857 -0.2068 -0.5206  0.1812
10215TIP3    H152060   5.754   4.292  14.840 -0.2370 -0.4609 -0.0811
10215TIP3    H252061   5.617   4.245  14.881 -0.1062 -0.5658  0.2394
10216TIP3   OH252062   4.773   1.556   4.977  0.1069  0.3816  0.4343
10216TIP3    H152063   4.822   1.505   5.041 -0.7886  0.1667  0.9745
10216TIP3    H252064   4.682   1.549   5.006 -0.1421  1.5370  0.0015
10217TIP3   OH252065   1.648   4.492  13.061 -0.1021  0.5091 -0.1858
10217TIP3    H152066   1.714   4.550  13.100 -1.5468  1.3445  1.1046
10217TIP3    H252067   1.689   4.461  12.980  2.0795  0.5600  0.8359
10218TIP3   OH252068   3.445   5.375  11.450 -0.0186 -0.7126  0.6894
10218TIP3    H152069   3.474   5.409  11.535 -0.7328  1.3336  0.1823
10218TIP3    H252070   3.527   5.357  11.403  0.3821 -1.2074  1.5582
10219TIP3   OH252071   2.594   3.510   2.257  0.0899 -0.4972 -0.5744
10219TIP3    H152072   2.575   3.591   2.303  0.5561 -1.4152  1.3600
10219TIP3    H252073   2.554   3.520   2.171 -2.1823  0.7343  0.5495
10220TIP3   OH252074   6.267   3.201   3.194 -0.3510  0.0239 -0.5243
10220TIP3    H152075   6.222   3.224   3.275  0.1778  0.1015 -0.2518
10220TIP3    H252076   6.286   3.285   3.152 -1.1097 -0.0294 -1.0068
10221TIP3   OH252077   1.080   1.186  15.624 -0.7516 -0.0995  0.0952
10221TIP3    H152078   1.107   1.116  15.565 -0.0474 -0.2084  0.5366
10221TIP3    H252079   1.076   1.145  15.710  1.4902  0.7755  0.6859
10222TIP3   OH252080   2.914   0.019  15.314 -0.5472 -0.0088 -0.3059
10222TIP3    H152081   2.824   0.009  15.282 -1.0399  1.2496  0.6105
10222TIP3    H252082   2.968   0.007  15.237 -1.4236 -1.8005 -0.7039
10223TIP3   OH252083   3.897   4.313   2.694  0.2086 -0.5045 -0.4035
10223TIP3    H152084   3.861   4.231   2.728 -0.3373  0.0289  0.3387
10223TIP3    H252085   3.826   4.376   2.704  0.7869  0.1690 -0.5215
10224TIP3   OH252086   5.589   0.648   0.639 -0.1570  0.3306 -0.6544
10224TIP3    H152087   5.611   0.556   0.656 -0.0676  0.5112  0.2449
10224TIP3    H252088   5.555   0.680   0.722  0.9153  1.4314 -0.6197
10225TIP3   OH252089   4.190   2.708   1.975 -0.0013 -0.3035  0.0162
10225TIP3    H152090   4.242   2.647   2.027 -0.3016 -0.8419 -0.3142
10225TIP3    H252091   4.205   2.681   1.884  0.5988  0.6848 -0.2025
10226TIP3   OH252092   5.224   0.858  14.878  0.9903  0.4410  0.6137
10226TIP3    H152093   5.273   0.939  14.866  1.0607  0.8233  2.9511
10226TIP3    H252094   5.145   0.885  14.925  0.5066 -0.6986  0.4781
10227TIP3   OH252095   4.975   4.526   4.553  0.6103  0.5138  0.2197
10227TIP3    H152096   4.911   4.593   4.575 -0.3236 -0.3216  0.1162
10227TIP3    H252097   5.048   4.540   4.613 -0.6212  0.1026  1.8518
10228TIP3   OH252098   1.817   1.805   5.278 -0.0157  0.0940  0.1253
10228TIP3    H152099   1.766   1.803   5.197 -0.5684 -0.3382  0.4791
10228TIP3    H252100   1.854   1.893   5.280  1.5130 -0.4570 -1.5091
10229TIP3   OH252101   3.714   3.482   4.991  0.4599  0.3771 -0.4887
10229TIP3    H152102   3.638   3.465   4.935 -0.1634  2.0222 -0.1883
10229TIP3    H252103   3.680   3.477   5.080  0.6314  1.3838 -0.3587
10230TIP3   OH252104   4.517   6.438   2.440 -0.2152  0.0819  0.1859
10230TIP3    H152105   4.551   6.523   2.411 -1.0199  1.2839  2.5245
10230TIP3    H252106   4.588   6.399   2.489 -0.7932  0.7686  1.6157
10231TIP3   OH252107   4.360   6.763   5.882 -0.2099  0.0040 -0.4148
10231TIP3    H152108   4.417   6.829   5.842 -0.9037  1.5889  1.0776
10231TIP3    H252109   4.299   6.814   5.935 -0.6287 -1.8639  0.9849
10232TIP3   OH252110   4.364   0.460  14.729  0.1635  0.1335  0.1123
10232TIP3    H152111   4.321   0.544  14.713  0.9482  0.5779  0.2747
10232TIP3    H252112   4.390   0.462  14.821  1.1701  0.1954 -0.1550
10233TIP3   OH252113   0.217   0.166  15.065  0.4119  0.2190  0.1083
10233TIP3    H152114   0.288   0.205  15.015  0.5872 -2.2277 -1.7416
10233TIP3    H252115   0.141   0.172  15.008  0.3632 -1.6796 -0.1102
10234TIP3   OH252116   3.047   3.782  15.145 -0.1938  0.0799  0.4315
10234TIP3    H152117   3.016   3.742  15.064 -0.6405  1.1637  0.0431
10234TIP3    H252118   3.138   3.752  15.154 -0.1613 -0.0973 -0.4399
10235TIP3   OH252119   0.749   6.030   1.410  0.2148 -0.0944  0.1660
10235TIP3    H152120   0.822   5.984   1.452  1.5661  0.9969 -0.8878
10235TIP3    H252121   0.739   6.110   1.461  0.4684  0.2414 -0.2975
10236TIP3   OH252122   5.093   0.882   2.895  0.0075  0.4260  0.3108
10236TIP3    H152123   5.058   0.921   2.814  0.7342  0.9355  0.2347
10236TIP3    H252124   5.040   0.804   2.908 -0.9080  0.9672 -0.0178
10237TIP3   OH252125   3.163   0.409  17.014  0.1157 -0.0959  0.1933
10237TIP3    H152126   3.258   0.421  17.022  0.2213 -0.7550  0.0005
10237TIP3    H252127   3.152   0.365  16.930 -0.3432 -0.1957  0.3046
10238TIP3   OH252128   1.508   4.306  12.780 -0.2692 -0.3920 -0.2233
10238TIP3    H152129   1.486   4.213  12.783 -0.5145 -0.3133  0.4162
10238TIP3    H252130   1.601   4.309  12.801 -0.8593 -0.2724  2.8076
10239TIP3   OH252131   2.042   5.454  15.895 -0.2188 -0.4128  0.3010
10239TIP3    H152132   1.982   5.508  15.947 -0.8298  0.6278 -1.3869
10239TIP3    H252133   2.079   5.515  15.831  0.5543 -1.6223 -0.4310
10240TIP3   OH252134   3.321   1.910   4.624  0.4511  0.5684 -0.2392
10240TIP3    H152135   3.265   1.901   4.546 -1.2027  1.8942  0.7168
10240TIP3    H252136   3.265   1.953   4.688  1.8649 -0.2210  1.6088
10241TIP3   OH252137   3.205   6.479  13.367  0.2111  0.4713 -0.2352
10241TIP3    H152138   3.253   6.397  13.378 -0.4622 -0.1210 -1.6122
10241TIP3    H252139   3.115   6.453  13.351  0.1657  1.4298 -1.7200
10242TIP3   OH252140   4.440   1.972   1.011 -0.7453 -0.0673  0.2226
10242TIP3    H152141   4.373   1.962   0.943 -2.1022 -1.1258  1.6478
10242TIP3    H252142   4.472   1.883   1.027 -1.3434 -0.0382  1.7962
10243TIP3   OH252143   2.271   1.733   0.739  0.0853 -0.2385  0.0336
10243TIP3    H152144   2.182   1.716   0.768 -0.1688 -0.6134 -0.9238
10243TIP3    H252145   2.270   1.715   0.645  1.5421 -1.9103  0.2593
10244TIP3   OH252146   3.107   5.630  13.456  0.6642  0.3500  0.0129
10244TIP3    H152147   3.059   5.713  13.450  0.9424  0.5437  0.3868
10244TIP3    H252148   3.114   5.614  13.549 -0.8339 -0.9638 -0.0596
10245TIP3   OH252149   5.784   6.356   1.691 -0.2847 -0.3339 -0.3874
10245TIP3    H152150   5.716   6.377   1.755  1.1872 -1.8923  1.8193
10245TIP3    H252151   5.804   6.263   1.706  0.9645 -0.4449 -2.3328
10246TIP3   OH252152   6.052   3.185   5.676  0.1416  0.5254 -0.2922
10246TIP3    H152153   6.103   3.117   5.632  1.2440 -0.0318  1.7305
10246TIP3    H252154   5.964   3.147   5.683  0.0655  0.4251 -1.5005
10247TIP3   OH252155   6.234   5.169   4.028  0.0665  0.4215  0.6450
10247TIP3    H152156   6.202   5.146   4.115 -0.3418 -0.1946  0.3415
10247TIP3    H252157   6.320   5.126   4.023  0.9464  2.0184  1.4339
10248TIP3   OH252158   0.432   4.145  13.140 -0.5263  0.5464 -0.6032
10248TIP3    H152159   0.426   4.155  13.045 -1.4838 -0.2263 -0.6387
10248TIP3    H252160   0.349   4.104  13.166 -0.1645  0.4822  0.5300
10249TIP3   OH252161   6.378   2.192  13.342  0.0341  0.5183 -0.5515
10249TIP3    H152162   6.452   2.207  13.402  0.6304  0.4743 -1.2690
10249TIP3    H252163   6.354   2.101  13.358  0.7526  0.2437 -0.9878
10250TIP3   OH252164   3.860   0.488   3.240  0.2401  0.0319 -0.4809
10250TIP3    H152165   3.865   0.519   3.150  1.8826 -0.8286 -0.7126
10250TIP3    H252166   3.945   0.507   3.278  1.2089 -3.5350 -0.4746
10251TIP3   OH252167   1.093   1.654  13.124  0.1006 -0.0869 -0.8015
10251TIP3    H152168   1.086   1.718  13.052  0.9808  1.3048  0.2876
10251TIP3    H252169   1.122   1.706  13.199 -1.1311 -1.4194  0.6806
10252TIP3   OH252170   4.581   3.862   2.657  0.0033 -0.0752 -0.1868
10252TIP3    H152171   4.530   3.841   2.579 -0.3104 -2.4796  0.5577
10252TIP3    H252172   4.525   3.834   2.730  0.3906  1.8738  0.9103
10253TIP3   OH252173   3.077   3.290  12.336 -0.2010 -0.1593 -0.1036
10253TIP3    H152174   3.140   3.225  12.307  0.3424  0.3904 -0.1932
10253TIP3    H252175   3.068   3.350  12.262  0.9986  1.1093  0.7276
10254TIP3   OH252176   0.965   3.505  10.798 -0.0374 -0.0841  0.1349
10254TIP3    H152177   0.974   3.587  10.750 -0.8411 -0.6887 -1.1018
10254TIP3    H252178   0.878   3.474  10.776 -0.2814 -0.5885  1.7101
10255TIP3   OH252179   2.677   3.698  13.290 -0.0898  0.4303  0.1990
10255TIP3    H152180   2.715   3.612  13.275 -0.0704  0.3484  0.6985
10255TIP3    H252181   2.749   3.751  13.325 -0.5806  0.0750  1.8263
10256TIP3   OH252182   6.238   5.107   4.726 -0.7192 -0.1372 -0.8574
10256TIP3    H152183   6.152   5.087   4.689 -0.9640  0.3227 -0.5518
10256TIP3    H252184   6.238   5.065   4.812 -1.7798  2.1977  0.4034
10257TIP3   OH252185   6.246   2.875   2.801 -0.0785 -0.1515 -0.5166
10257TIP3    H152186   6.160   2.870   2.760 -0.8070  1.6673  0.6380
10257TIP3    H252187   6.228   2.880   2.895  1.3961 -1.3225 -0.1310
10258TIP3   OH252188   5.708   2.697   0.183  0.3642 -0.0456 -0.4025
10258TIP3    H152189   5.712   2.707   0.088 -0.5333  0.8753 -0.3598
10258TIP3    H252190   5.629   2.645   0.198  0.0138  0.5576 -0.1218
10259TIP3   OH252191   0.051   1.143   1.658 -0.2793 -0.4262  0.1845
10259TIP3    H152192   0.133   1.093   1.659  0.3658  0.4783 -2.0425
10259TIP3    H252193   0.074   1.227   1.618 -1.6186  1.2139  2.5677
10260TIP3   OH252194   5.038   5.601  16.849  0.0992  0.4620  0.4885
10260TIP3    H152195   5.054   5.568  16.760 -0.8694 -0.0793  0.5016
10260TIP3    H252196   4.957   5.652  16.842 -0.5751 -0.4661  1.2504
10261TIP3   OH252197   5.417   5.126   1.893  0.5683  0.3045 -0.9063
10261TIP3    H152198   5.367   5.159   1.818  0.4011  1.0967 -0.4566
10261TIP3    H252199   5.390   5.034   1.901 -0.7388  0.6739 -0.7534
10262TIP3   OH252200   5.114   2.552   2.694  0.2137 -0.1018  0.1625
10262TIP3    H152201   5.133   2.643   2.670  0.2367 -0.3343 -0.7463
10262TIP3    H252202   5.019   2.547   2.694  0.1399  0.4317  2.2673
10263TIP3   OH252203   3.335   1.263   6.840  0.8159  0.0258  0.2154
10263TIP3    H152204   3.339   1.171   6.815  3.5804  0.5078 -1.7533
10263TIP3    H252205   3.258   1.298   6.794  1.0725 -0.8737 -0.9458
10264TIP3   OH252206   6.550   5.389   2.841 -0.5719 -0.0773 -0.3581
10264TIP3    H152207   6.456   5.373   2.831  0.0540 -2.8363 -5.2994
10264TIP3    H252208   6.566   5.470   2.792 -0.2885 -0.2083 -0.4866
10265TIP3   OH252209   0.641   4.133  15.027 -0.3250  0.0208  0.1187
10265TIP3    H152210   0.611   4.147  14.937 -1.9732 -0.7427  0.5052
10265TIP3    H252211   0.668   4.041  15.028 -0.3080  0.0307  0.3982
10266TIP3   OH252212   0.550   2.797  14.357  0.8194 -0.1663  0.4456
10266TIP3    H152213   0.538   2.886  14.322 -2.6979 -0.8675 -0.4932
10266TIP3    H252214   0.544   2.740  14.281  2.7827 -1.2937  1.0765
10267TIP3   OH252215   1.845   2.124   5.779  0.0100  0.0833 -0.8641
10267TIP3    H152216   1.929   2.162   5.752 -0.1328 -0.4130 -2.0582
10267TIP3    H252217   1.869   2.050   5.835  0.2963  1.7142  1.3094
10268TIP3   OH252218   2.999   2.606   4.845  0.2003 -0.2656 -0.5245
10268TIP3    H152219   2.921   2.637   4.799 -0.0115 -0.9021 -0.6119
10268TIP3    H252220   3.015   2.519   4.807 -1.0769 -1.6416  1.8369
10269TIP3   OH252221   4.762   1.890  15.474 -0.3173 -0.4001  0.0689
10269TIP3    H152222   4.796   1.893  15.564  0.3507  0.6851 -0.2018
10269TIP3    H252223   4.755   1.982  15.449  0.5867 -0.7086 -1.3971
10270TIP3   OH252224   1.724   2.339  14.381  0.7181 -0.1309  0.0078
10270TIP3    H152225   1.794   2.325  14.317 -0.0845 -1.2262 -0.6786
10270TIP3    H252226   1.766   2.387  14.453  2.2667 -1.0833 -0.2115
10271TIP3   OH252227   0.209   6.086  12.245 -0.3508 -0.6053  0.0591
10271TIP3    H152228   0.143   6.020  12.220  0.0205 -1.5647  1.5064
10271TIP3    H252229   0.202   6.092  12.340  2.7990 -2.0045  0.4733
10272TIP3   OH252230   0.018   3.632   0.424 -0.0143  0.0514 -0.0922
10272TIP3    H152231   0.018   3.536   0.428  0.8977  0.0046 -0.8061
10272TIP3    H252232   0.111   3.655   0.413 -0.4382  0.8901 -2.3769
10273TIP3   OH252233   5.822   1.559  11.888 -0.4365  0.3067 -0.0495
10273TIP3    H152234   5.863   1.478  11.860 -0.7209  0.5524 -1.2357
10273TIP3    H252235   5.842   1.622  11.818 -0.7386  1.0908  0.5505
10274TIP3   OH252236   2.514   2.173  16.376  0.5668 -0.3767  0.0264
10274TIP3    H152237   2.421   2.193  16.371  0.4572 -0.5064  1.2528
10274TIP3    H252238   2.519   2.093  16.429  1.3798 -0.3258  0.0465
10275TIP3   OH252239   3.935   4.657   4.046  0.0034  0.1947  0.5736
10275TIP3    H152240   3.945   4.569   4.082 -1.4527  0.2112  1.1020
10275TIP3    H252241   3.983   4.713   4.107  0.4134 -0.1588  0.5800
10276TIP3   OH252242   1.076   4.542  11.413  0.2778 -0.0328  0.2684
10276TIP3    H152243   1.038   4.455  11.424 -0.7881  0.3955  0.0645
10276TIP3    H252244   1.094   4.549  11.319  1.1621 -0.3462  0.4047
10277TIP3   OH252245   5.575   1.563  12.979 -0.1698 -0.4648  0.0913
10277TIP3    H152246   5.635   1.604  12.918 -1.0358  0.8106  0.0619
10277TIP3    H252247   5.543   1.485  12.933  0.0126 -0.1079 -0.6562
10278TIP3   OH252248   5.873   2.460   5.072 -0.4814 -0.1124  0.5483
10278TIP3    H152249   5.847   2.550   5.094  1.7578  0.4370  1.2384
10278TIP3    H252250   5.800   2.426   5.020 -0.7315  2.6870 -1.1715
10279TIP3   OH252251   3.077   2.974  16.534 -0.4968 -0.2190 -1.0077
10279TIP3    H152252   2.983   2.978  16.515 -0.6174  1.5404 -0.2882
10279TIP3    H252253   3.081   2.947  16.626 -0.3580  0.6668 -0.7463
10280TIP3   OH252254   6.261   3.852  14.938 -0.2451 -0.0697 -0.4767
10280TIP3    H152255   6.243   3.782  15.001 -1.9830  0.9141  0.1811
10280TIP3    H252256   6.295   3.806  14.861  0.7642 -1.4127  0.7021
10281TIP3   OH252257   2.630   3.473  16.743  0.3178 -0.2231 -0.7885
10281TIP3    H152258   2.664   3.533  16.677 -2.3960  1.1150 -1.1141
10281TIP3    H252259   2.625   3.525  16.823 -0.0310 -0.6669 -0.5140
10282TIP3   OH252260   3.660   5.603  15.084 -0.3794 -0.1616 -0.5305
10282TIP3    H152261   3.708   5.572  15.160  1.3906  0.6022 -1.2862
10282TIP3    H252262   3.619   5.525  15.048  1.9682 -1.2670 -0.9854
10283TIP3   OH252263   6.095   0.268   4.114 -0.1360  0.4609 -0.0571
10283TIP3    H152264   6.164   0.266   4.047 -0.3847  1.6829 -0.3785
10283TIP3    H252265   6.141   0.252   4.196  0.5664  1.4071 -0.2491
10284TIP3   OH252266   6.183   0.381   2.574 -0.1847  0.6324 -0.2596
10284TIP3    H152267   6.237   0.441   2.522 -0.8633  0.4525 -1.1974
10284TIP3    H252268   6.215   0.392   2.663  1.0288  0.9304 -0.7128
10285TIP3   OH252269   3.076   3.943   2.642  0.6990 -0.4560  0.2421
10285TIP3    H152270   3.093   4.025   2.597  0.4595 -0.1506  0.7050
10285TIP3    H252271   3.158   3.894   2.635  1.6647  0.8057  2.0341
10286TIP3   OH252272   3.057   6.728  13.464  0.1954 -0.5635 -0.0190
10286TIP3    H152273   3.113   6.747  13.389  0.1210 -0.8394 -0.1485
10286TIP3    H252274   2.968   6.726  13.428  0.2280 -1.4662 -0.0796
10287TIP3   OH252275   3.682   6.044   0.923 -0.1924 -0.4468 -0.3006
10287TIP3    H152276   3.636   6.107   0.867 -0.2604 -0.3133 -0.0946
10287TIP3    H252277   3.658   5.959   0.888 -0.4358 -0.3717 -0.3195
10288TIP3   OH252278   4.722   3.516   4.166 -0.1771 -0.4567 -1.0412
10288TIP3    H152279   4.684   3.552   4.246 -1.9697 -0.3399 -1.8794
10288TIP3    H252280   4.813   3.497   4.189 -0.6499 -0.5040  1.0333
10289TIP3   OH252281   4.097   1.881  14.783 -0.0270  0.1504 -0.0401
10289TIP3    H152282   4.179   1.879  14.832  0.5622  0.5538 -0.9722
10289TIP3    H252283   4.045   1.947  14.827  0.0675 -0.2555  0.6864
10290TIP3   OH252284   5.683   1.840   1.682 -0.0473  0.7099 -0.4195
10290TIP3    H152285   5.609   1.896   1.661  0.6673  1.5748 -0.7337
10290TIP3    H252286   5.686   1.776   1.610 -0.5051  0.6527 -0.3871
10291TIP3   OH252287   6.755   2.011  17.240 -0.2098 -0.5687 -0.0186
10291TIP3    H152288   6.828   1.973  17.192  1.0250  2.5673 -0.8189
10291TIP3    H252289   6.792   2.087  17.284 -2.9450  1.0943 -0.3775
10292TIP3   OH252290   4.918   5.619  12.240  0.0880  0.4970  0.1996
10292TIP3    H152291   4.982   5.656  12.180 -1.2112 -0.7098 -2.0893
10292TIP3    H252292   4.950   5.531  12.259  1.2541  1.3654  2.5877
10293TIP3   OH252293   5.977   6.335  12.910 -0.2574  0.6834 -0.1776
10293TIP3    H152294   5.948   6.392  12.981  1.4705  2.0527 -0.4807
10293TIP3    H252295   5.898   6.315  12.860 -1.2094  1.1924  1.0854
10294TIP3   OH252296   1.485   2.550   2.776 -0.1138 -0.3057 -0.0190
10294TIP3    H152297   1.457   2.594   2.857  1.8599  0.4450  0.3150
10294TIP3    H252298   1.422   2.479   2.765  0.2304 -1.2087  2.8792
10295TIP3   OH252299   6.629   0.704   3.795  0.1653 -0.0674  0.1314
10295TIP3    H152300   6.662   0.737   3.712  0.1572  1.3062  0.6336
10295TIP3    H252301   6.566   0.636   3.772 -0.1037  0.5513 -0.9919
10296TIP3   OH252302   3.149   5.980   0.429 -0.4660 -0.1304  0.4372
10296TIP3    H152303   3.209   5.920   0.384 -1.1779 -1.2106  0.8744
10296TIP3    H252304   3.064   5.964   0.386 -0.5006  1.2220 -0.0349
10297TIP3   OH252305   1.658   2.769   1.917  0.0507 -0.3677  0.4323
10297TIP3    H152306   1.590   2.759   1.983 -0.5058  0.4473  0.0010
10297TIP3    H252307   1.740   2.753   1.964 -0.3679 -0.2387  1.2163
10298TIP3   OH252308   3.287   2.828  13.319 -0.0098  0.0788 -0.6589
10298TIP3    H152309   3.209   2.815  13.373 -0.3124 -1.4064 -1.3968
10298TIP3    H252310   3.253   2.837  13.230  0.6443 -0.3751 -0.9646
10299TIP3   OH252311   5.203   3.086   1.438  0.2036 -0.3029 -0.3590
10299TIP3    H152312   5.168   3.161   1.487 -1.7096 -0.2636 -1.6304
10299TIP3    H252313   5.298   3.093   1.447  0.0701  2.0715 -0.1239
10300TIP3   OH252314   3.181   1.970   3.801  0.0143 -0.0526  0.5194
10300TIP3    H152315   3.203   1.906   3.869 -0.8881  0.3199  1.1841
10300TIP3    H252316   3.249   1.960   3.735  1.1150 -0.1985  1.6406
10301TIP3   OH252317   2.181   2.903   3.342  0.3762 -0.2894  0.3337
10301TIP3    H152318   2.166   2.884   3.250 -0.9012 -1.3833  0.7372
10301TIP3    H252319   2.215   2.993   3.343  0.1271 -0.1595 -1.1742
10302TIP3   OH252320   5.053   3.746   0.366  0.3761 -0.1234  0.1019
10302TIP3    H152321   5.006   3.752   0.449 -0.3148  0.8678 -0.3328
10302TIP3    H252322   5.134   3.699   0.387 -0.0296 -0.3522  1.2196
10303TIP3   OH252323   6.040   5.013  14.451 -0.4589  0.1814  0.1911
10303TIP3    H152324   5.980   5.052  14.388 -0.8811  0.5669  0.8201
10303TIP3    H252325   6.121   4.999  14.402 -1.5917 -2.0624 -1.1780
10304TIP3   OH252326   3.624   5.148   5.162  0.1271 -0.6939  0.3895
10304TIP3    H152327   3.712   5.134   5.197  1.0148  0.5446 -1.2398
10304TIP3    H252328   3.631   5.129   5.069 -1.1179  0.2515  0.0738
10305TIP3   OH252329   4.774   2.685   4.693  0.2545  0.5774  0.2770
10305TIP3    H152330   4.791   2.695   4.787 -1.7798  0.5079  0.6954
10305TIP3    H252331   4.755   2.593   4.681  0.1011  0.6618 -0.1487
10306TIP3   OH252332   3.016   5.823  11.020  0.4649 -0.0570 -0.1519
10306TIP3    H152333   2.950   5.891  11.030 -0.6833 -1.2156  0.4695
10306TIP3    H252334   2.981   5.765  10.953  2.1432  0.7223 -1.7870
10307TIP3   OH252335   5.846   2.659   1.350  0.0730 -0.1095  0.0520
10307TIP3    H152336   5.914   2.638   1.414  1.1367  0.3013 -0.9008
10307TIP3    H252337   5.895   2.682   1.271 -1.2056 -1.0830 -1.0599
10308TIP3   OH252338   4.498   4.855  11.152  0.4643  0.4805 -0.1063
10308TIP3    H152339   4.476   4.853  11.059 -1.2545 -1.2752  0.2753
10308TIP3    H252340   4.562   4.785  11.163  1.3305  1.2570 -0.0887
10309TIP3   OH252341   2.965   2.327   1.309  0.8199  0.3940 -0.0253
10309TIP3    H152342   2.999   2.414   1.331  0.8291  0.7071 -1.2118
10309TIP3    H252343   2.891   2.344   1.251  1.5563 -0.4058 -1.2524
10310TIP3   OH252344   3.939   0.265   4.714  0.0005  0.0673  0.3576
10310TIP3    H152345   3.912   0.213   4.789  2.4460 -0.7473  0.7669
10310TIP3    H252346   3.933   0.206   4.640  2.1290 -0.6813  0.7174
10311TIP3   OH252347   6.000   0.605   4.691 -0.2412  0.4688  0.5259
10311TIP3    H152348   6.070   0.626   4.629  0.1920 -1.6858  0.2043
10311TIP3    H252349   5.930   0.668   4.671  0.9544  1.5946 -0.2493
10312TIP3   OH252350   3.231   0.919  11.263  0.1499  0.2247  0.1453
10312TIP3    H152351   3.317   0.955  11.241  0.3055  0.5728  1.2555
10312TIP3    H252352   3.176   0.943  11.189  1.1512 -0.5928 -0.9122
10313TIP3   OH252353   5.719   1.148   5.216  0.2126 -0.0222  0.3925
10313TIP3    H152354   5.709   1.087   5.288 -0.6691  1.8174  1.9037
10313TIP3    H252355   5.712   1.235   5.256 -0.3661  1.0729 -1.8972
10314TIP3   OH252356   3.873   6.484  15.373  0.3864 -0.4979  0.4168
10314TIP3    H152357   3.958   6.459  15.409  0.7167 -0.6861 -0.4464
10314TIP3    H252358   3.894   6.530  15.292 -0.2008  2.5520  1.8587
10315TIP3   OH252359   2.863   0.870   4.495 -0.0238 -0.1505 -0.4163
10315TIP3    H152360   2.821   0.784   4.496  1.6995 -1.0309  0.2492
10315TIP3    H252361   2.832   0.913   4.574 -0.4100 -0.3961 -0.4324
10316TIP3   OH252362   0.170   3.052  16.945 -0.1870  0.6990 -0.1024
10316TIP3    H152363   0.251   3.098  16.965 -0.5177  0.8691  0.8975
10316TIP3    H252364   0.133   3.031  17.031 -0.3555 -0.8796 -0.5242
10317TIP3   OH252365   1.638   6.701  16.574  0.4609  0.5354 -0.1886
10317TIP3    H152366   1.621   6.633  16.639 -0.5685  2.4720  1.7240
10317TIP3    H252367   1.732   6.719  16.583  0.6354 -0.2582 -0.3523
10318TIP3   OH252368   0.925   3.924   4.683 -0.3880  0.0386 -0.7215
10318TIP3    H152369   0.861   3.885   4.623  0.8353 -1.3848 -1.1770
10318TIP3    H252370   1.007   3.876   4.665  0.5843  1.1807  0.4594
10319TIP3   OH252371   6.148   0.518  16.130  0.2850 -0.0582  0.4510
10319TIP3    H152372   6.123   0.603  16.166 -1.2137 -0.3471  0.1709
10319TIP3    H252373   6.166   0.536  16.037  1.1469  0.1476  0.6495
10320TIP3   OH252374   1.385   5.230   1.717  0.3860 -0.7399 -0.3059
10320TIP3    H152375   1.389   5.143   1.757  1.3554 -0.8307 -0.5865
10320TIP3    H252376   1.467   5.238   1.669  1.4261  1.2524  1.6527
10321TIP3   OH252377   6.586   2.072  10.405  0.1138  0.2163  0.3760
10321TIP3    H152378   6.674   2.104  10.387  0.9405 -1.1417  1.8019
10321TIP3    H252379   6.528   2.141  10.373  1.7361  1.9254  1.0065
10322TIP3   OH252380   1.683   2.307   4.067  0.3077 -0.2422  0.2352
10322TIP3    H152381   1.637   2.304   4.151  0.0762 -2.5926  0.0994
10322TIP3    H252382   1.675   2.398   4.039  1.0523  0.7969  3.0701
10323TIP3   OH252383   5.637   2.517  12.437  0.0248  0.2215 -0.3323
10323TIP3    H152384   5.586   2.453  12.387  0.1528 -1.1821  1.2292
10323TIP3    H252385   5.589   2.600  12.425 -0.3411 -0.2060 -2.1212
10324TIP3   OH252386   4.241   0.719  14.801 -0.3010 -0.4653  0.0896
10324TIP3    H152387   4.280   0.797  14.839 -0.3795 -0.7126  0.6959
10324TIP3    H252388   4.183   0.685  14.870  1.7111 -2.5389  0.9277
10325TIP3   OH252389   5.989   5.727  12.141  0.2082  0.1147  0.7173
10325TIP3    H152390   5.994   5.654  12.079  0.2833 -0.8940  1.8679
10325TIP3    H252391   5.992   5.806  12.086  0.4927 -0.7379 -0.5319
10326TIP3   OH252392   2.686   4.595   0.503  0.2306  0.2269  0.6157
10326TIP3    H152393   2.640   4.512   0.485  0.8484 -0.2347  1.1214
10326TIP3    H252394   2.773   4.582   0.465  0.1354  0.8875  0.1517
10327TIP3   OH252395   3.649   1.253  11.771 -0.0463  0.2170 -0.3975
10327TIP3    H152396   3.594   1.261  11.693  0.4279 -0.1537 -0.7814
10327TIP3    H252397   3.592   1.214  11.837 -1.0662  2.4254  0.1066
10328TIP3   OH252398   3.145   1.270  14.006  0.0824 -0.3718  0.3187
10328TIP3    H152399   3.189   1.185  13.998  2.7554  1.0145 -1.4751
10328TIP3    H252400   3.156   1.295  14.098 -0.9414 -2.0025  0.9205
10329TIP3   OH252401   0.616   6.372  15.228  0.6438 -0.3308 -0.4428
10329TIP3    H152402   0.626   6.290  15.276  0.0011 -1.6140 -2.3583
10329TIP3    H252403   0.567   6.348  15.149 -0.6552  2.1200 -0.5143
10330TIP3   OH252404   4.187   1.306  11.272 -0.6058 -0.3537 -0.6843
10330TIP3    H152405   4.221   1.295  11.184 -0.3316 -1.7418 -0.4308
10330TIP3    H252406   4.133   1.229  11.287 -1.3435  0.2843  0.0651
10331TIP3   OH252407   6.474   4.641  16.576  0.2653 -0.2238  0.1969
10331TIP3    H152408   6.401   4.616  16.632 -0.4784  0.3195 -0.5085
10331TIP3    H252409   6.550   4.596  16.613  0.3492  2.1050  3.2190
10332TIP3   OH252410   4.906   2.195  11.050  0.1184  0.4805 -0.2157
10332TIP3    H152411   4.941   2.195  11.140 -0.2090 -1.0495 -0.0728
10332TIP3    H252412   4.821   2.153  11.057  0.7067 -1.0069 -1.4569
10333TIP3   OH252413   4.474   4.652  13.661  0.5071  0.1977  0.3739
10333TIP3    H152414   4.389   4.622  13.693  0.8159  0.4327  1.4822
10333TIP3    H252415   4.519   4.683  13.740  0.6904  2.4056 -0.5459
10334TIP3   OH252416   6.194   4.466   6.589  0.4687 -0.3614 -0.2276
10334TIP3    H152417   6.277   4.419   6.601  0.0488 -0.7838  1.2238
10334TIP3    H252418   6.220   4.558   6.580  1.0600 -0.2449  1.9132
10335TIP3   OH252419   0.749   0.746  15.106  0.4986 -0.1829 -0.1211
10335TIP3    H152420   0.844   0.748  15.115  0.5724  0.7171 -0.8832
10335TIP3    H252421   0.730   0.662  15.065  1.0207 -0.1014 -0.5308
10336TIP3   OH252422   1.187   2.730   2.973 -0.6135  0.1638  1.0033
10336TIP3    H152423   1.186   2.696   2.883 -1.3307 -0.5040  1.2568
10336TIP3    H252424   1.258   2.795   2.973 -2.2477  2.1032 -0.7487
10337TIP3   OH252425   3.208   5.219  14.140 -0.2998 -0.7151  0.1890
10337TIP3    H152426   3.235   5.305  14.172  1.0158 -1.4187  1.0618
10337TIP3    H252427   3.123   5.203  14.183 -0.2234 -0.1429  0.5601
10338TIP3   OH252428   4.728   4.891  17.218  0.1520  0.3957  0.3227
10338TIP3    H152429   4.720   4.814  17.162  3.8326 -0.0506  0.1328
10338TIP3    H252430   4.702   4.861  17.304  1.9070 -1.2778  0.3337
10339TIP3   OH252431   0.663   0.656   2.556  0.0018 -0.4021 -0.3516
10339TIP3    H152432   0.661   0.594   2.483 -1.4222 -0.4414 -0.3084
10339TIP3    H252433   0.614   0.732   2.524  2.2421  1.0149 -0.6313
10340TIP3   OH252434   6.494   6.425  17.144  0.1180  0.1654  0.1282
10340TIP3    H152435   6.481   6.487  17.216 -0.7645  1.6871 -1.2786
10340TIP3    H252436   6.574   6.454  17.101 -1.1790  1.4485 -1.5489
10341TIP3   OH252437   3.770   5.203  16.276 -0.0705  0.3307  0.1534
10341TIP3    H152438   3.865   5.195  16.275 -0.0490  0.6002  0.1969
10341TIP3    H252439   3.750   5.250  16.357 -0.1951  0.9008 -0.2078
10342TIP3   OH252440   5.302   1.998   2.116  0.2945  0.3284  0.2001
10342TIP3    H152441   5.312   2.085   2.156  0.0220  0.3795  0.1606
10342TIP3    H252442   5.337   2.008   2.028 -0.3044  0.5706 -0.0220
10343TIP3   OH252443   5.630   3.240  14.614 -0.3774 -0.4801  0.0475
10343TIP3    H152444   5.547   3.264  14.573  0.8003 -0.4786 -2.5714
10343TIP3    H252445   5.613   3.155  14.655 -1.7197 -0.3682 -0.2256
10344TIP3   OH252446   0.177   3.777  15.179 -0.2064  0.0362 -0.1955
10344TIP3    H152447   0.245   3.773  15.111  1.3777  1.2811  1.2189
10344TIP3    H252448   0.122   3.851  15.153  1.4713  1.7067  0.7046
10345TIP3   OH252449   5.154   6.621   1.026  0.0656 -0.3471  0.0975
10345TIP3    H152450   5.094   6.561   0.983 -1.3133  1.8463 -1.2220
10345TIP3    H252451   5.112   6.641   1.110  0.0323 -0.4688  0.1096
10346TIP3   OH252452   4.112   0.477  17.245  0.3991 -0.0851  0.1837
10346TIP3    H152453   4.073   0.413  17.305  1.9370 -1.8773 -0.6249
10346TIP3    H252454   4.037   0.516  17.200 -0.7630  0.8645  2.7444
10347TIP3   OH252455   2.583   1.695   6.575 -0.2565 -0.6405  0.3478
10347TIP3    H152456   2.584   1.694   6.671 -1.6194  0.3480  0.3970
10347TIP3    H252457   2.637   1.620   6.550  1.4245 -0.0109  1.8691
10348TIP3   OH252458   3.890   0.948   1.060  0.2861  0.3490 -0.5180
10348TIP3    H152459   3.927   0.969   1.146 -0.4820 -0.7940  0.1178
10348TIP3    H252460   3.806   0.992   1.058 -0.6817 -1.3515  0.2403
10349TIP3   OH252461   2.455   5.142  13.925  0.5549 -0.0011 -0.2216
10349TIP3    H152462   2.469   5.237  13.927  0.2122  0.0715  1.9404
10349TIP3    H252463   2.384   5.129  13.863  1.2585  1.0362 -1.2888
10350TIP3   OH252464   2.135   6.350  13.707  0.3910  0.4125  0.0908
10350TIP3    H152465   2.177   6.338  13.792  1.3784 -0.7889 -0.5289
10350TIP3    H252466   2.060   6.291  13.708  1.1237 -0.5477 -0.3124
10351TIP3   OH252467   4.420   2.890  11.315  0.6211  0.5611  0.2912
10351TIP3    H152468   4.358   2.952  11.354  0.8375  1.0532 -0.1311
10351TIP3    H252469   4.504   2.912  11.356  0.8806  1.1847 -0.5364
10352TIP3   OH252470   4.968   2.643  16.826 -0.0374  0.1869 -0.5462
10352TIP3    H152471   4.994   2.574  16.765  1.5251 -0.6269  0.9685
10352TIP3    H252472   5.029   2.715  16.810  0.3715 -0.0255  0.0470
10353TIP3   OH252473   4.846   5.494  13.951  0.0449  0.3684  0.5895
10353TIP3    H152474   4.907   5.567  13.963 -1.6736  1.5565  2.8076
10353TIP3    H252475   4.861   5.438  14.027  0.5398 -1.0494 -0.5093
10354TIP3   OH252476   4.450   2.407  15.694 -0.1612 -0.2628 -0.5001
10354TIP3    H152477   4.432   2.488  15.647 -0.6645 -1.2949 -2.1916
10354TIP3    H252478   4.487   2.435  15.777  0.4832  1.6750 -1.3748
10355TIP3   OH252479   1.179   0.780  17.131  0.1671  0.7631 -0.3596
10355TIP3    H152480   1.146   0.841  17.197  0.7666  1.1404 -0.4081
10355TIP3    H252481   1.244   0.830  17.081 -1.4658  1.0306 -2.3572
10356TIP3   OH252482   1.896   2.285   3.693  0.0926 -0.2299 -0.1975
10356TIP3    H152483   1.872   2.217   3.757 -1.1060 -0.1214 -0.4927
10356TIP3    H252484   1.824   2.284   3.630  0.2201  1.0940 -0.3860
10357TIP3   OH252485   2.212   3.401  12.704  0.6975  0.3435 -0.1547
10357TIP3    H152486   2.173   3.331  12.756 -0.4067  1.3839  0.4632
10357TIP3    H252487   2.138   3.457  12.679  1.5348  1.2613 -0.6618
10358TIP3   OH252488   2.028   4.210   1.700 -0.0512 -0.5627  0.1241
10358TIP3    H152489   1.932   4.206   1.690 -0.2027 -0.4958  1.3436
10358TIP3    H252490   2.044   4.174   1.787  0.9652  0.1595  0.2470
10359TIP3   OH252491   3.977   3.110  14.959  0.4806  0.0312  0.1151
10359TIP3    H152492   3.974   3.184  14.899  0.2580  0.0623  0.1649
10359TIP3    H252493   4.070   3.096  14.976  0.5344  0.1279 -0.1060
10360TIP3   OH252494   3.801   6.143   5.384  0.4316  0.3446  0.1178
10360TIP3    H152495   3.793   6.049   5.370  0.4645  0.5241 -1.2026
10360TIP3    H252496   3.738   6.182   5.324 -1.6995  1.0992  2.6498
10361TIP3   OH252497   1.943   3.982  12.687 -0.6740  0.1635 -0.2291
10361TIP3    H152498   2.025   3.944  12.657 -0.3926 -0.5798  1.3923
10361TIP3    H252499   1.902   3.914  12.740 -0.0284  2.0573  3.0141
10362TIP3   OH252500   4.299   0.715  16.420  0.2705 -0.5426 -0.0455
10362TIP3    H152501   4.358   0.669  16.479  1.1109  0.5368 -0.0125
10362TIP3    H252502   4.234   0.649  16.394  1.4055 -1.7141  0.0090
10363TIP3   OH252503   2.451   3.486  11.372 -0.8866  0.5024 -0.5324
10363TIP3    H152504   2.429   3.569  11.332 -3.1831  0.3164  0.2146
10363TIP3    H252505   2.393   3.422  11.331 -0.1901 -0.4824 -0.0637
10364TIP3   OH252506   3.637   6.761   0.840 -0.3761  0.1328  0.5287
10364TIP3    H152507   3.640   6.838   0.896 -0.1864  0.8763 -0.4794
10364TIP3    H252508   3.563   6.778   0.781 -0.3006 -0.4354  0.2663
10365TIP3   OH252509   6.615   4.131   5.718  0.1725  0.1956  0.4223
10365TIP3    H152510   6.698   4.176   5.738  0.0997  0.1681  0.7928
10365TIP3    H252511   6.631   4.040   5.741  0.9112 -0.3615 -1.9902
10366TIP3   OH252512   6.609   3.286   0.561  0.2364 -0.0704  0.1866
10366TIP3    H152513   6.535   3.261   0.506 -0.5594  0.0761  1.1645
10366TIP3    H252514   6.597   3.380   0.576 -0.2663 -0.3430  1.6216
10367TIP3   OH252515   1.210   1.797  13.347 -0.5734  0.0920  0.1473
10367TIP3    H152516   1.278   1.735  13.322 -0.5663  0.7944 -1.7330
10367TIP3    H252517   1.205   1.790  13.443  0.6675 -1.4707  0.1378
10368TIP3   OH252518   1.120   5.047  16.281  0.3886  0.2672  0.3383
10368TIP3    H152519   1.034   5.064  16.242  0.9553  1.0207 -0.6152
10368TIP3    H252520   1.142   4.958  16.251  0.3794  0.4621 -0.2674
10369TIP3   OH252521   1.534   3.074  15.605 -0.1701  0.3157 -0.1404
10369TIP3    H152522   1.584   3.153  15.584 -0.8759  0.5898 -0.8173
10369TIP3    H252523   1.563   3.050  15.694  2.3087 -0.4317 -1.0673
10370TIP3   OH252524   0.690   1.595   1.006  0.0179  0.5080  0.0408
10370TIP3    H152525   0.653   1.682   1.023 -1.0652  0.0131  0.3414
10370TIP3    H252526   0.702   1.592   0.911 -2.5060  0.0517 -0.3474
10371TIP3   OH252527   0.296   0.900  13.485 -0.4231  0.2893 -0.2637
10371TIP3    H152528   0.266   0.901  13.576  0.8702 -1.6388  0.2481
10371TIP3    H252529   0.390   0.918  13.491 -0.1554 -0.7374 -1.1062
10372TIP3   OH252530   1.888   1.920   2.621  0.1193  0.7082 -0.6446
10372TIP3    H152531   1.804   1.902   2.578 -1.1979  0.7318  1.7418
10372TIP3    H252532   1.888   2.016   2.632  0.1406  0.6438 -0.0623
10373TIP3   OH252533   5.896   2.758  13.481  0.5398  0.0648  0.0191
10373TIP3    H152534   5.825   2.812  13.447 -2.1270 -2.1826  1.6226
10373TIP3    H252535   5.898   2.682  13.422  0.8962 -0.3845  0.5998
10374TIP3   OH252536   6.230   4.103  13.247 -0.0234 -0.4636  0.6611
10374TIP3    H152537   6.324   4.102  13.229 -0.4230  1.1240 -1.9590
10374TIP3    H252538   6.218   4.179  13.304  0.1234  0.1775 -0.1533
10375TIP3   OH252539   1.254   0.748   5.063 -0.1902  0.2215  0.2034
10375TIP3    H152540   1.223   0.673   5.113 -1.0333  1.4115  1.5785
10375TIP3    H252541   1.277   0.713   4.977  0.0920 -1.6953  1.0216
10376TIP3   OH252542   1.795   5.119  11.597 -0.0174 -0.4228  0.8107
10376TIP3    H152543   1.759   5.045  11.549 -0.1430 -0.2602  0.6549
10376TIP3    H252544   1.843   5.079  11.670  0.5017 -0.6874  0.3354
10377TIP3   OH252545   5.123   6.581  15.136 -0.0402 -0.1318  0.7785
10377TIP3    H152546   5.132   6.611  15.046  1.7358  1.3882  1.4086
10377TIP3    H252547   5.043   6.623  15.168 -0.9544 -1.0759 -0.2014
10378TIP3   OH252548   5.184   4.443  11.496 -0.4931  0.1680  0.2717
10378TIP3    H152549   5.110   4.394  11.460 -0.8391  2.2288 -2.1060
10378TIP3    H252550   5.179   4.529  11.455  1.9799  1.1440  1.7268
10379TIP3   OH252551   3.121   0.052   6.458 -0.5416  0.1687 -0.2038
10379TIP3    H152552   3.183  -0.007   6.415 -1.0557  0.3378 -1.2019
10379TIP3    H252553   3.050  -0.005   6.488 -1.6897  0.3709 -2.3279
10380TIP3   OH252554   1.472   6.173   3.167 -0.2512  0.0000  0.6273
10380TIP3    H152555   1.418   6.093   3.165  1.1583 -0.9773 -0.6164
10380TIP3    H252556   1.462   6.206   3.257 -0.2655 -2.0096  1.4194
10381TIP3   OH252557   1.472   6.505  15.462  0.2050  0.1499 -0.5150
10381TIP3    H152558   1.459   6.415  15.431  0.2955 -0.2006  0.4354
10381TIP3    H252559   1.551   6.501  15.517  0.4916  0.9098 -0.8571
10382TIP3   OH252560   3.060   5.317  14.497  0.1141 -0.3566 -0.4618
10382TIP3    H152561   3.053   5.233  14.451 -0.1053 -1.4324  1.4324
10382TIP3    H252562   3.051   5.295  14.589  0.4306  1.7311  0.1282
10383TIP3   OH252563   2.384   2.030   3.413  0.7649 -0.1739 -0.2873
10383TIP3    H152564   2.324   2.022   3.339 -2.0111  2.3714  1.4518
10383TIP3    H252565   2.343   1.978   3.482  0.2550  1.8716  1.0343
10384TIP3   OH252566   6.714   1.543   2.143 -0.1909 -0.1568  0.3027
10384TIP3    H152567   6.708   1.547   2.239 -0.1301  0.1603  0.2974
10384TIP3    H252568   6.691   1.632   2.115  3.0800  0.7941  0.2131
10385TIP3   OH252569   0.946   1.198   0.375 -0.0455  0.5954  0.1820
10385TIP3    H152570   0.863   1.245   0.367 -0.7508 -0.8426 -1.7057
10385TIP3    H252571   1.003   1.258   0.423 -1.6343  2.3409  0.0029
10386TIP3   OH252572   5.516   1.169   0.816  0.3731 -0.2731 -0.5186
10386TIP3    H152573   5.580   1.108   0.779  1.2589  0.2546  0.0809
10386TIP3    H252574   5.460   1.114   0.871  0.9307 -0.6126 -0.2770
10387TIP3   OH252575   3.105   6.438   4.654 -0.2967 -0.3048  0.6668
10387TIP3    H152576   3.018   6.428   4.615 -0.1619 -0.4713  0.4096
10387TIP3    H252577   3.122   6.532   4.651 -0.6868 -0.2116  1.1946
10388TIP3   OH252578   4.450   6.544   3.633 -0.0304  0.0095 -0.0934
10388TIP3    H152579   4.443   6.636   3.607  3.3790  0.5216  0.2616
10388TIP3    H252580   4.372   6.502   3.597 -2.4189  3.2313  0.8721
10389TIP3   OH252581   6.498   0.175  11.447  0.1063  0.0024  0.2458
10389TIP3    H152582   6.437   0.168  11.374  0.0705  0.1800  0.2594
10389TIP3    H252583   6.543   0.258  11.434  0.3608 -0.1374  0.2237
10390TIP3   OH252584   4.128   4.750   0.834  0.3344 -0.1294 -0.0134
10390TIP3    H152585   4.125   4.754   0.930  0.7038  0.0854 -0.0101
10390TIP3    H252586   4.136   4.841   0.807 -0.7017 -0.1017 -0.2892
10391TIP3   OH252587   2.167   5.320  14.172  0.1437  0.1483 -0.9469
10391TIP3    H152588   2.112   5.242  14.166  0.5923 -0.2005 -0.5924
10391TIP3    H252589   2.201   5.332  14.083  1.9185 -1.4361 -0.5518
10392TIP3   OH252590   4.609   3.541   3.379 -0.3006  0.1549 -0.4891
10392TIP3    H152591   4.652   3.560   3.462 -1.4677 -1.6972  0.6243
10392TIP3    H252592   4.537   3.603   3.374 -0.8719 -0.4131  0.4448
10393TIP3   OH252593   5.562   6.716  12.426 -0.1472 -0.4197 -0.5258
10393TIP3    H152594   5.557   6.788  12.363 -0.1100  0.3538  0.3420
10393TIP3    H252595   5.542   6.756  12.510 -2.0070 -1.8065 -0.2690
10394TIP3   OH252596   0.392   0.457   0.740 -0.4875  0.3003 -0.0660
10394TIP3    H152597   0.373   0.514   0.666 -0.0778  0.5119 -0.0138
10394TIP3    H252598   0.461   0.399   0.708  0.3074  0.9566  0.4138
10395TIP3   OH252599   5.077   1.946  12.579  0.4515 -1.0374 -0.3374
10395TIP3    H152600   4.984   1.943  12.599  0.2047 -2.0492 -1.4940
10395TIP3    H252601   5.089   1.878  12.512  1.9121 -0.5349 -0.6187
10396TIP3   OH252602   2.115   2.516   2.223 -0.1484  0.0836  0.3136
10396TIP3    H152603   2.121   2.609   2.247  0.2080  0.1201  0.0970
10396TIP3    H252604   2.034   2.485   2.264 -0.9619  0.8146 -0.6721
10397TIP3   OH252605   4.881   0.030   1.673  0.2311  0.1021 -0.1532
10397TIP3    H152606   4.840  -0.014   1.598  1.3936  0.1364 -0.8423
10397TIP3    H252607   4.808   0.051   1.731 -0.3747 -3.1620  0.4821
10398TIP3   OH252608   5.094   1.000   2.287  0.0681 -0.0648  0.0253
10398TIP3    H152609   5.156   1.074   2.292 -0.9590  0.8153  0.0574
10398TIP3    H252610   5.019   1.035   2.240 -0.2099 -1.2755 -0.4601
10399TIP3   OH252611   2.216   4.347  12.939 -0.4534 -0.1818 -0.6227
10399TIP3    H152612   2.201   4.275  12.879 -1.2985 -1.0331  0.5549
10399TIP3    H252613   2.310   4.362  12.936 -0.2493 -1.4127 -0.8094
10400TIP3   OH252614   6.427   0.930  15.295  0.3966 -0.1594 -0.3017
10400TIP3    H152615   6.515   0.968  15.287  0.8057 -0.7526  0.9694
10400TIP3    H252616   6.412   0.925  15.390 -1.8015  1.6602 -0.4754
10401TIP3   OH252617   5.055   2.455  16.663  0.6430 -0.2306  0.3071
10401TIP3    H152618   5.094   2.371  16.688 -0.4543 -0.3191  1.8631
10401TIP3    H252619   5.128   2.505  16.624  0.6981 -3.0370 -3.9391
10402TIP3   OH252620   3.574   0.404  15.704  0.0432  0.2476  0.3543
10402TIP3    H152621   3.607   0.403  15.614  0.2505 -0.0223  0.4330
10402TIP3    H252622   3.483   0.433  15.696 -0.9553 -2.7000 -0.3028
10403TIP3   OH252623   4.034   1.838  13.644 -0.7012  0.4944 -0.2514
10403TIP3    H152624   4.083   1.901  13.590  0.4364  0.1240  0.3106
10403TIP3    H252625   4.070   1.849  13.732 -0.5264 -0.8828 -0.1295
10404TIP3   OH252626   4.434   6.286   3.742 -0.1511 -0.1660 -0.7278
10404TIP3    H152627   4.342   6.295   3.765 -0.5203  1.7444 -2.6536
10404TIP3    H252628   4.436   6.299   3.647  2.2306  1.1167 -0.5713
10405TIP3   OH252629   6.552   4.703   0.638  0.9869  0.8384  0.5217
10405TIP3    H152630   6.626   4.670   0.688  1.3025  1.3675  0.4148
10405TIP3    H252631   6.528   4.785   0.681  0.6601  0.8266  0.3712
10406TIP3   OH252632   0.044   6.550  11.747 -0.8786  0.0052 -0.1089
10406TIP3    H152633   0.067   6.555  11.839 -0.6406  0.4749 -0.1919
10406TIP3    H252634  -0.034   6.494  11.745 -0.4325 -0.6435  0.2898
10407TIP3   OH252635   1.333   2.156   4.418  0.3712  0.2368  0.8131
10407TIP3    H152636   1.379   2.086   4.463  1.0162  0.0815 -0.0563
10407TIP3    H252637   1.254   2.170   4.470  1.5712  0.8172  2.5861
10408TIP3   OH252638   4.097   5.291   6.894  0.2558 -0.1511 -0.1428
10408TIP3    H152639   4.122   5.230   6.963 -0.4416  0.7546  0.9432
10408TIP3    H252640   4.163   5.277   6.825  3.4157  1.5595  2.2467
10409TIP3   OH252641   6.642   6.767   0.175 -0.0486 -0.1391 -0.1695
10409TIP3    H152642   6.728   6.796   0.142 -0.6499  1.0053 -0.7936
10409TIP3    H252643   6.659   6.739   0.265  0.9196  0.3884 -0.1752
10410TIP3   OH252644   0.760   3.731   5.397  0.0815  0.0125 -0.3326
10410TIP3    H152645   0.670   3.711   5.372 -0.3676 -1.9847  2.3801
10410TIP3    H252646   0.788   3.799   5.336 -3.3472  0.9187 -1.0856
10411TIP3   OH252647   3.942   2.525  15.009  0.0317  0.4850 -0.2246
10411TIP3    H152648   3.991   2.607  15.011  1.7430 -0.4645 -0.4733
10411TIP3    H252649   3.851   2.551  15.004  0.5119  2.3641  0.0427
10412TIP3   OH252650   5.130   5.863   1.264  0.5533 -0.0215  0.1398
10412TIP3    H152651   5.140   5.930   1.197  1.4704 -0.4259 -0.1511
10412TIP3    H252652   5.145   5.909   1.346 -1.2849  0.6244  0.1479
10413TIP3   OH252653   0.124   5.395   3.314 -0.8418 -0.4608 -0.0345
10413TIP3    H152654   0.075   5.438   3.384  0.2062  0.0352  0.4145
10413TIP3    H252655   0.157   5.466   3.261 -1.1050 -0.8159 -0.6820
10414TIP3   OH252656   3.680   6.493  17.221  0.0518  0.5543  0.1410
10414TIP3    H152657   3.630   6.528  17.295 -0.2035  0.1244  0.1763
10414TIP3    H252658   3.627   6.420  17.189 -0.3839  1.3895 -1.1501
10415TIP3   OH252659   1.784   0.516  13.600 -0.6061  0.1335  0.1175
10415TIP3    H152660   1.751   0.428  13.585 -1.9727  0.6026  0.2075
10415TIP3    H252661   1.876   0.504  13.624 -1.1853 -1.4098  1.7964
10416TIP3   OH252662   0.288   2.898   5.550  0.6239  0.3387  0.2355
10416TIP3    H152663   0.338   2.817   5.549  2.5207  1.4113  1.0597
10416TIP3    H252664   0.289   2.927   5.642 -0.0409  1.2718 -0.0264
10417TIP3   OH252665   4.909   3.539   3.549 -0.2724 -0.7113 -0.0164
10417TIP3    H152666   4.919   3.527   3.455  1.1201 -1.8576  0.2479
10417TIP3    H252667   4.922   3.452   3.586 -1.0780 -0.3287  1.2311
10418TIP3   OH252668   4.883   4.678  13.997  0.5007 -0.2021  0.4880
10418TIP3    H152669   4.859   4.586  14.001 -2.3117  0.4300  0.5483
10418TIP3    H252670   4.865   4.712  14.084 -3.4556  1.3296 -0.6988
10419TIP3   OH252671   5.934   0.568   0.676 -0.0441 -0.5526 -0.5916
10419TIP3    H152672   5.995   0.497   0.657  1.1603  0.3212 -0.0647
10419TIP3    H252673   5.930   0.618   0.595  1.1524  0.2632 -0.1692
10420TIP3   OH252674   4.028   0.854   6.432  0.0948  0.0115  0.3505
10420TIP3    H152675   4.079   0.817   6.505 -0.2514  1.0173  1.1183
10420TIP3    H252676   3.951   0.892   6.473  0.2223  1.2036 -0.4552
10421TIP3   OH252677   6.268   0.364   0.534 -0.3936 -0.1738  0.3511
10421TIP3    H152678   6.220   0.417   0.470 -0.5306  1.1715  1.5093
10421TIP3    H252679   6.216   0.372   0.614 -0.6156 -2.4231  0.4731
10422TIP3   OH252680   0.951   2.486   0.114 -0.3520  0.0039 -0.3956
10422TIP3    H152681   0.945   2.580   0.099  0.5039 -0.1864 -2.2962
10422TIP3    H252682   1.038   2.462   0.080 -0.5287 -1.4506  0.1057
10423TIP3   OH252683   2.802   4.799  14.862  0.2696 -0.0079 -0.5131
10423TIP3    H152684   2.783   4.841  14.946  0.4740  1.7120 -1.2975
10423TIP3    H252685   2.891   4.764  14.873  0.8622  1.4681 -0.4773
10424TIP3   OH252686   4.722   2.195   2.557  0.0248 -0.3178 -0.3537
10424TIP3    H152687   4.725   2.149   2.641 -1.9105 -0.2169 -0.1898
10424TIP3    H252688   4.654   2.261   2.569 -0.6380 -0.6280 -2.1535
10425TIP3   OH252689   1.604   2.570  17.273 -0.1550 -0.2164 -0.5790
10425TIP3    H152690   1.618   2.657  17.237  0.9195 -0.3514 -0.5085
10425TIP3    H252691   1.522   2.540  17.233 -0.6362  0.8891 -0.4493
10426TIP3   OH252692   4.377   3.031  16.068 -0.1000  0.3543 -0.0842
10426TIP3    H152693   4.458   3.014  16.021 -0.7530 -0.6567 -0.9001
10426TIP3    H252694   4.346   3.115  16.033  0.0017  0.1612 -0.6520
10427TIP3   OH252695   1.505   5.543   0.804 -0.0498  0.3940 -0.2534
10427TIP3    H152696   1.463   5.538   0.718  0.1797 -0.9203 -0.3050
10427TIP3    H252697   1.526   5.453   0.826  0.3649  0.7659  0.9639
10428TIP3   OH252698   4.057   1.412   3.361  0.1206 -0.6208 -0.3964
10428TIP3    H152699   4.093   1.419   3.272  0.5333 -0.9379 -0.2560
10428TIP3    H252700   4.081   1.494   3.403  2.2995 -1.5450  0.2785
10429TIP3   OH252701   6.142   1.592   5.179  0.0464  0.7226  0.2319
10429TIP3    H152702   6.144   1.630   5.091 -0.4668  0.0294 -0.0888
10429TIP3    H252703   6.159   1.666   5.237  0.6407  1.1483 -0.4598
10430TIP3   OH252704   1.638   5.200  16.798 -0.4428 -0.5062 -0.7471
10430TIP3    H152705   1.641   5.234  16.888 -1.7504 -1.0401 -0.4829
10430TIP3    H252706   1.561   5.143  16.797 -0.5317 -0.3760 -2.2643
10431TIP3   OH252707   2.207   5.122   5.829 -0.1256  0.2293 -0.2089
10431TIP3    H152708   2.123   5.076   5.831  0.0388 -0.0921 -0.7004
10431TIP3    H252709   2.208   5.168   5.745 -0.3353  1.2408  0.3134
10432TIP3   OH252710   3.494   3.379   4.864 -0.2810  0.3348  0.2699
10432TIP3    H152711   3.452   3.406   4.783 -0.3899  0.0245  0.2233
10432TIP3    H252712   3.490   3.283   4.863 -2.0249  0.3541  1.5672
10433TIP3   OH252713   4.094   5.890   5.246  0.2486  0.3931 -0.4663
10433TIP3    H152714   4.140   5.962   5.289  0.0778  1.2715 -1.6934
10433TIP3    H252715   4.154   5.859   5.180 -0.4233  0.7323 -1.2562
10434TIP3   OH252716   4.426   0.127   4.988  0.2264 -0.2033 -0.3850
10434TIP3    H152717   4.332   0.121   5.004  0.3374 -0.2056  0.3427
10434TIP3    H252718   4.456   0.194   5.050  0.7632 -0.5204 -0.2917
10435TIP3   OH252719   2.817   4.388  14.033  0.0872  0.3683  0.1861
10435TIP3    H152720   2.726   4.403  14.008  0.5050  0.3162 -1.4811
10435TIP3    H252721   2.811   4.348  14.120 -1.3643  2.3906  1.1033
10436TIP3   OH252722   5.452   1.393  16.570 -0.3832  0.0833 -0.2697
10436TIP3    H152723   5.526   1.333  16.563 -0.6783 -0.6248  1.8628
10436TIP3    H252724   5.477   1.468  16.516  1.2902 -0.6927 -0.6511
10437TIP3   OH252725   6.575   2.010  13.553 -0.1728 -0.2117  0.4815
10437TIP3    H152726   6.626   1.930  13.566  0.2491  0.0855  0.6804
10437TIP3    H252727   6.484   1.984  13.566 -0.0106 -0.5963  0.8340
10438TIP3   OH252728   3.124   3.046  12.557  0.2306 -1.1685  0.6504
10438TIP3    H152729   3.142   2.960  12.520  2.3185 -0.0745 -1.0790
10438TIP3    H252730   3.030   3.059  12.544  0.2770 -2.2916 -1.0880
10439TIP3   OH252731   0.420   6.395  13.152 -0.0352 -0.0428 -0.0867
10439TIP3    H152732   0.374   6.356  13.227  1.5005 -0.9336  0.4363
10439TIP3    H252733   0.512   6.397  13.179  0.3727  0.8541 -1.4474
10440TIP3   OH252734   6.068   1.033  16.269  0.2472  0.3125  0.2477
10440TIP3    H152735   6.132   0.962  16.263  0.4610  0.6043 -1.9863
10440TIP3    H252736   6.116   1.106  16.307  1.0156  0.2465 -0.5568
10441TIP3   OH252737   1.200   6.595   3.132 -0.1217 -0.4614  0.4832
10441TIP3    H152738   1.240   6.508   3.136 -1.2810 -1.0828 -0.7675
10441TIP3    H252739   1.183   6.610   3.039 -0.1600  1.0062  0.7042
10442TIP3   OH252740   0.351   3.266  10.619  1.1810  0.2326  0.6973
10442TIP3    H152741   0.268   3.310  10.637  0.9241 -0.2640  0.7258
10442TIP3    H252742   0.329   3.174  10.612  1.1668  0.3484 -2.5096
10443TIP3   OH252743   0.554   1.309   0.174 -0.0487  0.0618 -0.0374
10443TIP3    H152744   0.471   1.273   0.143 -0.4389  1.1713 -0.3109
10443TIP3    H252745   0.537   1.402   0.187  1.1898  0.3344 -0.2353
10444TIP3   OH252746   2.547   2.952  14.925 -0.2716  0.1356  0.5605
10444TIP3    H152747   2.619   3.009  14.900 -0.3232  0.3093  0.8042
10444TIP3    H252748   2.469   3.006  14.913 -0.3724 -0.0805  0.2104
10445TIP3   OH252749   2.253   1.431   5.333  0.2786 -0.4037 -0.2349
10445TIP3    H152750   2.310   1.364   5.371 -0.5927 -0.4258  1.1048
10445TIP3    H252751   2.286   1.514   5.367 -1.6603 -0.5442  2.3272
10446TIP3   OH252752   2.706   3.931   1.016  0.0216  0.4044 -0.3337
10446TIP3    H152753   2.639   3.909   0.951 -1.5097  2.2111  0.4966
10446TIP3    H252754   2.688   4.023   1.038  2.0939  0.6084  0.7750
10447TIP3   OH252755   4.313   5.009  17.032 -0.0886  0.2692  0.6101
10447TIP3    H152756   4.289   5.009  17.125  1.8080 -0.6123  1.1389
10447TIP3    H252757   4.397   5.055  17.029  0.7948 -1.3343 -0.3989
10448TIP3   OH252758   2.507   3.452  12.931  0.3885  0.2790  0.1950
10448TIP3    H152759   2.521   3.536  12.888 -0.1346  0.4715  0.3933
10448TIP3    H252760   2.464   3.474  13.013  1.8546 -0.0359  1.0821
10449TIP3   OH252761   2.056   1.658   0.532  0.1571  0.6743  0.3123
10449TIP3    H152762   1.992   1.670   0.461  0.1670  1.5715  0.4357
10449TIP3    H252763   2.015   1.701   0.607  0.8217  1.0888  0.4419
10450TIP3   OH252764   0.572   1.198  12.848 -0.2754 -0.0428 -0.4349
10450TIP3    H152765   0.532   1.172  12.931 -0.4007  0.7022 -0.2506
10450TIP3    H252766   0.502   1.242  12.800  0.1559  0.7836 -0.3395
10451TIP3   OH252767   0.932   5.047   2.767  0.0351  0.3292 -0.3215
10451TIP3    H152768   0.881   5.019   2.843  1.1960 -2.2646 -0.4055
10451TIP3    H252769   0.888   5.006   2.692  1.5553 -1.0231 -0.5076
10452TIP3   OH252770   2.283   2.338  13.668  0.2111  0.0152 -0.3546
10452TIP3    H152771   2.307   2.376  13.753 -0.0658 -0.4523 -0.0591
10452TIP3    H252772   2.211   2.278  13.689  1.1747 -1.3043 -0.6749
10453TIP3   OH252773   2.146   1.998   4.754  0.0477 -0.4310  0.2094
10453TIP3    H152774   2.091   1.987   4.831  1.2516  3.0376  1.7847
10453TIP3    H252775   2.124   2.085   4.721  1.4047 -0.7792 -1.8546
10454TIP3   OH252776   6.218   4.800  16.755 -0.3872 -0.3799 -0.0608
10454TIP3    H152777   6.263   4.856  16.692 -1.1738  0.1540 -0.1628
10454TIP3    H252778   6.209   4.854  16.833 -2.3218  0.1463 -0.5908
10455TIP3   OH252779   0.039   2.191   4.648 -0.3607  0.0268 -0.2214
10455TIP3    H152780   0.032   2.262   4.712 -1.5520  0.4531 -0.7980
10455TIP3    H252781   0.015   2.231   4.564  1.4796 -0.4489 -1.0212
10456TIP3   OH252782   6.127   1.529   3.596  0.4097  0.4462 -0.0742
10456TIP3    H152783   6.142   1.474   3.519  1.3754  0.7467 -0.1163
10456TIP3    H252784   6.205   1.515   3.650  0.5905  1.6415 -0.0146
10457TIP3   OH252785   2.356   3.571   4.392 -0.7446  0.2954  0.8922
10457TIP3    H152786   2.381   3.560   4.300 -0.7083  1.6748  0.7210
10457TIP3    H252787   2.277   3.516   4.401 -0.3246 -0.4391  0.2461
10458TIP3   OH252788   4.197   3.896  13.518  0.1231 -0.3528 -0.1467
10458TIP3    H152789   4.257   3.855  13.455  2.5541 -1.4517  2.6634
10458TIP3    H252790   4.228   3.986  13.526 -0.4111 -0.1092 -0.7314
10459TIP3   OH252791   6.475   4.275   4.455 -0.5672 -0.2683 -0.6007
10459TIP3    H152792   6.529   4.222   4.396 -0.7574 -0.4469 -0.6144
10459TIP3    H252793   6.509   4.255   4.542  0.3547  0.7190 -0.7057
10460TIP3   OH252794   4.350   3.111  12.781  0.1990  0.4616  0.2146
10460TIP3    H152795   4.406   3.102  12.703 -0.6351  1.2516 -0.5032
10460TIP3    H252796   4.306   3.194  12.769 -2.5658 -0.9575 -0.2273
10461TIP3   OH252797   5.405   6.612  14.715 -0.5884  0.5603  0.2452
10461TIP3    H152798   5.375   6.523  14.733  0.8853  0.0091  0.0928
10461TIP3    H252799   5.499   6.610  14.731 -0.1500  1.5194 -1.8458
10462TIP3   OH252800   3.906   6.231  11.567  0.3538  0.6108 -0.0311
10462TIP3    H152801   3.939   6.312  11.529 -1.5330  2.1815  1.4546
10462TIP3    H252802   3.857   6.259  11.645 -0.0861 -1.9917  0.7358
10463TIP3   OH252803   1.460   0.161   5.106  0.0969  0.2936  0.4392
10463TIP3    H152804   1.448   0.146   5.200 -2.0316 -0.0803  0.1557
10463TIP3    H252805   1.420   0.247   5.091  1.5368  0.9203  0.0600
10464TIP3   OH252806   4.166   2.696   3.737  0.1569 -0.1125 -0.3825
10464TIP3    H152807   4.258   2.696   3.765 -0.3451  0.4095  1.3756
10464TIP3    H252808   4.149   2.785   3.708 -0.4292  0.4773  1.6414
10465TIP3   OH252809   0.544   5.876   2.586 -0.2972  0.2027 -0.1669
10465TIP3    H152810   0.469   5.927   2.618 -0.1529  1.4324 -1.6572
10465TIP3    H252811   0.599   5.863   2.663 -1.6648 -0.0708  0.7998
10466TIP3   OH252812   2.415   1.863  14.719  0.2406 -0.0814  0.0486
10466TIP3    H152813   2.405   1.770  14.741  0.2821  0.1174  0.9392
10466TIP3    H252814   2.453   1.862  14.631  1.8529 -0.9382  0.7049
10467TIP3   OH252815   3.614   1.813  15.521  0.8871 -0.3034 -0.5457
10467TIP3    H152816   3.669   1.736  15.531 -0.7754 -1.4113  0.6651
10467TIP3    H252817   3.561   1.815  15.601 -0.5103  0.9266 -1.4410
10468TIP3   OH252818   0.148   6.744   3.473 -0.0777 -0.0644  0.7994
10468TIP3    H152819   0.103   6.664   3.500  0.3906 -0.4373  0.5009
10468TIP3    H252820   0.138   6.746   3.378  0.4104 -0.0839  0.7412
10469TIP3   OH252821   6.459   2.367   2.508 -0.5346  0.1448  0.7051
10469TIP3    H152822   6.533   2.375   2.569 -0.2230 -0.7279  0.4536
10469TIP3    H252823   6.483   2.425   2.435 -1.9582  3.0278  2.3458
10470TIP3   OH252824   3.954   3.206  16.175 -0.6897 -0.2928  0.0021
10470TIP3    H152825   3.907   3.130  16.139  1.6374 -2.3100  0.9498
10470TIP3    H252826   3.894   3.279  16.162 -2.0323 -1.7668 -3.3282
10471TIP3   OH252827   0.162   5.112  15.026 -0.6125  0.6979  0.0511
10471TIP3    H152828   0.118   5.047  15.081 -1.6130  1.4975  0.2202
10471TIP3    H252829   0.237   5.142  15.079 -0.2425 -0.1806  0.0358
10472TIP3   OH252830   6.459   3.634  16.915 -0.1770 -0.5488 -0.1104
10472TIP3    H152831   6.510   3.715  16.910  0.9287 -1.3094 -2.0603
10472TIP3    H252832   6.524   3.565  16.921 -0.9930 -1.4622 -1.2897
10473TIP3   OH252833   6.309   2.131   0.074  0.4267  0.9579 -0.0228
10473TIP3    H152834   6.233   2.141   0.017  0.5738 -0.6891 -0.5606
10473TIP3    H252835   6.275   2.091   0.154  0.6599  0.6219 -0.0904
10474TIP3   OH252836   1.402   1.843  13.049 -0.0837  0.0021 -0.5950
10474TIP3    H152837   1.402   1.919  12.990  1.6265  0.7702  0.3111
10474TIP3    H252838   1.489   1.805  13.038 -0.4350 -1.0113  0.0017
10475TIP3   OH252839   1.876   3.711   3.423 -0.7026  0.3883 -0.2688
10475TIP3    H152840   1.961   3.747   3.449 -0.6563  1.3280 -1.5904
10475TIP3    H252841   1.876   3.716   3.327 -2.0033 -0.1888 -0.3285
10476TIP3   OH252842   3.751   5.333  10.983 -0.0129  0.3524  0.3846
10476TIP3    H152843   3.808   5.408  10.963 -0.3654  0.2499 -1.0932
10476TIP3    H252844   3.713   5.308  10.899 -1.9077  0.1289  1.2411
10477TIP3   OH252845   0.713   5.626  10.687  0.0673  0.6291 -0.0065
10477TIP3    H152846   0.704   5.535  10.659  0.0927  0.9586 -1.1247
10477TIP3    H252847   0.624   5.659  10.696  0.0385  1.0425 -1.5170
10478TIP3   OH252848   3.613   6.287   5.262 -0.1804  0.2352 -0.5148
10478TIP3    H152849   3.626   6.382   5.270 -2.8589  0.7620 -1.3526
10478TIP3    H252850   3.599   6.272   5.169  0.2468 -1.0167 -0.4024
10479TIP3   OH252851   0.093   5.528   2.745 -0.4073 -0.0384  0.0404
10479TIP3    H152852   0.126   5.483   2.823  0.4803  0.3292 -0.1080
10479TIP3    H252853   0.018   5.578   2.776 -0.4217 -0.3604  0.5354
10480TIP3   OH252854   3.723   3.619   0.116 -0.1211  0.1699 -0.0003
10480TIP3    H152855   3.746   3.606   0.208  2.9695  0.2251 -0.6725
10480TIP3    H252856   3.765   3.702   0.092  0.5736 -0.6679 -1.8640
10481TIP3   OH252857   5.836   6.700   3.453  0.6358  0.0192 -0.5581
10481TIP3    H152858   5.889   6.623   3.475 -0.2822 -0.8011 -1.1527
10481TIP3    H252859   5.772   6.668   3.389 -1.9653  0.4328  1.6471
10482TIP3   OH252860   3.956   2.246   4.798 -0.1371  0.0288  0.1111
10482TIP3    H152861   3.989   2.168   4.843 -1.2485 -0.1378  0.6918
10482TIP3    H252862   3.980   2.319   4.855  0.6100  0.0790 -0.2640
10483TIP3   OH252863   4.012   3.074  17.095 -0.2960 -0.2893  0.1097
10483TIP3    H152864   4.006   3.165  17.122 -1.0410 -0.1921 -0.3364
10483TIP3    H252865   4.102   3.063  17.065  1.1100 -0.8322  4.0162
10484TIP3   OH252866   2.670   1.361  14.352  0.0858 -0.5782 -0.1720
10484TIP3    H152867   2.651   1.347  14.260  2.6484 -0.4083 -0.7997
10484TIP3    H252868   2.722   1.284  14.378 -1.0636 -0.9113  1.3287
10485TIP3   OH252869   3.103   3.335   1.579  0.1096  0.2029  0.2929
10485TIP3    H152870   3.022   3.286   1.569 -1.2672  2.3401  0.2264
10485TIP3    H252871   3.148   3.327   1.495 -0.6371  0.0055 -0.0904
10486TIP3   OH252872   0.574   3.653  16.889  0.1058 -0.0112  0.3229
10486TIP3    H152873   0.665   3.636  16.864  0.0627 -0.8677  0.7147
10486TIP3    H252874   0.546   3.724  16.830  0.3526 -1.1882 -1.2821
10487TIP3   OH252875   4.290   4.545  16.762 -0.1425 -0.3206 -0.4756
10487TIP3    H152876   4.266   4.452  16.762  1.1611 -0.6769 -1.1810
10487TIP3    H252877   4.282   4.572  16.670  3.5123 -0.8964 -1.1313
10488TIP3   OH252878   5.278   0.685  16.426 -0.9646 -0.5619 -0.5200
10488TIP3    H152879   5.241   0.773  16.433  0.1270  0.0127 -1.6555
10488TIP3    H252880   5.349   0.684  16.490 -0.9212 -0.5987 -0.5705
10489TIP3   OH252881   0.236   1.443  16.668  0.1935 -0.3251  0.1300
10489TIP3    H152882   0.304   1.397  16.717  0.3556 -0.6076 -0.3519
10489TIP3    H252883   0.216   1.520  16.722  0.3754 -0.6190  0.6300
10490TIP3   OH252884   3.589   4.410   0.392  0.6863  0.1280  0.1687
10490TIP3    H152885   3.556   4.374   0.311 -1.6089  1.7132  0.3062
10490TIP3    H252886   3.522   4.472   0.421  2.4725  1.3548  2.0669
10491TIP3   OH252887   4.671   4.177   4.131 -0.2548  0.2594 -0.1876
10491TIP3    H152888   4.762   4.146   4.130 -0.8712 -1.6872 -1.2282
10491TIP3    H252889   4.643   4.165   4.222  0.1911 -0.2629 -0.1111
10492TIP3   OH252890   3.072   6.654   0.421  0.0674 -0.4069 -0.1230
10492TIP3    H152891   3.115   6.597   0.358 -0.8026 -2.0279  0.6959
10492TIP3    H252892   2.979   6.637   0.409 -0.1673  0.2035  0.7278
10493TIP3   OH252893   6.384   1.123   1.549 -0.1532 -0.2404  0.6614
10493TIP3    H152894   6.344   1.145   1.465  1.9447 -2.0532 -0.9309
10493TIP3    H252895   6.317   1.072   1.595 -0.7409 -0.7465 -0.6957
10494TIP3   OH252896   0.654   1.124  16.877 -0.5572  0.0990 -0.3703
10494TIP3    H152897   0.702   1.203  16.900 -1.8053  0.5471  0.8665
10494TIP3    H252898   0.632   1.134  16.784  1.0220  0.2340 -0.7427
10495TIP3   OH252899   4.531   6.158  17.147 -0.5213 -0.3588  0.4745
10495TIP3    H152900   4.448   6.127  17.181 -0.8247  0.3651  0.4221
10495TIP3    H252901   4.541   6.115  17.062 -1.1986  0.1119  0.1498
10496TIP3   OH252902   4.062   4.288  10.834  0.0758  0.3035 -0.2507
10496TIP3    H152903   4.153   4.282  10.805 -0.6749 -2.3457 -2.4539
10496TIP3    H252904   4.041   4.201  10.866 -1.3641  1.2087  1.4038
10497TIP3   OH252905   1.818   1.140  16.856 -0.7218 -0.1497 -0.3832
10497TIP3    H152906   1.783   1.103  16.937 -1.2725  1.5322  0.2009
10497TIP3    H252907   1.869   1.069  16.817 -0.9342 -1.1846  1.1269
10498TIP3   OH252908   6.607   4.303  17.323 -0.4687  0.1992 -0.0384
10498TIP3    H152909   6.695   4.273  17.345  0.3495 -0.2649 -3.3347
10498TIP3    H252910   6.594   4.274  17.232 -3.2034  2.0956 -0.3821
10499TIP3   OH252911   3.444   1.879  15.710 -0.3967  0.4985  0.7842
10499TIP3    H152912   3.365   1.929  15.693 -1.0245 -1.1306 -1.4530
10499TIP3    H252913   3.416   1.808  15.767 -0.0714  1.1168  1.7334
10500TIP3   OH252914   3.609   4.807  10.932 -0.4692  0.4970 -0.0936
10500TIP3    H152915   3.671   4.740  10.960  0.3884  2.0689  2.0138
10500TIP3    H252916   3.580   4.779  10.845  1.6227 -1.3436 -0.2574
10501TIP3   OH252917   3.614   1.165  13.050  0.4451  0.1808  0.4318
10501TIP3    H152918   3.588   1.114  12.973 -0.7610  0.5088  0.6042
10501TIP3    H252919   3.645   1.248  13.014  0.0207  0.2771  0.2748
10502TIP3   OH252920   2.831   1.632  11.876 -0.0554  0.7661 -0.0471
10502TIP3    H152921   2.925   1.626  11.858  0.1158  1.3336  0.5983
10502TIP3    H252922   2.825   1.692  11.951 -0.6737 -1.7168  2.0399
10503TIP3   OH252923   2.544   1.943   2.825  0.2787 -0.7438 -0.1821
10503TIP3    H152924   2.480   1.872   2.824 -0.0467 -0.4982  1.0541
10503TIP3    H252925   2.616   1.911   2.771  0.0872 -1.9875  0.2592
10504TIP3   OH252926   3.674   3.494   4.133  0.3487  0.1596  0.7206
10504TIP3    H152927   3.697   3.577   4.175  0.9207 -0.0738  0.8720
10504TIP3    H252928   3.737   3.485   4.061  0.7629 -0.5001  1.1604
10505TIP3   OH252929   4.103   2.991  14.065  0.3630 -0.2005  0.5387
10505TIP3    H152930   4.012   2.968  14.081  0.3788 -1.3431 -0.8072
10505TIP3    H252931   4.153   2.929  14.118  0.3567 -0.8711 -0.2144
10506TIP3   OH252932   1.879   5.693  16.414 -0.5540  0.0450 -1.0956
10506TIP3    H152933   1.845   5.634  16.481  0.9474  1.5617  1.1456
10506TIP3    H252934   1.968   5.713  16.442 -0.9508  3.3011 -1.7161
10507TIP3   OH252935   5.108   0.087   4.272 -0.0590 -0.2757  0.0662
10507TIP3    H152936   5.087   0.181   4.272 -1.1611 -0.5159 -0.2160
10507TIP3    H252937   5.089   0.058   4.361  2.1137  0.1390  0.7252
10508TIP3   OH252938   5.072   1.081   5.787 -0.0940 -0.4187  0.1358
10508TIP3    H152939   4.978   1.103   5.791 -0.0337  0.0412 -0.7199
10508TIP3    H252940   5.115   1.165   5.768  0.3761 -0.8413 -0.6979
10509TIP3   OH252941   4.347   6.359  15.991  0.1451  0.2883  0.5001
10509TIP3    H152942   4.356   6.282  15.935  0.3860  0.9863 -0.4544
10509TIP3    H252943   4.429   6.361  16.042  0.3752  0.2122  0.1374
10510TIP3   OH252944   2.085   0.329  15.459  0.0257  0.1674  0.5557
10510TIP3    H152945   2.008   0.306  15.511 -0.2964 -0.4459 -0.1682
10510TIP3    H252946   2.070   0.286  15.375 -0.9892  3.5732 -1.1917
10511TIP3   OH252947   0.283   2.020  11.300  0.2533  0.4285  0.0021
10511TIP3    H152948   0.310   2.087  11.362 -1.8653  1.1525  0.2123
10511TIP3    H252949   0.255   1.946  11.354 -1.1526  0.8866 -0.0592
10512TIP3   OH252950   3.634   0.032  13.115 -0.3924 -0.0631  0.3248
10512TIP3    H152951   3.628  -0.035  13.047 -1.1368 -1.2483  1.5235
10512TIP3    H252952   3.703   0.001  13.174 -0.1298  0.6754  0.4161
10513TIP3   OH252953   2.319   1.340  15.653  0.1434 -0.2919 -0.4176
10513TIP3    H152954   2.239   1.329  15.705  1.8104 -3.1788  1.8034
10513TIP3    H252955   2.373   1.398  15.706  0.6767 -0.7746 -0.4304
10514TIP3   OH252956   1.150   2.203   3.625 -0.4590 -0.7092  0.1118
10514TIP3    H152957   1.059   2.173   3.634 -0.9985  0.7052 -0.3043
10514TIP3    H252958   1.190   2.139   3.567 -2.0535  0.2427 -2.1965
10515TIP3   OH252959   6.063   0.706  12.392 -0.4025 -0.1357  0.0772
10515TIP3    H152960   6.108   0.776  12.344  1.1339 -1.1484 -0.0106
10515TIP3    H252961   6.051   0.636  12.329 -2.3753  0.1648  0.0372
10516TIP3   OH252962   3.615   4.599   0.058 -0.5163 -0.0278 -0.6510
10516TIP3    H152963   3.706   4.576   0.041 -0.6158 -0.3201 -0.7963
10516TIP3    H252964   3.614   4.626   0.150 -0.1338  0.7491 -0.8582
10517TIP3   OH252965   0.609   5.693  11.556 -0.1745  0.8294 -0.2423
10517TIP3    H152966   0.572   5.640  11.486  2.7732 -1.4118 -0.2821
10517TIP3    H252967   0.658   5.762  11.510  1.4546 -0.4226 -0.4560
10518TIP3   OH252968   3.893   4.600   3.366  0.8843 -0.1924  0.2146
10518TIP3    H152969   3.911   4.596   3.272  1.6039 -0.7651  0.3620
10518TIP3    H252970   3.805   4.635   3.373  0.5612 -0.8057 -0.7026
10519TIP3   OH252971   2.545   2.273   3.338  0.1088 -0.9276  0.4522
10519TIP3    H152972   2.496   2.299   3.260  0.2347 -2.8407 -0.3355
10519TIP3    H252973   2.503   2.192   3.366  1.2911 -1.3029  1.2211
10520TIP3   OH252974   6.302   0.058  16.205 -0.3815  0.2311  0.0540
10520TIP3    H152975   6.367  -0.007  16.179 -1.2987  0.3406 -2.8959
10520TIP3    H252976   6.270   0.027  16.289  0.6451 -2.0446 -0.3121
10521TIP3   OH252977   4.259   1.087  11.517 -0.7021 -0.0616  0.8819
10521TIP3    H152978   4.275   1.003  11.561 -2.4781 -1.4470 -0.9230
10521TIP3    H252979   4.164   1.098  11.519 -0.8115  0.2122 -1.6938
10522TIP3   OH252980   5.453   2.667   5.227 -0.0651  0.6213 -0.8440
10522TIP3    H152981   5.370   2.704   5.255  0.0871 -0.2235  0.8713
10522TIP3    H252982   5.439   2.643   5.135 -1.3241  1.5251 -0.9144
10523TIP3   OH252983   2.506   5.122  11.586 -0.1190 -0.0888 -0.2293
10523TIP3    H152984   2.521   5.173  11.666 -1.0248  0.9817 -0.7245
10523TIP3    H252985   2.569   5.156  11.523 -1.0140  0.7543 -0.6944
10524TIP3   OH252986   2.763   0.605  11.245 -0.3984  0.2973  0.3000
10524TIP3    H152987   2.761   0.511  11.226 -2.3770  0.5981 -1.3460
10524TIP3    H252988   2.815   0.643  11.174  1.2788  0.3901  1.5263
10525TIP3   OH252989   1.100   6.143  12.280  0.0269  0.3797 -0.5942
10525TIP3    H152990   1.028   6.197  12.247 -0.3220  0.8348  0.8433
10525TIP3    H252991   1.129   6.188  12.359  1.3203 -0.2756 -0.6758
10526TIP3   OH252992   3.604   2.864  12.564  0.1643 -0.6154  0.2346
10526TIP3    H152993   3.536   2.819  12.612 -0.2251  0.5503  0.8237
10526TIP3    H252994   3.595   2.956  12.590  1.3496 -0.2935 -0.3963
10527TIP3   OH252995   4.536   6.410  10.784 -0.0899 -0.0059  0.0966
10527TIP3    H152996   4.539   6.360  10.703 -0.0437  1.0369 -0.5591
10527TIP3    H252997   4.604   6.370  10.839  1.0498  0.3541 -1.0120
10528TIP3   OH252998   5.620   6.128   4.753 -0.2472 -0.5524 -0.0721
10528TIP3    H152999   5.539   6.129   4.802  0.1381  1.3471  0.6323
10528TIP3    H253000   5.655   6.040   4.764 -0.8117 -0.5641  2.0136
10529TIP3   OH253001   2.764   5.184  11.777  0.7107  0.1968  0.5244
10529TIP3    H153002   2.796   5.139  11.698 -0.4433  0.5280 -0.1476
10529TIP3    H253003   2.731   5.113  11.833  0.8891  0.0239  0.4129
10530TIP3   OH253004   2.903   3.030   2.399  0.3966  0.2732 -0.1934
10530TIP3    H153005   2.949   2.946   2.403 -0.6031 -0.2814  0.0432
10530TIP3    H253006   2.826   3.017   2.454 -0.2833  1.0278 -0.9513
10531TIP3   OH253007   0.165   4.569  11.335  0.1367  0.1424  0.0863
10531TIP3    H153008   0.096   4.615  11.383 -0.1965  0.6859 -0.8803
10531TIP3    H253009   0.127   4.554  11.248  0.7755 -0.6926 -0.0599
10532TIP3   OH253010   0.744   5.903   0.507  0.4514 -0.1152  0.2960
10532TIP3    H153011   0.725   5.939   0.420  0.3144  0.3653  0.5292
10532TIP3    H253012   0.731   5.808   0.496  0.5319 -0.0711 -0.2325
10533TIP3   OH253013   1.126   2.586   6.361  0.1420  1.0661 -0.0265
10533TIP3    H153014   1.214   2.603   6.394 -0.9354  1.4559  2.8874
10533TIP3    H253015   1.081   2.670   6.367 -0.9773  0.4558  0.3313
10534TIP3   OH253016   5.860   5.435   5.090  0.5831  0.1066 -0.0144
10534TIP3    H153017   5.800   5.461   5.160  0.5601  1.0560 -0.3732
10534TIP3    H253018   5.851   5.340   5.085 -0.7830  0.2173  0.0406
10535TIP3   OH253019   3.531   1.185  12.700 -0.2959 -0.2793  0.1719
10535TIP3    H153020   3.540   1.116  12.766 -0.5382 -0.3828  0.0970
10535TIP3    H253021   3.621   1.203  12.672 -0.3345 -1.8629 -1.1453
10536TIP3   OH253022   3.246   1.595  12.063  0.7183 -0.2269  0.4534
10536TIP3    H153023   3.322   1.634  12.105 -0.2384  0.5930  1.5081
10536TIP3    H253024   3.210   1.536  12.129 -0.7510  1.0023  0.8192
10537TIP3   OH253025   5.378   1.802   2.515 -0.0461  0.0700 -0.5967
10537TIP3    H153026   5.325   1.834   2.588 -2.2535 -1.1202 -1.6048
10537TIP3    H253027   5.460   1.851   2.522 -0.4700  0.5583  2.1987
10538TIP3   OH253028   2.811   5.006  11.260 -0.1206 -0.2042 -0.1532
10538TIP3    H153029   2.765   4.959  11.191 -0.3589 -0.2566  0.0405
10538TIP3    H253030   2.904   4.989  11.242 -0.1357  0.6500 -1.0661
10539TIP3   OH253031   6.018   1.623   4.824 -0.7110  0.2314 -0.3728
10539TIP3    H153032   5.923   1.631   4.828 -0.6179  1.2323  3.2807
10539TIP3    H253033   6.038   1.545   4.876  0.4769  0.6446 -0.1784
10540TIP3   OH253034   2.159   4.113  13.844 -0.4174  0.5898  0.5124
10540TIP3    H153035   2.206   4.040  13.885 -1.8158 -0.8545 -0.3207
10540TIP3    H253036   2.092   4.137  13.909 -1.4731 -0.4994 -0.1200
10541TIP3   OH253037   3.999   4.533   0.419  0.1711  0.0005 -0.7796
10541TIP3    H153038   4.007   4.580   0.336  0.8110 -0.4457 -0.9861
10541TIP3    H253039   4.054   4.582   0.480 -1.4170  1.1474 -0.2217
10542TIP3   OH253040   5.983   2.017  10.965  0.0115  0.1116 -0.2066
10542TIP3    H153041   6.045   2.065  10.910 -1.0106  0.5717 -0.9952
10542TIP3    H253042   5.964   1.937  10.916  0.1296 -0.1267  0.1285
10543TIP3   OH253043   4.519   3.589   4.789  0.1171  0.2644 -0.2086
10543TIP3    H153044   4.465   3.595   4.868  0.4251 -0.5768  0.0786
10543TIP3    H253045   4.527   3.679   4.759 -1.9086  0.3682 -0.5714
10544TIP3   OH253046   6.357   6.010   5.634  0.1856  0.3065  0.1437
10544TIP3    H153047   6.432   6.067   5.623  0.8690 -0.7428 -0.7931
10544TIP3    H253048   6.328   5.989   5.545 -0.2029 -0.5892  0.4614
10545TIP3   OH253049   5.204   5.829   4.071 -0.0778  0.0873  0.0862
10545TIP3    H153050   5.146   5.887   4.121 -0.8419 -1.0563  0.5622
10545TIP3    H253051   5.279   5.885   4.047  0.6699  0.5242  3.0931
10546TIP3   OH253052   2.881   6.536  13.045 -0.6333 -0.1445  0.0540
10546TIP3    H153053   2.975   6.540  13.027 -0.6761  1.7910  0.0312
10546TIP3    H253054   2.872   6.565  13.136 -1.1541 -1.1453  0.3368
10547TIP3   OH253055   1.507   1.732  12.454 -0.0132 -0.1972 -0.3292
10547TIP3    H153056   1.490   1.817  12.413 -0.1072 -0.2059 -0.3085
10547TIP3    H253057   1.603   1.729  12.464  0.0068 -0.1787 -0.5088
10548TIP3   OH253058   2.276   4.025   1.525 -0.3965 -0.0996  0.3560
10548TIP3    H153059   2.309   4.103   1.571  0.3140  0.0364 -0.3609
10548TIP3    H253060   2.209   4.059   1.466  0.3320  0.0597 -0.3876
10549TIP3   OH253061   1.527   4.980  15.180 -0.3056  0.1744 -0.0744
10549TIP3    H153062   1.560   4.911  15.236  0.9955  1.2255  0.5179
10549TIP3    H253063   1.503   5.051  15.240 -3.8999 -0.5390 -0.4437
10550TIP3   OH253064   1.335   4.082  16.784  0.6075  0.1755 -0.1862
10550TIP3    H153065   1.284   4.020  16.837  0.4045  0.8913  0.4707
10550TIP3    H253066   1.314   4.168  16.820  1.6397  0.5540 -0.4539
10551TIP3   OH253067   0.244   4.685   0.527 -0.1778  0.4691 -0.1121
10551TIP3    H153068   0.240   4.744   0.452  2.3525  1.4282  0.4349
10551TIP3    H253069   0.214   4.600   0.493 -1.4499  1.4488 -1.5372
10552TIP3   OH253070   0.231   1.904  16.999  0.3081 -0.0124  0.3344
10552TIP3    H153071   0.296   1.944  16.942 -0.6359 -0.2894 -0.9914
10552TIP3    H253072   0.282   1.857  17.065  1.4302  1.6550  0.7208
10553TIP3   OH253073   2.092   2.632  14.889  0.1255  0.1669  0.1668
10553TIP3    H153074   2.097   2.591  14.802  1.3893 -0.4929  0.5251
10553TIP3    H253075   2.183   2.633  14.920 -0.2738  0.6765  1.3579
10554TIP3   OH253076   2.737   1.539   4.795  0.4147  0.2626 -0.7247
10554TIP3    H153077   2.733   1.535   4.699  0.0525  1.2034 -0.7591
10554TIP3    H253078   2.758   1.631   4.814  1.9943 -0.2301  0.0666
10555TIP3   OH253079   2.175   2.565  11.752  0.2494 -1.1149  0.2224
10555TIP3    H153080   2.154   2.525  11.667  1.1748 -1.1109 -0.0098
10555TIP3    H253081   2.167   2.659  11.737  1.5092 -1.0515 -0.1780
10556TIP3   OH253082   0.848   3.992   3.011 -0.1733 -0.7549  0.3774
10556TIP3    H153083   0.905   3.982   3.087 -0.0431 -0.5103  0.3139
10556TIP3    H253084   0.893   3.945   2.941  0.3324  0.0812  0.1329
10557TIP3   OH253085   6.654   2.742   4.867  0.0897  0.4224 -0.3488
10557TIP3    H153086   6.595   2.690   4.922  1.8420  0.4466  1.7001
10557TIP3    H253087   6.670   2.687   4.791 -1.6174 -0.0787 -0.3841
10558TIP3   OH253088   1.436   6.282  12.415  0.4694  0.4675 -1.0583
10558TIP3    H153089   1.438   6.256  12.323  0.7122 -2.2599 -0.3554
10558TIP3    H253090   1.349   6.258  12.445  0.0606  2.1897 -0.7471
10559TIP3   OH253091   0.435   1.066   1.469 -0.2625  0.9066  0.0199
10559TIP3    H153092   0.495   1.046   1.541 -0.4224  0.1181 -0.0555
10559TIP3    H253093   0.422   0.982   1.425  1.6201  1.7227 -2.3360
10560TIP3   OH253094   6.081   4.241  17.314 -0.3583 -0.0708  0.3613
10560TIP3    H153095   6.055   4.281  17.231 -0.3580 -0.2970  0.2513
10560TIP3    H253096   6.043   4.153  17.311  1.2120 -0.7630 -0.2224
10561TIP3   OH253097   5.319   3.999   4.432  0.0910  0.3743 -0.0766
10561TIP3    H153098   5.235   4.046   4.429  0.6005  1.2644 -1.3284
10561TIP3    H253099   5.352   4.017   4.520 -0.0972  1.7644 -0.2576
10562TIP3   OH253100   0.464   0.258  11.046 -0.5103  0.0809 -0.3106
10562TIP3    H153101   0.463   0.209  10.963  3.6423 -0.1608 -0.4335
10562TIP3    H253102   0.490   0.193  11.112 -0.1054  1.0213  0.4839
10563TIP3   OH253103   3.133   2.256  13.791 -0.5766  0.5381  0.4375
10563TIP3    H153104   3.056   2.198  13.791 -1.1423  1.1955  2.8896
10563TIP3    H253105   3.107   2.330  13.736 -0.6332 -0.4995 -0.9923
10564TIP3   OH253106   0.696   5.182   4.533 -0.6228  0.2040  0.2700
10564TIP3    H153107   0.612   5.191   4.578  0.2951 -0.7692  2.3162
10564TIP3    H253108   0.728   5.271   4.523 -1.8279  0.5796 -0.4445
10565TIP3   OH253109   4.225   4.648  15.410 -0.5516  0.2487  0.0312
10565TIP3    H153110   4.255   4.609  15.492 -0.7627 -0.1572 -0.0785
10565TIP3    H253111   4.270   4.732  15.405 -0.2012  0.0846  0.3511
10566TIP3   OH253112   0.789   3.460   4.715  0.5694 -0.0809 -0.0065
10566TIP3    H153113   0.840   3.514   4.775  0.0392  0.4192  0.0041
10566TIP3    H253114   0.700   3.464   4.749  0.8752 -2.8554  1.3245
10567TIP3   OH253115   4.418   3.491  14.261  0.2347 -0.0059  0.3762
10567TIP3    H153116   4.433   3.528  14.174 -0.3574 -0.6350 -0.0065
10567TIP3    H253117   4.477   3.540  14.318  2.0336 -0.8500 -0.6607
10568TIP3   OH253118   2.114   0.836   4.492  0.3957  0.4828 -0.0311
10568TIP3    H153119   2.181   0.794   4.546  0.5397  1.7863  0.8690
10568TIP3    H253120   2.031   0.801   4.525  0.5999 -0.7012 -0.7555
10569TIP3   OH253121   2.509   0.310  12.003 -0.1632  0.3358  0.2923
10569TIP3    H153122   2.510   0.405  12.004 -1.0584  0.3597 -0.1538
10569TIP3    H253123   2.416   0.286  11.999  0.0629 -0.5376 -0.1013
10570TIP3   OH253124   3.091   3.267  13.364  0.0469  0.1925 -0.4004
10570TIP3    H153125   3.172   3.264  13.313  0.3972 -1.8734  0.1905
10570TIP3    H253126   3.120   3.268  13.456 -0.5764 -0.4260 -0.1856
10571TIP3   OH253127   4.377   2.439  14.588 -0.0379 -0.1592 -0.3177
10571TIP3    H153128   4.422   2.468  14.667 -1.8228  0.6463  0.4537
10571TIP3    H253129   4.432   2.472  14.516  1.1434 -0.1376  0.5624
10572TIP3   OH253130   1.156   1.104   6.005  0.1093  0.1667  0.4407
10572TIP3    H153131   1.235   1.091   6.057  1.7421 -0.0077 -1.9433
10572TIP3    H253132   1.129   1.194   6.025  0.8710  0.2220  1.3005
10573TIP3   OH253133   3.340   3.028   6.625  0.3152  0.6157 -0.1971
10573TIP3    H153134   3.371   2.966   6.692 -2.0392 -0.8766 -0.3585
10573TIP3    H253135   3.293   3.095   6.675 -0.4124  0.1509 -0.2368
10574TIP3   OH253136   3.107   2.591   3.105  0.1746  0.0277  0.0228
10574TIP3    H153137   3.034   2.603   3.043  0.2027 -0.5537 -0.1239
10574TIP3    H253138   3.072   2.533   3.172  1.4314 -2.8845 -1.6761
10575TIP3   OH253139   3.037   2.912   3.281 -0.7955 -0.3536 -0.3002
10575TIP3    H153140   2.980   2.836   3.295  0.1753 -1.0176  0.1492
10575TIP3    H253141   2.984   2.971   3.227 -0.6998 -2.4382 -2.8991
10576TIP3   OH253142   4.415   0.423  15.598  0.1305  0.0550  0.6299
10576TIP3    H153143   4.359   0.411  15.521  1.3669  0.4077 -0.3601
10576TIP3    H253144   4.364   0.480  15.656 -0.2131  1.0592 -0.6175
10577TIP3   OH253145   3.930   5.061  12.948 -0.0078 -0.2078 -0.1850
10577TIP3    H153146   4.019   5.096  12.949  0.6521 -1.8344  0.9520
10577TIP3    H253147   3.876   5.132  12.983  0.8995  0.5890 -0.3554
10578TIP3   OH253148   0.791   3.566   6.600  0.0415 -0.6296  0.1899
10578TIP3    H153149   0.823   3.506   6.667  1.2763 -0.0461  0.1483
10578TIP3    H253150   0.848   3.643   6.607 -0.0739 -0.3864 -1.2446
10579TIP3   OH253151   2.017   5.307   3.007 -0.0993  0.2802 -0.1438
10579TIP3    H153152   2.102   5.352   3.002  0.3168 -0.6044 -1.6029
10579TIP3    H253153   2.016   5.248   2.932 -1.7047 -0.2947  0.2773
10580TIP3   OH253154   6.658   4.537  14.594 -0.7126 -0.0819  0.1263
10580TIP3    H153155   6.677   4.626  14.623 -1.1980  0.5213 -1.3164
10580TIP3    H253156   6.587   4.546  14.531  0.3612 -1.2691 -1.3461
10581TIP3   OH253157   1.821   0.886   5.474 -0.0719  0.3609 -0.8446
10581TIP3    H153158   1.755   0.949   5.504 -0.2688 -0.2660  0.0689
10581TIP3    H253159   1.841   0.914   5.384 -0.8044  1.1884 -0.7680
10582TIP3   OH253160   4.652   5.474   3.690 -0.0123  0.5736  0.4839
10582TIP3    H153161   4.563   5.441   3.702  0.8544 -2.6313 -0.7004
10582TIP3    H253162   4.641   5.558   3.646 -2.4368  0.1296  0.0929
10583TIP3   OH253163   3.049   0.070   4.000 -0.0182 -0.3104 -0.0870
10583TIP3    H153164   2.977   0.031   3.951 -1.1845  2.2749 -0.6109
10583TIP3    H253165   3.111   0.098   3.933  1.4999 -2.4299  0.3586
10584TIP3   OH253166   2.676   3.868   4.354  0.1307 -0.0915 -0.3971
10584TIP3    H153167   2.715   3.833   4.434  1.4412 -2.9477 -2.1428
10584TIP3    H253168   2.584   3.844   4.360  0.0936  0.2322  0.4852
10585TIP3   OH253169   4.286   3.374  12.735 -0.2681  0.4551 -0.6683
10585TIP3    H153170   4.233   3.381  12.656 -0.1103 -2.2183 -1.0870
10585TIP3    H253171   4.232   3.414  12.803 -1.9956 -0.4111 -1.4571
10586TIP3   OH253172   4.669   3.805   0.126  0.5750 -0.0828 -0.2545
10586TIP3    H153173   4.665   3.855   0.208 -1.9786 -3.1524  1.7340
10586TIP3    H253174   4.753   3.759   0.130  0.6393  0.0759  0.4552
10587TIP3   OH253175   3.957   5.776  11.379  0.5535  0.3339  0.5920
10587TIP3    H153176   3.881   5.819  11.417 -0.7689 -1.1329 -0.2592
10587TIP3    H253177   3.977   5.827  11.300 -0.0949  0.2230  0.3559
10588TIP3   OH253178   0.097   6.608   2.910 -0.4403  0.5662  0.2845
10588TIP3    H153179   0.022   6.647   2.863  1.4045  0.5157 -2.9672
10588TIP3    H253180   0.066   6.521   2.936 -3.0434  2.2101  3.4816
10589TIP3   OH253181   3.479   4.267   2.738  0.0715  0.2233 -0.0162
10589TIP3    H153182   3.529   4.227   2.667 -0.8528 -0.6028 -0.2118
10589TIP3    H253183   3.394   4.288   2.699 -0.0922  0.6981  0.5786
10590TIP3   OH253184   3.442   1.317  14.841 -0.2004  0.1291 -0.1662
10590TIP3    H153185   3.444   1.231  14.800  1.7373  0.0293  0.0524
10590TIP3    H253186   3.378   1.308  14.912  0.6317 -1.4293  0.4336
10591TIP3   OH253187   6.670   1.929  15.883  0.5075 -0.5206  0.1708
10591TIP3    H153188   6.719   1.951  15.962  0.0652 -0.9299  0.5642
10591TIP3    H253189   6.642   2.013  15.849  2.2249 -0.1981 -0.5644
10592TIP3   OH253190   3.686   3.359  14.581  0.3400  0.1866  0.1567
10592TIP3    H153191   3.675   3.404  14.498 -1.1928  0.7292  0.6135
10592TIP3    H253192   3.645   3.273  14.568  1.9392 -0.5450 -0.2581
10593TIP3   OH253193   4.478   4.369   1.719 -0.4563 -0.0432 -0.2792
10593TIP3    H153194   4.412   4.437   1.712  0.4023  0.9537  0.8482
10593TIP3    H253195   4.435   4.298   1.766 -0.2763  1.2877  2.0335
10594TIP3   OH253196   6.748   2.066  13.055 -0.6896 -0.0252 -0.2013
10594TIP3    H153197   6.720   2.148  13.014  1.6923  0.7226 -0.4728
10594TIP3    H253198   6.795   2.019  12.986  1.6368  0.3475  1.0114
10595TIP3   OH253199   1.428   2.309   1.134 -0.1144  0.3274 -0.0348
10595TIP3    H153200   1.501   2.342   1.186  0.9371 -0.7758 -0.7523
10595TIP3    H253201   1.399   2.229   1.180 -0.5509  0.4858 -0.0260
10596TIP3   OH253202   2.929   3.614   2.740  0.3573 -0.3733  0.3720
10596TIP3    H153203   2.881   3.574   2.812  0.3391  0.8114  1.0452
10596TIP3    H253204   3.021   3.604   2.765  0.3939 -0.8523  0.0604
10597TIP3   OH253205   1.560   3.054   5.308  0.2093 -0.8040  0.2007
10597TIP3    H153206   1.546   3.144   5.280 -0.9108 -0.3437  2.0894
10597TIP3    H253207   1.595   3.061   5.396  1.2521 -2.2200 -0.0602
10598TIP3   OH253208   0.059   4.442   0.183  0.3270 -0.0223 -0.4125
10598TIP3    H153209   0.124   4.508   0.206  0.1920 -0.1387  0.3161
10598TIP3    H253210   0.063   4.437   0.087  0.5134  0.8604 -0.4562
10599TIP3   OH253211   5.100   6.045   4.572 -0.0859  0.4109  0.2514
10599TIP3    H153212   5.021   6.059   4.520  0.8596 -0.5566 -1.5395
10599TIP3    H253213   5.126   6.133   4.600 -0.2137  1.0834 -1.5830
10600TIP3   OH253214   4.497   2.412   5.042 -0.4198 -0.0698  0.0710
10600TIP3    H153215   4.429   2.368   5.093 -1.2915 -2.2554 -2.6738
10600TIP3    H253216   4.448   2.464   4.978  0.4992 -0.3426 -0.8688
10601TIP3   OH253217   2.079   2.755  14.250 -0.1644  0.3511 -0.2609
10601TIP3    H153218   2.142   2.798  14.307  2.7529 -0.3381 -2.7304
10601TIP3    H253219   2.029   2.826  14.211 -1.1044  0.8997  1.7765
10602TIP3   OH253220   2.011   5.624   1.930  0.3335  0.4485 -0.6038
10602TIP3    H153221   2.056   5.549   1.968 -0.5593 -0.2651 -0.9249
10602TIP3    H253222   2.080   5.676   1.888  1.0791  0.3178  0.4473
10603TIP3   OH253223   4.738   3.266   3.954 -0.0119 -0.3848  0.0052
10603TIP3    H153224   4.825   3.282   3.989  0.6977 -0.2209 -1.7588
10603TIP3    H253225   4.686   3.342   3.983  0.2381 -0.7801  1.5716
10604TIP3   OH253226   0.831   5.847  12.446  0.1787  0.0476 -0.2151
10604TIP3    H153227   0.879   5.863  12.527 -0.7526 -1.6208  0.7283
10604TIP3    H253228   0.774   5.924  12.438  0.2545  0.2269  0.7389
10605TIP3   OH253229   3.557   5.187   3.180 -0.0989  0.1240 -0.3042
10605TIP3    H153230   3.508   5.168   3.100 -0.3164  1.2807 -0.4637
10605TIP3    H253231   3.648   5.189   3.153  0.1555 -2.7327  0.1251
10606TIP3   OH253232   0.757   4.638   6.092 -0.4902 -0.3544 -0.9786
10606TIP3    H153233   0.683   4.687   6.127  0.7999  0.2537  1.0385
10606TIP3    H253234   0.743   4.548   6.121  0.0367 -0.0494  0.2857
10607TIP3   OH253235   5.321   6.743   2.435  0.2560  0.1156 -0.0422
10607TIP3    H153236   5.384   6.684   2.395 -1.0094 -0.1211 -1.8452
10607TIP3    H253237   5.366   6.779   2.511  1.2457 -2.7523  0.8438
10608TIP3   OH253238   4.067   4.494  11.194  0.0037  0.0109 -0.0397
10608TIP3    H153239   3.980   4.526  11.220  1.1211  1.9136  1.5912
10608TIP3    H253240   4.087   4.541  11.113 -0.6903 -0.9280 -0.7979
10609TIP3   OH253241   1.864   1.926   4.213 -0.1202 -0.2275  0.1388
10609TIP3    H153242   1.778   1.918   4.255  0.6938  0.7252  2.1111
10609TIP3    H253243   1.847   1.912   4.120 -2.5631  0.8668  0.3549
10610TIP3   OH253244   3.451   4.854  10.603  0.7028  0.3496  0.4030
10610TIP3    H153245   3.365   4.818  10.583  1.1030 -1.1043  1.1636
10610TIP3    H253246   3.437   4.907  10.681  0.4222  0.4628  0.2768
10611TIP3   OH253247   4.181   6.420   5.460  0.5380 -0.1641 -0.0769
10611TIP3    H153248   4.105   6.464   5.421 -0.0552  1.1422  2.3486
10611TIP3    H253249   4.241   6.490   5.481  2.2393 -1.1412 -1.4100
10612TIP3   OH253250   5.191   2.239   0.466  0.0957  0.1102  0.1830
10612TIP3    H153251   5.235   2.166   0.511  0.7688 -0.7875 -1.8129
10612TIP3    H253252   5.151   2.199   0.389 -0.6137  1.6615 -0.2888
10613TIP3   OH253253   1.380   3.618  11.888 -0.3032  0.1018 -0.6723
10613TIP3    H153254   1.298   3.570  11.879 -1.1384  1.7344 -2.4606
10613TIP3    H253255   1.434   3.586  11.816  0.5496 -0.7195  0.2998
10614TIP3   OH253256   1.760   5.592   0.795  0.9136 -0.3996 -0.0411
10614TIP3    H153257   1.786   5.650   0.724  2.0331  1.0062  1.4430
10614TIP3    H253258   1.666   5.603   0.803  1.2857  2.8499  1.4578
10615TIP3   OH253259   1.499   6.366   4.040  0.7250 -1.0568  0.5313
10615TIP3    H153260   1.435   6.386   3.971  2.2087  0.6038 -0.4589
10615TIP3    H253261   1.552   6.295   4.004  1.2285 -0.4790  0.1029
10616TIP3   OH253262   5.342   2.609   5.826 -0.2646 -0.5322  0.6074
10616TIP3    H153263   5.302   2.593   5.741  0.1794  0.4072  0.2104
10616TIP3    H253264   5.394   2.531   5.844 -0.4138 -0.7599  0.0434
10617TIP3   OH253265   4.973   5.361  14.852  0.9013  0.2600 -0.3571
10617TIP3    H153266   5.068   5.348  14.854  0.6751 -1.9313 -1.0496
10617TIP3    H253267   4.942   5.320  14.933  0.5480  1.2504  0.0248
10618TIP3   OH253268   6.733   4.207  12.280 -0.0943 -0.5159  0.0473
10618TIP3    H153269   6.787   4.176  12.354  0.5602  1.5936  0.5220
10618TIP3    H253270   6.650   4.231  12.320  0.0282  0.0174 -0.0229
10619TIP3   OH253271   5.433   4.481   1.873 -0.6387 -0.0337 -0.1100
10619TIP3    H153272   5.501   4.504   1.810 -0.2701  1.0191  0.6424
10619TIP3    H253273   5.482   4.455   1.952 -1.0922 -1.0000 -0.1333
10620TIP3   OH253274   2.400   4.900   3.198 -0.4883 -0.5047 -0.1645
10620TIP3    H153275   2.330   4.940   3.251 -0.9322 -1.6798  0.1834
10620TIP3    H253276   2.397   4.807   3.221  0.3873 -0.7798 -1.0710
10621TIP3   OH253277   3.470   0.778   5.468 -0.0335 -0.8198 -0.3181
10621TIP3    H153278   3.498   0.822   5.549 -1.4538  0.0316 -0.2500
10621TIP3    H253279   3.474   0.685   5.489 -2.3598 -0.6215  1.5329
10622TIP3   OH253280   0.607   6.629  15.427  0.1158 -0.2426 -0.2162
10622TIP3    H153281   0.567   6.703  15.382  0.8924  0.4056  0.1253
10622TIP3    H253282   0.582   6.553  15.376  0.2356  0.3781 -1.2151
10623TIP3   OH253283   3.248   5.509   5.840 -0.5397  0.4311  0.5163
10623TIP3    H153284   3.169   5.464   5.809 -0.8456  1.1900  0.1773
10623TIP3    H253285   3.243   5.504   5.935 -0.1064 -1.0339  0.4852
10624TIP3   OH253286   4.892   1.655   1.064  0.1511  0.7816 -0.0280
10624TIP3    H153287   4.820   1.595   1.084 -0.8176  1.7592 -0.4916
10624TIP3    H253288   4.943   1.610   0.997 -1.7729  1.2994 -1.9674
10625TIP3   OH253289   5.742   5.635  15.320  0.1437  0.0386 -0.0020
10625TIP3    H153290   5.789   5.571  15.266  2.3010  1.2350  0.3622
10625TIP3    H253291   5.759   5.608  15.410  0.3948  0.6538  0.1374
10626TIP3   OH253292   3.413   5.353  13.398 -0.3569 -0.3406  0.4702
10626TIP3    H153293   3.373   5.436  13.374  0.6188 -0.1230 -0.4599
10626TIP3    H253294   3.352   5.315  13.461 -0.9564  0.9418  0.7038
10627TIP3   OH253295   3.871   6.236  15.698  0.2293  0.5960 -0.1713
10627TIP3    H153296   3.896   6.313  15.748  0.8624  0.0359  0.3854
10627TIP3    H253297   3.951   6.207  15.656  0.9467 -1.8850  2.5482
10628TIP3   OH253298   5.586   4.778  15.529  0.7318 -0.2937  0.0190
10628TIP3    H153299   5.592   4.820  15.443  2.2741  2.2610  1.2364
10628TIP3    H253300   5.641   4.700  15.522 -1.0824 -1.5209 -1.9249
10629TIP3   OH253301   3.183   4.051  12.617 -0.7439 -0.2138  0.0260
10629TIP3    H153302   3.099   4.091  12.594 -1.6341 -0.8775  1.9534
10629TIP3    H253303   3.209   4.004  12.537 -0.9976  1.8862 -1.3756
10630TIP3   OH253304   1.466   2.438   2.126 -0.0029  0.4912 -0.0625
10630TIP3    H153305   1.527   2.435   2.200  0.0308  1.1930 -0.0584
10630TIP3    H253306   1.493   2.515   2.075 -1.1014  1.0368  0.1413
10631TIP3   OH253307   3.710   4.259  12.185 -0.1831 -0.0479 -0.2532
10631TIP3    H153308   3.635   4.315  12.164 -1.3285 -0.8380  1.4749
10631TIP3    H253309   3.699   4.181  12.131  0.6895  0.7868 -1.6872
10632TIP3   OH253310   4.311   6.550  10.939  0.1997  0.1458  0.0875
10632TIP3    H153311   4.381   6.525  10.879  0.9156  1.9936  0.1123
10632TIP3    H253312   4.249   6.599  10.885  0.9264  1.9597  0.8416
10633TIP3   OH253313   0.020   1.166   5.759 -0.8797  0.2715  0.5841
10633TIP3    H153314   0.021   1.161   5.663 -1.2817 -0.0660  0.5945
10633TIP3    H253315  -0.048   1.104   5.785  0.7094 -1.2919  1.1909
10634TIP3   OH253316   5.782   3.305   5.444  0.5163 -0.2744  0.1827
10634TIP3    H153317   5.733   3.239   5.395  1.9775 -0.8268 -0.6125
10634TIP3    H253318   5.795   3.265   5.530  0.2159 -0.4397  0.1526
10635TIP3   OH253319   4.864   4.956   1.160  0.1251 -0.3729  0.0437
10635TIP3    H153320   4.947   4.972   1.115 -0.1294  1.2416  0.0803
10635TIP3    H253321   4.798   4.962   1.090 -0.0590 -0.4475  0.2111
10636TIP3   OH253322   3.155   0.736   2.454 -0.2950 -0.0137 -0.3886
10636TIP3    H153323   3.248   0.760   2.463 -0.4956  0.8446 -0.5253
10636TIP3    H253324   3.152   0.644   2.479  0.4866  0.1287  0.2757
10637TIP3   OH253325   5.034   3.796  14.793 -0.4702  0.0524 -0.2624
10637TIP3    H153326   5.072   3.739  14.860  0.4497 -0.4348 -1.1755
10637TIP3    H253327   4.958   3.835  14.836 -0.9316 -1.5853  0.5240
10638TIP3   OH253328   1.050   2.646   2.387  0.3905  0.0841 -0.2143
10638TIP3    H153329   1.089   2.631   2.301 -0.2236 -1.7395 -0.2264
10638TIP3    H253330   1.113   2.701   2.433  1.3147  0.0679 -1.4080
10639TIP3   OH253331   0.641   2.030  16.357 -0.3436  0.3067  0.4581
10639TIP3    H153332   0.591   2.110  16.369  0.7069  0.9889  0.3726
10639TIP3    H253333   0.732   2.058  16.355 -0.0016 -0.7742 -0.5234
10640TIP3   OH253334   3.297   0.597  16.208  0.1274  0.3806  0.3718
10640TIP3    H153335   3.326   0.557  16.126  0.5624  1.0779  0.1775
10640TIP3    H253336   3.366   0.577  16.271 -0.6468 -0.9775  0.8445
10641TIP3   OH253337   6.543   4.386  15.820 -0.0690  0.0331  0.5633
10641TIP3    H153338   6.606   4.430  15.877  0.1490  0.8313 -0.2764
10641TIP3    H253339   6.556   4.293  15.838  0.3169  0.2437  1.4716
10642TIP3   OH253340   4.678   4.054  16.667 -0.1956  0.2493 -0.9841
10642TIP3    H153341   4.642   3.972  16.634 -0.7382  0.3527 -0.6576
10642TIP3    H253342   4.762   4.029  16.706 -1.0416 -0.4053  0.4687
10643TIP3   OH253343   3.246   4.266   0.118  0.1929  0.0145  0.1263
10643TIP3    H153344   3.222   4.249   0.027 -1.6504  0.7350  0.4180
10643TIP3    H253345   3.341   4.257   0.121  0.0381 -3.2605 -1.1630
10644TIP3   OH253346   6.084   2.389   0.426  0.5531  0.0613 -0.6479
10644TIP3    H153347   6.111   2.310   0.473  0.6006 -0.5196 -1.6074
10644TIP3    H253348   6.165   2.433   0.403  0.5001  1.5683  1.7361
10645TIP3   OH253349   2.900   4.255   4.812  0.1968  0.3059 -0.5447
10645TIP3    H153350   2.951   4.329   4.781  1.1166 -0.3424 -0.6129
10645TIP3    H253351   2.813   4.291   4.828  0.5496  1.3291 -0.8587
10646TIP3   OH253352   6.205   2.572   2.342  0.0339 -0.1895  0.3642
10646TIP3    H153353   6.128   2.527   2.376 -0.0043 -0.2757  0.1605
10646TIP3    H253354   6.241   2.513   2.276  1.3817 -1.0370  1.7758
10647TIP3   OH253355   6.624   3.546   0.871  0.5980 -0.0527 -0.0717
10647TIP3    H153356   6.552   3.576   0.927 -0.0361  1.3406 -1.5414
10647TIP3    H253357   6.668   3.627   0.846  1.2038 -0.6994 -1.1234
10648TIP3   OH253358   4.271   5.925   0.231 -0.0366 -0.2559 -0.2638
10648TIP3    H153359   4.248   5.936   0.139 -0.0132 -0.5420 -0.3053
10648TIP3    H253360   4.202   5.868   0.266 -1.2279  1.4953  0.4019
10649TIP3   OH253361   6.096   1.299  14.323 -0.0073 -0.5175 -0.0374
10649TIP3    H153362   6.062   1.341  14.402  0.3512 -1.2935  0.5381
10649TIP3    H253363   6.190   1.297  14.336 -0.0698 -2.3474  0.3949
10650TIP3   OH253364   2.134   5.777  13.593 -0.4423 -0.2367 -0.4120
10650TIP3    H153365   2.123   5.762  13.499  1.0841 -1.1079 -0.4740
10650TIP3    H253366   2.152   5.691  13.629  0.7860  0.3425  0.4127
10651TIP3   OH253367   4.247   1.760   4.660  0.2130 -0.6884  0.0323
10651TIP3    H153368   4.327   1.812   4.654  1.1201 -2.0994 -0.5122
10651TIP3    H253369   4.184   1.807   4.606  1.2103 -0.5019 -1.0003
10652TIP3   OH253370   6.290   1.785   3.797  0.0900  0.2200 -0.5680
10652TIP3    H153371   6.288   1.878   3.776  0.0831  0.6425  1.1886
10652TIP3    H253372   6.336   1.745   3.723 -0.9916  1.4186 -1.9568
10653TIP3   OH253373   5.404   2.620   4.947  0.3693  0.9084  0.5865
10653TIP3    H153374   5.410   2.633   4.853 -0.6330  1.6191  0.6036
10653TIP3    H253375   5.315   2.588   4.961 -0.3365  3.0858  1.4974
10654TIP3   OH253376   1.438   3.837  14.242  0.3384  0.1292 -0.2910
10654TIP3    H153377   1.519   3.813  14.198  0.7660 -0.8664  0.9996
10654TIP3    H253378   1.424   3.929  14.217  0.7328 -0.2746 -2.1815
10655TIP3   OH253379   0.214   5.935   4.616  0.3074 -0.2902 -0.7087
10655TIP3    H153380   0.137   5.884   4.591 -1.2100  0.1098  2.5169
10655TIP3    H253381   0.196   6.024   4.586  0.2638 -0.5200 -1.3592
10656TIP3   OH253382   0.130   6.201   5.688 -0.3358  0.5249  0.6107
10656TIP3    H153383   0.100   6.209   5.779  1.2772  0.5384  1.1763
10656TIP3    H253384   0.196   6.271   5.678  0.5313 -0.3615 -0.1187
10657TIP3   OH253385   6.737   3.268  16.758 -0.3537 -0.5294  0.3224
10657TIP3    H153386   6.791   3.189  16.761  1.0187  0.3818  0.6671
10657TIP3    H253387   6.783   3.326  16.696 -0.5175  0.5545  1.1897
10658TIP3   OH253388   3.990   4.493   3.610  0.3306  0.8459  0.3773
10658TIP3    H153389   3.974   4.555   3.540  0.1525 -0.5719 -0.8891
10658TIP3    H253390   4.042   4.542   3.674 -0.7465  2.6044 -0.0140
10659TIP3   OH253391   3.578   0.732   3.894 -0.2349  0.1073  0.4522
10659TIP3    H153392   3.623   0.771   3.819 -0.3813 -0.1359  0.2373
10659TIP3    H253393   3.578   0.638   3.876 -0.2702  0.0481  0.7582
10660TIP3   OH253394   4.361   5.441   0.513  0.0471 -0.0457  0.1658
10660TIP3    H153395   4.308   5.494   0.453  0.2493 -1.3187 -1.1716
10660TIP3    H253396   4.299   5.380   0.553  0.4341 -1.5838 -1.4528
10661TIP3   OH253397   6.414   0.371   5.852  0.0006 -0.0940  0.0527
10661TIP3    H153398   6.458   0.321   5.783  0.7526 -0.7936  1.0044
10661TIP3    H253399   6.372   0.304   5.907  0.5763  0.3495  1.0544
10662TIP3   OH253400   6.579   2.212   5.296  0.1396  0.1762 -0.4077
10662TIP3    H153401   6.596   2.300   5.261 -0.3543  0.1343 -0.7635
10662TIP3    H253402   6.661   2.164   5.281  0.8307  0.8830  0.8178
10663TIP3   OH253403   4.893   1.638   0.416 -0.7719 -0.1989  0.3536
10663TIP3    H153404   4.850   1.553   0.428 -1.5168 -0.1653 -1.6882
10663TIP3    H253405   4.848   1.677   0.341 -1.1439  2.4836  1.8476
10664TIP3   OH253406   1.440   0.093  13.375 -0.1256 -0.5931  0.1566
10664TIP3    H153407   1.512   0.031  13.361  0.2925  0.0181 -0.4187
10664TIP3    H253408   1.455   0.163  13.312  0.3216  0.9243  1.8495
10665TIP3   OH253409   4.964   3.550  11.568  0.3239  0.1618  0.2135
10665TIP3    H153410   4.895   3.493  11.534 -0.2684  0.7460  0.3901
10665TIP3    H253411   4.992   3.602  11.493  1.6026 -1.0613 -0.1865
10666TIP3   OH253412   5.836   6.645  17.263 -0.6336 -0.0321  0.6099
10666TIP3    H153413   5.832   6.550  17.260 -2.2840  0.0285 -2.4540
10666TIP3    H253414   5.838   6.666  17.356  2.9060 -3.0693  1.4696
10667TIP3   OH253415   0.076   2.664   5.213  0.5082  0.3672  0.2605
10667TIP3    H153416   0.172   2.664   5.210  0.5804 -0.5483 -3.8512
10667TIP3    H253417   0.051   2.742   5.163 -0.7997 -0.4103 -0.3697
10668TIP3   OH253418   4.111   0.527   0.352 -0.4035  0.0625 -0.2077
10668TIP3    H153419   4.089   0.589   0.282  0.5918  1.5353  0.7379
10668TIP3    H253420   4.204   0.508   0.338 -0.6334 -1.0301 -0.3195
10669TIP3   OH253421   3.750   1.163  15.032 -0.4751  0.0141 -0.2296
10669TIP3    H153422   3.780   1.195  14.947  1.9921  1.4113  1.0543
10669TIP3    H253423   3.798   1.216  15.096 -3.0424 -0.2100  2.0843
10670TIP3   OH253424   6.207   5.710  12.837 -0.3289  0.4132  0.5051
10670TIP3    H153425   6.262   5.738  12.764 -0.1551  0.5528  0.6895
10670TIP3    H253426   6.241   5.623  12.860 -0.3711  0.3779  0.4331
10671TIP3   OH253427   2.239   3.192   1.458 -0.1002  1.3828 -0.4053
10671TIP3    H153428   2.212   3.284   1.464  0.6887  1.6885 -1.2390
10671TIP3    H253429   2.173   3.151   1.403 -0.7788  1.3012  0.4466
10672TIP3   OH253430   3.520   5.336   5.410  0.5144  0.2125 -0.2015
10672TIP3    H153431   3.503   5.344   5.504  0.4093 -0.0411 -0.1984
10672TIP3    H253432   3.436   5.312   5.372  1.0333 -2.1058 -0.0576
10673TIP3   OH253433   1.151   3.603  17.222 -0.1107 -0.5440 -0.3520
10673TIP3    H153434   1.113   3.688  17.201 -0.5331  0.0185  2.4166
10673TIP3    H253435   1.214   3.621  17.291  0.6381 -2.3511 -0.5109
10674TIP3   OH253436   1.939   4.422  14.971  0.1261 -0.3653 -0.0549
10674TIP3    H153437   2.012   4.362  14.955 -0.2770 -0.9496  0.2974
10674TIP3    H253438   1.971   4.479  15.041  0.7837  0.3178 -0.8821
10675TIP3   OH253439   6.570   5.159   0.066  0.1873  0.6484 -0.4588
10675TIP3    H153440   6.646   5.114   0.030  1.9073  1.7190  1.6038
10675TIP3    H253441   6.495   5.106   0.039  1.8059 -1.4910 -0.9945
10676TIP3   OH253442   5.020   3.493   6.178 -0.3998  0.0420  0.8678
10676TIP3    H153443   5.068   3.549   6.238  0.4973  0.1445  0.0794
10676TIP3    H253444   5.035   3.532   6.092 -0.6935 -0.7641  0.4400
10677TIP3   OH253445   4.349   6.399   1.693  0.9427  0.0423  0.0267
10677TIP3    H153446   4.416   6.355   1.747  1.9722 -1.0948 -2.0579
10677TIP3    H253447   4.277   6.336   1.689  0.2789  0.7124  1.1851
10678TIP3   OH253448   6.585   1.851  12.533 -0.4699 -0.4174  0.0657
10678TIP3    H153449   6.584   1.864  12.628 -0.0151 -0.8453  0.1329
10678TIP3    H253450   6.613   1.935  12.497 -2.2288  0.2622  0.2099
10679TIP3   OH253451   4.887   1.787  13.919  0.1692  0.7876  0.3178
10679TIP3    H153452   4.810   1.782  13.862 -0.2130  0.4908  0.8430
10679TIP3    H253453   4.856   1.836  13.996  0.7991  1.5772  0.0862
10680TIP3   OH253454   5.774   5.292  12.634  0.1545 -0.0234 -0.3638
10680TIP3    H153455   5.825   5.262  12.709 -0.6121  1.4516  0.8046
10680TIP3    H253456   5.687   5.252  12.646  0.6873 -1.7717 -1.8407
10681TIP3   OH253457   3.842   3.781  16.641  0.5994 -0.6657 -0.1176
10681TIP3    H153458   3.775   3.718  16.616  1.3141 -1.3506 -0.3678
10681TIP3    H253459   3.810   3.819  16.723 -0.6328 -0.1285 -0.8229
10682TIP3   OH253460   5.075   0.119  15.074 -0.3374  0.0062  0.3020
10682TIP3    H153461   4.994   0.147  15.032 -0.7865  0.4003  1.3938
10682TIP3    H253462   5.047   0.056  15.140  0.6481 -3.1807 -2.0971
10683TIP3   OH253463   0.538   1.594   3.267 -0.2310 -0.0772 -0.4903
10683TIP3    H153464   0.483   1.603   3.189 -1.5079 -0.6571  0.3030
10683TIP3    H253465   0.627   1.587   3.234 -0.6998  0.2451 -1.8601
10684TIP3   OH253466   1.683   3.068  12.923  0.0462  0.2686 -0.3773
10684TIP3    H153467   1.706   2.975  12.926  0.1204  0.2270 -1.8247
10684TIP3    H253468   1.591   3.070  12.898 -0.0140  0.5887 -0.1445
10685TIP3   OH253469   4.459   3.735  13.540 -0.4515  0.4281  0.1428
10685TIP3    H153470   4.417   3.714  13.456 -5.2030  0.7051  2.1413
10685TIP3    H253471   4.444   3.659  13.595  0.8760  0.9994  1.3736
10686TIP3   OH253472   5.221   2.239   1.787 -0.1122  0.2813 -0.2079
10686TIP3    H153473   5.262   2.200   1.864 -0.0856  0.2518 -0.2367
10686TIP3    H253474   5.279   2.313   1.764 -0.1057  0.2740 -0.2151
10687TIP3   OH253475   5.117   5.480  16.590 -0.3302 -0.6136 -0.4778
10687TIP3    H153476   5.070   5.398  16.579  1.5556 -1.8466  0.3151
10687TIP3    H253477   5.123   5.516  16.501  0.8051 -2.4848 -1.2068
10688TIP3   OH253478   5.453   3.111  14.369  0.5580 -0.2164  0.4797
10688TIP3    H153479   5.524   3.048  14.361  0.7296  0.1088 -0.7343
10688TIP3    H253480   5.375   3.058  14.383  0.4574 -0.8575 -2.0248
10689TIP3   OH253481   2.733   4.975  11.944  0.5440 -0.6414 -0.1885
10689TIP3    H153482   2.660   4.936  11.991  1.9379 -0.9327  1.8678
10689TIP3    H253483   2.810   4.952  11.996  2.1125 -0.3058 -2.2289
10690TIP3   OH253484   5.072   2.735  12.960 -0.1734 -0.2252 -0.2460
10690TIP3    H153485   5.001   2.704  12.903 -0.3147 -0.5165  0.0833
10690TIP3    H253486   5.109   2.656  12.998 -1.5574  0.0220  1.8228
10691TIP3   OH253487   0.107   0.591  15.281 -0.1713  0.0080 -0.3292
10691TIP3    H153488   0.128   0.528  15.212  0.5648 -0.7614  0.5659
10691TIP3    H253489   0.112   0.677  15.238  0.4369 -0.4383 -1.1864
10692TIP3   OH253490   1.862   3.960  12.290  0.5340 -0.1197 -0.1872
10692TIP3    H153491   1.775   3.963  12.330  1.3241 -1.8247  1.8106
10692TIP3    H253492   1.906   4.039  12.322 -0.8206  1.8987 -2.8531
10693TIP3   OH253493   4.630   3.552  17.228 -0.2113 -0.0058 -0.3862
10693TIP3    H153494   4.624   3.533  17.322  1.7549  3.1939  0.5571
10693TIP3    H253495   4.723   3.546  17.208 -0.7589 -2.3971 -2.6913
10694TIP3   OH253496   6.150   1.397  17.359  0.2563  0.4658 -0.2619
10694TIP3    H153497   6.182   1.453  17.288  0.8924  0.7824  0.2661
10694TIP3    H253498   6.062   1.431  17.378  0.1065  0.4209 -0.8464
10695TIP3   OH253499   6.337   1.056   6.576 -0.5112  0.2659 -0.0655
10695TIP3    H153500   6.406   1.029   6.636 -0.4419 -0.0182 -0.2688
10695TIP3    H253501   6.279   0.979   6.570 -0.5857  0.3365 -0.2611
10696TIP3   OH253502   0.164   3.268   0.863  0.4324  0.7403 -0.2780
10696TIP3    H153503   0.094   3.228   0.916  1.2992 -0.2331  0.1704
10696TIP3    H253504   0.174   3.210   0.788 -0.1239  1.5939 -1.0311
10697TIP3   OH253505   2.621   3.820  15.128 -0.3877  0.3024 -0.0639
10697TIP3    H153506   2.667   3.879  15.068 -0.0756 -0.0213 -0.1447
10697TIP3    H253507   2.688   3.793  15.191 -0.4030 -0.3529 -0.3193
10698TIP3   OH253508   5.866   2.530   3.606  0.3290  0.2213  0.1486
10698TIP3    H153509   5.900   2.611   3.645 -1.6285  0.8473  0.6617
10698TIP3    H253510   5.944   2.483   3.578  1.5430  2.1810  0.0396
10699TIP3   OH253511   0.111   3.205   0.237  0.3600 -0.2876 -0.0449
10699TIP3    H153512   0.121   3.261   0.314  0.2513 -2.1771  1.4273
10699TIP3    H253513   0.089   3.119   0.273  1.5736 -1.5520 -2.1224
10700TIP3   OH253514   1.882   1.771   0.759 -0.7496  0.4842  0.5659
10700TIP3    H153515   1.808   1.829   0.776 -0.9116  0.5870 -0.4204
10700TIP3    H253516   1.843   1.684   0.751 -0.8941  0.6488 -0.7595
10701TIP3   OH253517   0.537   0.109  17.148 -0.7143 -0.6637  0.0166
10701TIP3    H153518   0.524   0.057  17.227  0.3281  0.7942  1.2059
10701TIP3    H253519   0.563   0.045  17.082  2.2241 -1.5835  1.8467
10702TIP3   OH253520   2.632   1.561   5.290 -0.2052  0.5047 -0.0688
10702TIP3    H153521   2.707   1.503   5.300 -1.4422 -1.2717 -0.6602
10702TIP3    H253522   2.573   1.537   5.360 -0.6302  1.2389 -0.1689
10703TIP3   OH253523   0.391   4.304   6.528 -0.0548  0.1881  0.0214
10703TIP3    H153524   0.346   4.389   6.523 -1.8896 -0.7349  0.2874
10703TIP3    H253525   0.352   4.261   6.604 -0.3760 -1.5619 -1.0892
10704TIP3   OH253526   0.121   2.927   5.823 -0.2339  0.3110  0.1710
10704TIP3    H153527   0.098   2.938   5.916  1.1670 -1.9441  0.8632
10704TIP3    H253528   0.216   2.942   5.821 -0.2524  0.3009 -0.9074
10705TIP3   OH253529   6.599   5.011   2.550 -0.3802 -0.2026 -0.0925
10705TIP3    H153530   6.597   5.079   2.483 -2.6918  0.2916  0.3753
10705TIP3    H253531   6.673   5.034   2.605 -0.4036  1.2663 -0.6212
10706TIP3   OH253532   6.089   5.430  12.765  0.8940 -0.5487 -0.0334
10706TIP3    H153533   6.073   5.450  12.857  0.4162 -0.0091 -0.2292
10706TIP3    H253534   6.043   5.498  12.717 -1.7679 -2.6941 -0.7709
10707TIP3   OH253535   0.088   4.087   4.788  0.0780 -0.7514  0.1088
10707TIP3    H153536   0.137   4.130   4.859  1.1486 -0.5333 -0.7335
10707TIP3    H253537   0.097   3.994   4.806  0.1474 -0.6914  0.3890
10708TIP3   OH253538   3.407   3.817  10.733 -0.0557 -0.2699  0.2620
10708TIP3    H153539   3.447   3.731  10.737 -2.3119 -1.4096  0.1140
10708TIP3    H253540   3.472   3.872  10.689  0.1036 -2.8090 -3.1179
10709TIP3   OH253541   0.540   3.636  11.387 -0.2374 -0.3577 -0.2915
10709TIP3    H153542   0.465   3.625  11.329 -0.6259 -0.6022  0.2462
10709TIP3    H253543   0.588   3.554  11.380 -0.3556 -0.4378 -0.1703
10710TIP3   OH253544   3.753   0.268   2.032 -0.0536 -0.1810  0.8665
10710TIP3    H153545   3.832   0.215   2.044 -0.3043 -0.4629  1.2753
10710TIP3    H253546   3.685   0.221   2.080 -0.5635 -0.1445  0.2000
10711TIP3   OH253547   2.908   3.184   0.873  0.4968 -0.1724 -0.1159
10711TIP3    H153548   2.880   3.097   0.900 -0.3278 -0.1925 -0.9793
10711TIP3    H253549   2.838   3.215   0.816  0.2900  1.4704  0.9597
10712TIP3   OH253550   0.982   1.684  15.998 -0.2951 -0.4728  0.1633
10712TIP3    H153551   1.049   1.644  15.943 -0.9108 -1.0021 -0.2118
10712TIP3    H253552   1.028   1.753  16.046  0.8262 -1.6682  0.8835
10713TIP3   OH253553   5.465   2.498  11.510  0.0633 -0.0508 -0.3118
10713TIP3    H153554   5.467   2.404  11.524 -1.8048  0.0119  0.7928
10713TIP3    H253555   5.371   2.519  11.505  0.4269  1.4039 -3.2615
10714TIP3   OH253556   0.955   1.969   2.262  0.4031 -0.4163  0.3692
10714TIP3    H153557   0.940   1.985   2.169 -0.5779 -1.1010  0.3996
10714TIP3    H253558   1.035   1.917   2.265 -0.4932 -1.8848 -0.2233
10715TIP3   OH253559   5.664   5.009   6.035 -0.9724  0.2254 -0.3712
10715TIP3    H153560   5.713   4.995   6.117 -1.2742  1.5628  0.0532
10715TIP3    H253561   5.587   4.953   6.044 -0.2535 -0.7976 -0.4143
10716TIP3   OH253562   0.844   6.574  10.860  0.1461  0.2306 -0.6316
10716TIP3    H153563   0.851   6.618  10.945 -1.9407  0.0491 -0.3163
10716TIP3    H253564   0.792   6.634  10.807 -0.9341 -0.8774 -0.8676
10717TIP3   OH253565   2.941   2.783  12.469 -0.2256  0.2694 -0.4299
10717TIP3    H153566   2.962   2.844  12.540  0.6972 -1.4149  0.8235
10717TIP3    H253567   2.984   2.701  12.494  1.3762 -0.0365 -3.6790
10718TIP3   OH253568   4.100   2.361  13.138  0.6316 -0.1054 -0.4972
10718TIP3    H153569   4.057   2.341  13.221 -1.0485  1.6018 -0.8666
10718TIP3    H253570   4.034   2.341  13.072  1.1383  0.6083 -1.2464
10719TIP3   OH253571   1.872   1.051   4.336  0.0027  0.0145  0.3112
10719TIP3    H153572   1.912   1.030   4.251 -0.4088  0.2661  0.0530
10719TIP3    H253573   1.799   0.989   4.344 -1.1386  1.2131 -0.3948
10720TIP3   OH253574   4.419   5.305  14.326  0.5916 -0.2081  0.0421
10720TIP3    H153575   4.481   5.262  14.266  0.5719 -1.8900  1.1389
10720TIP3    H253576   4.476   5.349  14.390  0.6827 -1.2013  0.6691
10721TIP3   OH253577   0.824   4.813  13.213 -0.7314 -0.2509 -0.1209
10721TIP3    H153578   0.781   4.770  13.138 -1.8234 -0.5186  0.6329
10721TIP3    H253579   0.768   4.792  13.287 -0.0595  0.6367  0.6525
10722TIP3   OH253580   2.769   0.515   2.432  0.1296  0.6169 -0.0210
10722TIP3    H153581   2.838   0.453   2.407 -1.0704 -1.6252  1.7848
10722TIP3    H253582   2.706   0.511   2.360 -0.4785 -1.2412  0.5437
10723TIP3   OH253583   2.156   4.208   6.660 -0.6533  0.6107 -0.1370
10723TIP3    H153584   2.238   4.181   6.619 -0.4415 -1.1314  1.3047
10723TIP3    H253585   2.176   4.215   6.753 -1.8877  1.1881  0.1113
10724TIP3   OH253586   2.479   3.218   4.181 -0.7583 -1.0279  0.1393
10724TIP3    H153587   2.445   3.189   4.096 -0.6124 -0.2975 -0.1734
10724TIP3    H253588   2.408   3.270   4.218  0.6920  2.4096 -1.4843
10725TIP3   OH253589   5.832   5.152   4.209  0.4437  0.7175 -0.4221
10725TIP3    H153590   5.907   5.204   4.180  0.8855  0.3730  0.0948
10725TIP3    H253591   5.854   5.062   4.186  0.9242  0.3921  1.1654
10726TIP3   OH253592   6.205   4.215  16.870 -0.4512 -0.2112  0.3021
10726TIP3    H153593   6.248   4.135  16.841 -0.5251 -0.3081  0.4613
10726TIP3    H253594   6.161   4.191  16.952 -0.5234 -0.0241  0.3190
10727TIP3   OH253595   3.529   0.338   5.682 -0.1278  0.4594 -0.5041
10727TIP3    H153596   3.565   0.287   5.609  0.9299  0.6500 -0.1337
10727TIP3    H253597   3.544   0.285   5.759  1.7023  1.6031 -0.0023
10728TIP3   OH253598   0.212   6.561  14.963  0.2833 -0.2128  0.2042
10728TIP3    H153599   0.274   6.630  14.939  1.2552 -0.7819  0.9835
10728TIP3    H253600   0.207   6.504  14.887 -0.7590  0.8585 -0.5599
10729TIP3   OH253601   3.731   6.573  13.972  0.2590  0.6479  0.1675
10729TIP3    H153602   3.708   6.654  14.017  0.4570 -0.2398  1.9466
10729TIP3    H253603   3.650   6.520  13.974 -0.4155  1.3987 -2.5320
10730TIP3   OH253604   0.782   2.789   2.031  0.0521  0.4959 -0.4600
10730TIP3    H153605   0.824   2.715   2.075 -0.0565  1.4306  1.2942
10730TIP3    H253606   0.709   2.750   1.983 -0.5655 -0.4598  1.1603
10731TIP3   OH253607   4.250   0.070   2.755 -0.0317 -0.4941  0.1917
10731TIP3    H153608   4.178   0.132   2.749 -0.7408 -1.3456 -0.3594
10731TIP3    H253609   4.208  -0.016   2.747  1.1143 -0.9845 -0.7990
10732TIP3   OH253610   4.395   6.255  15.184  0.3880  0.3941 -0.1569
10732TIP3    H153611   4.482   6.217  15.173  0.6010  1.1343 -1.1771
10732TIP3    H253612   4.375   6.294  15.099 -1.8666 -1.6521 -0.6843
10733TIP3   OH253613   1.501   6.262  15.344  0.5858  0.2164  0.0584
10733TIP3    H153614   1.462   6.188  15.297  1.2459  0.9732 -1.7931
10733TIP3    H253615   1.593   6.238  15.355  0.3054 -0.2392  1.6349
10734TIP3   OH253616   4.246   5.415  16.904  0.5440 -0.4693 -0.5198
10734TIP3    H153617   4.303   5.360  16.957  1.2581  0.3497 -0.4235
10734TIP3    H253618   4.168   5.361  16.889  0.9767 -1.2769  0.0660
10735TIP3   OH253619   4.593   4.690   4.894  0.3178 -1.1192 -0.4895
10735TIP3    H153620   4.525   4.756   4.908  0.6072 -0.9430  0.0986
10735TIP3    H253621   4.546   4.606   4.900 -0.2549 -0.9750 -2.3175
10736TIP3   OH253622   3.844   2.905   0.155 -0.0693  0.2976  0.6500
10736TIP3    H153623   3.798   2.824   0.176 -0.6997  0.4802  0.0166
10736TIP3    H253624   3.835   2.959   0.233 -1.8615  0.7404  0.1840
10737TIP3   OH253625   3.281   4.165  14.934  0.3406 -0.4043  0.0104
10737TIP3    H153626   3.273   4.119  15.017  0.8961 -0.5072  0.0065
10737TIP3    H253627   3.318   4.250  14.957  0.1243 -0.2815 -0.0865
10738TIP3   OH253628   0.299   5.723   0.308 -0.3211  0.3811  0.1085
10738TIP3    H153629   0.252   5.801   0.280  2.3554  1.7978 -0.7075
10738TIP3    H253630   0.355   5.700   0.234  0.9816 -0.6559  1.3669
10739TIP3   OH253631   0.800   1.023  15.494 -0.5259 -0.0821 -0.5278
10739TIP3    H153632   0.870   0.962  15.517 -1.3803 -0.8013  0.2518
10739TIP3    H253633   0.757   1.043  15.578 -0.0752  1.8548 -0.7079
10740TIP3   OH253634   4.059   2.065  15.253  0.1902 -0.0543 -0.1642
10740TIP3    H153635   4.031   2.157  15.248  1.3566  0.3706  0.7750
10740TIP3    H253636   3.989   2.022  15.303 -2.3085 -0.5525 -3.7264
10741TIP3   OH253637   3.102   0.864  17.161  0.3831  0.2732  0.6315
10741TIP3    H153638   3.080   0.944  17.208 -3.3055 -1.9186  3.2677
10741TIP3    H253639   3.154   0.813  17.224  1.9297  0.2080 -0.6580
10742TIP3   OH253640   2.726   4.776   2.755 -0.2401 -0.0666 -0.2526
10742TIP3    H153641   2.718   4.871   2.765 -0.8228 -0.0711 -0.6225
10742TIP3    H253642   2.715   4.742   2.844 -1.4996  0.1322 -0.3068
10743TIP3   OH253643   5.138   5.944  16.996 -0.7827 -0.1331 -0.3428
10743TIP3    H153644   5.070   5.985  16.941 -1.2667 -0.4538  0.0076
10743TIP3    H253645   5.156   6.009  17.063  2.0584  1.6277 -2.5492
10744TIP3   OH253646   3.255   5.589  11.893 -0.0257 -0.8855  0.4813
10744TIP3    H153647   3.290   5.519  11.948 -1.3270 -0.3100  2.1232
10744TIP3    H253648   3.162   5.593  11.916 -0.0872  1.0184  0.0313
10745TIP3   OH253649   3.515   5.677   5.635  0.0614  0.3148 -0.3903
10745TIP3    H153650   3.466   5.596   5.636  0.4702  0.0597 -0.6623
10745TIP3    H253651   3.607   5.650   5.630  0.3221  0.7464  1.2359
10746TIP3   OH253652   6.706   0.371  13.182 -0.3745 -0.5070 -0.2154
10746TIP3    H153653   6.723   0.310  13.254  0.1106 -0.4010 -0.2326
10746TIP3    H253654   6.745   0.329  13.105 -1.6754 -1.0375 -0.6100
10747TIP3   OH253655   4.950   2.933  15.847  0.0393  0.3412  0.4731
10747TIP3    H153656   4.863   2.892  15.844 -0.1085  0.6843  0.0116
10747TIP3    H253657   4.953   2.978  15.932  0.1742 -0.5524  0.9564
10748TIP3   OH253658   1.687   1.391  11.920 -0.5467  0.3411  0.7152
10748TIP3    H153659   1.598   1.392  11.956 -1.3529 -0.0983 -1.1795
10748TIP3    H253660   1.701   1.300  11.893  1.3940 -0.1477  3.0457
10749TIP3   OH253661   4.384   4.037  16.156  0.0063  0.2572  0.3060
10749TIP3    H153662   4.456   3.988  16.196 -0.8624 -0.8207  0.5660
10749TIP3    H253663   4.329   4.063  16.229  0.1829  1.2022  0.1167
10750TIP3   OH253664   2.036   4.627  15.196 -0.0542 -0.1489 -0.0419
10750TIP3    H153665   2.027   4.677  15.115 -1.7020  0.7124  0.6150
10750TIP3    H253666   1.994   4.682  15.262  0.4914 -1.2218  1.2343
10751TIP3   OH253667   4.225   5.796  15.777  0.6815  0.2717  0.6428
10751TIP3    H153668   4.308   5.834  15.748  1.0004  1.0847  2.4769
10751TIP3    H253669   4.173   5.872  15.804 -0.2978 -0.3106  0.4231
10752TIP3   OH253670   2.249   1.406  14.557  0.0478  0.0383  0.2440
10752TIP3    H153671   2.163   1.364  14.555 -0.4802  1.0837  0.3337
10752TIP3    H253672   2.243   1.475  14.490  1.3508 -0.8736 -0.8629
10753TIP3   OH253673   4.524   3.741   2.895 -0.4358  0.4804 -0.3868
10753TIP3    H153674   4.553   3.682   2.964 -1.2678  0.7947  0.2454
10753TIP3    H253675   4.447   3.784   2.931  0.2128  2.0463 -0.7915
10754TIP3   OH253676   0.565   2.778   0.993  0.4630  0.0345 -0.3051
10754TIP3    H153677   0.576   2.722   0.917  0.9127 -1.1233  0.5891
10754TIP3    H253678   0.516   2.854   0.961 -0.9855 -1.2865 -1.3353
10755TIP3   OH253679   3.122   4.122   4.658 -0.5737  0.5483  1.0140
10755TIP3    H153680   3.103   4.147   4.568  0.2277 -1.5948  0.1722
10755TIP3    H253681   3.129   4.205   4.705 -1.8545  1.6989 -0.6910
10756TIP3   OH253682   1.315   1.017  14.017 -0.1204 -0.5168 -0.2254
10756TIP3    H153683   1.283   0.932  13.986  0.0191 -0.7828  0.3607
10756TIP3    H253684   1.299   1.016  14.111 -2.4688  1.1052 -0.5166
10757TIP3   OH253685   2.455   3.719  15.702  0.1185 -0.4483 -0.0233
10757TIP3    H153686   2.523   3.772  15.744  0.5696 -1.8181  1.0362
10757TIP3    H253687   2.375   3.772  15.710  0.8219  0.7043 -0.3325
10758TIP3   OH253688   6.041   6.143  16.557  0.2364 -0.4577 -0.4490
10758TIP3    H153689   5.984   6.192  16.616  1.0422 -0.7408  0.5926
10758TIP3    H253690   6.028   6.052  16.580 -0.3968 -0.6850 -1.6035
10759TIP3   OH253691   6.496   3.678   3.853 -0.5824  0.5343 -0.2848
10759TIP3    H153692   6.590   3.676   3.871 -0.9015 -1.5300  1.7431
10759TIP3    H253693   6.487   3.644   3.764  0.5070 -4.1504  1.0767
10760TIP3   OH253694   2.771   6.516   3.730 -0.4465 -0.8609  0.1799
10760TIP3    H153695   2.774   6.534   3.637  2.2125  2.6958  0.7655
10760TIP3    H253696   2.687   6.552   3.759 -0.1092  0.5401 -0.4996
10761TIP3   OH253697   3.895   3.304  15.811  0.0539  0.0685 -0.3386
10761TIP3    H153698   3.836   3.288  15.737  0.0934  2.3350 -0.9321
10761TIP3    H253699   3.980   3.272  15.780 -0.5241 -1.9430  0.0011
10762TIP3   OH253700   4.628   2.834  11.475 -0.1989  0.2416  0.3061
10762TIP3    H153701   4.703   2.775  11.480  0.8515  1.3875 -0.9157
10762TIP3    H253702   4.553   2.780  11.499  1.1162 -0.6543  2.7053
10763TIP3   OH253703   1.292   3.075   0.602  0.6301  0.0087 -0.5216
10763TIP3    H153704   1.212   3.100   0.648  0.9900  0.8686 -0.3557
10763TIP3    H253705   1.309   2.985   0.632  0.7719  0.4865  0.9230
10764TIP3   OH253706   2.335   2.012  13.253 -0.0085 -0.2250 -0.3389
10764TIP3    H153707   2.421   1.971  13.247  0.9210  1.5891 -0.1772
10764TIP3    H253708   2.320   2.023  13.347 -0.0626  0.1343 -0.3857
10765TIP3   OH253709   4.751   1.175  11.246  0.2371 -0.1859 -0.0917
10765TIP3    H153710   4.711   1.169  11.159  0.2065 -2.0785  0.0079
10765TIP3    H253711   4.680   1.153  11.306  0.8773 -1.4465  0.2249
10766TIP3   OH253712   3.444   3.187  14.938 -0.0141 -0.2282  0.1138
10766TIP3    H153713   3.422   3.235  14.857 -0.8662 -2.0381 -0.7903
10766TIP3    H253714   3.528   3.146  14.919  1.1787  1.5399  1.2273
10767TIP3   OH253715   1.212   4.310  12.936 -0.1972 -0.6023  0.3280
10767TIP3    H153716   1.219   4.255  13.014  1.1242 -0.0499  0.6288
10767TIP3    H253717   1.248   4.395  12.962 -0.2158 -0.2462 -0.7318
10768TIP3   OH253718   6.297   5.675  17.105 -0.1029  0.2961  0.1974
10768TIP3    H153719   6.216   5.698  17.058 -0.2043 -0.4103  0.0188
10768TIP3    H253720   6.367   5.713  17.052 -0.3567  1.9133  0.9499
10769TIP3   OH253721   6.439   2.765  13.240 -0.1342  0.5019 -0.0431
10769TIP3    H153722   6.519   2.814  13.260  1.1659 -1.4634 -0.0567
10769TIP3    H253723   6.408   2.733  13.324 -0.3420  0.4291 -0.1457
10770TIP3   OH253724   3.022   0.605   5.918  0.2762 -0.3558 -0.5773
10770TIP3    H153725   2.947   0.656   5.950 -0.7526 -2.4102  0.5016
10770TIP3    H253726   3.052   0.558   5.996  1.8784 -0.5711 -1.3043
10771TIP3   OH253727   4.792   1.102   0.712  0.2787  0.0996  0.4397
10771TIP3    H153728   4.871   1.049   0.725 -0.0387 -0.3162  0.7100
10771TIP3    H253729   4.748   1.062   0.637  1.0588  1.2357 -0.6652
10772TIP3   OH253730   3.552   4.516  16.359  1.0471  0.5735  0.0095
10772TIP3    H153731   3.499   4.512  16.280  0.9061 -0.6779  0.1511
10772TIP3    H253732   3.623   4.578  16.338  0.7997  0.5346 -0.9515
10773TIP3   OH253733   6.576   6.154   3.492 -0.2769  0.6016 -0.2400
10773TIP3    H153734   6.644   6.183   3.554 -0.7500  0.4171  0.3750
10773TIP3    H253735   6.603   6.066   3.467 -1.0040 -0.0306  1.0887
10774TIP3   OH253736   6.233   4.068   1.526 -0.4284  0.0834  0.1799
10774TIP3    H153737   6.225   4.091   1.434 -0.8784  0.8644  0.4143
10774TIP3    H253738   6.153   4.019   1.546 -1.8063  2.4942  0.9054
10775TIP3   OH253739   4.185   1.544   0.213 -0.0411 -0.1579 -0.7430
10775TIP3    H153740   4.174   1.498   0.130  1.8730 -0.5442 -0.8138
10775TIP3    H253741   4.257   1.498   0.257 -1.9425 -0.9287  1.8304
10776TIP3   OH253742   2.674   4.887  11.060 -0.2557  0.0948 -0.3325
10776TIP3    H153743   2.689   4.794  11.045  0.2741 -0.0329  0.8931
10776TIP3    H253744   2.715   4.930  10.985 -0.0209 -0.6245 -0.6279
10777TIP3   OH253745   2.712   6.111   0.093 -0.5783  0.3891  0.2474
10777TIP3    H153746   2.672   6.065   0.020  2.1933 -0.5028 -0.8305
10777TIP3    H253747   2.795   6.146   0.058  0.8240 -0.0111  2.8814
10778TIP3   OH253748   3.125   4.944   2.137  0.6625  0.2273  0.4881
10778TIP3    H153749   3.190   4.923   2.069 -0.1046 -0.9767  0.0966
10778TIP3    H253750   3.175   4.942   2.219  1.1565 -0.5044  0.1809
10779TIP3   OH253751   5.023   1.549   2.450  0.4698 -0.1914 -0.1049
10779TIP3    H153752   5.067   1.582   2.372  1.2120 -0.6613  0.1018
10779TIP3    H253753   5.053   1.607   2.520 -0.6340  0.5785 -0.2494
10780TIP3   OH253754   1.675   2.049  15.368 -0.4714 -0.5434  0.1690
10780TIP3    H153755   1.701   1.981  15.430  0.0314 -1.1700 -0.7032
10780TIP3    H253756   1.603   2.095  15.411  0.4344 -0.3864  1.5844
10781TIP3   OH253757   0.920   2.071  13.374  0.0775  0.2611 -0.3092
10781TIP3    H153758   0.991   2.040  13.318 -1.1856 -0.4346 -1.5821
10781TIP3    H253759   0.854   2.003  13.369 -0.4235  0.5679  1.4139
10782TIP3   OH253760   6.229   6.417  17.236  0.0713  0.0501 -0.3956
10782TIP3    H153761   6.322   6.419  17.216  0.4424 -0.1085  1.1606
10782TIP3    H253762   6.214   6.495  17.290 -0.5473 -0.2917 -0.0618
10783TIP3   OH253763   0.113   0.191  12.399  0.0293 -0.1357 -0.0829
10783TIP3    H153764   0.186   0.191  12.461  0.2198  0.2416 -0.3092
10783TIP3    H253765   0.053   0.125  12.434 -0.0531  0.3535  0.7325
10784TIP3   OH253766   0.075   5.814  13.785  0.5020  0.3379 -0.2971
10784TIP3    H153767   0.146   5.839  13.726  1.5288  1.6005  1.3991
10784TIP3    H253768   0.102   5.845  13.871 -1.4515 -0.4519  0.6775
10785TIP3   OH253769   4.273   0.932   0.259 -0.7158  0.1086 -0.3975
10785TIP3    H153770   4.277   0.850   0.209 -0.7880 -0.3956  0.3870
10785TIP3    H253771   4.289   1.001   0.195  0.9574 -0.6046 -0.8081
10786TIP3   OH253772   3.603   3.081  13.675  0.3583  0.5886 -0.1197
10786TIP3    H153773   3.516   3.100  13.640  0.3990  1.4904  0.2389
10786TIP3    H253774   3.613   2.987  13.666 -0.7388  0.4521  0.0243
10787TIP3   OH253775   4.181   2.220   2.511  0.0025 -0.3197 -1.2179
10787TIP3    H153776   4.237   2.218   2.434 -0.3008  1.8119 -1.5479
10787TIP3    H253777   4.220   2.286   2.568 -1.3075  0.1247 -0.7991
10788TIP3   OH253778   2.999   6.288  11.527 -0.0324  0.3010  0.0542
10788TIP3    H153779   2.910   6.264  11.553  0.7604 -1.6943  1.1687
10788TIP3    H253780   3.026   6.218  11.468  0.3559  1.6406 -1.4489
10789TIP3   OH253781   6.178   3.458   3.743 -0.2460  0.1745 -0.3184
10789TIP3    H153782   6.095   3.416   3.764  0.5130 -1.1016  0.2139
10789TIP3    H253783   6.161   3.508   3.663 -1.1845 -1.1383 -0.9656
10790TIP3   OH253784   4.224   2.269  15.589  0.1554 -0.0054  0.4273
10790TIP3    H153785   4.290   2.339  15.596 -0.3022  0.7107 -1.8025
10790TIP3    H253786   4.272   2.194  15.555  0.1721 -0.0731  0.5952
10791TIP3   OH253787   2.696   2.451  11.303  0.0591  0.3499 -0.2152
10791TIP3    H153788   2.711   2.535  11.260  0.1160 -0.4617 -1.8671
10791TIP3    H253789   2.771   2.441  11.362  1.1831  0.5270 -1.5596
10792TIP3   OH253790   6.561   3.499  14.074  0.0480  1.0297  0.2675
10792TIP3    H153791   6.638   3.504  14.132  0.0546  1.3881  0.2252
10792TIP3    H253792   6.512   3.578  14.093 -0.6302  0.5091  0.7402
10793TIP3   OH253793   1.863   6.509  13.903  1.1882  0.2324  0.4415
10793TIP3    H153794   1.864   6.596  13.942  1.9334 -0.2467  1.5166
10793TIP3    H253795   1.776   6.502  13.863  0.5471  0.8955  1.6553
10794TIP3   OH253796   0.378   0.109   4.884 -0.0070  0.0578 -0.4763
10794TIP3    H153797   0.419   0.190   4.853  1.2269 -0.6813 -0.8244
10794TIP3    H253798   0.358   0.126   4.976  0.6527  0.5977 -0.4243
10795TIP3   OH253799   5.314   3.159   3.472  0.0100  0.0380  0.7266
10795TIP3    H153800   5.400   3.127   3.500  0.1757 -1.2889 -1.1040
10795TIP3    H253801   5.255   3.134   3.543  0.7331 -1.3661  0.8693
10796TIP3   OH253802   4.327   2.078   0.163  0.5755  0.3421 -0.1194
10796TIP3    H153803   4.377   2.144   0.115  2.2777 -1.2811 -0.6885
10796TIP3    H253804   4.335   1.999   0.110 -1.0431 -0.4608  0.7639
10797TIP3   OH253805   0.929   6.551  16.037  0.0708 -0.2771  0.4134
10797TIP3    H153806   0.840   6.575  16.013  0.7998  1.1973 -1.0237
10797TIP3    H253807   0.934   6.570  16.131 -0.6512  1.2681  0.1752
10798TIP3   OH253808   0.070   2.144   6.448  0.7794 -0.2022 -0.4629
10798TIP3    H153809   0.036   2.068   6.494  1.0102  1.6549  3.0972
10798TIP3    H253810   0.018   2.217   6.481  2.0181  1.5064 -2.0998
10799TIP3   OH253811   2.001   2.327  13.766 -0.5659  0.5617 -0.4123
10799TIP3    H153812   1.926   2.268  13.751  0.3859 -0.1122 -3.0597
10799TIP3    H253813   1.986   2.400  13.706  0.2459  1.0810  0.0066
10800TIP3   OH253814   2.802   4.642   2.535  0.0079 -0.1066  0.2001
10800TIP3    H153815   2.789   4.701   2.609  0.0259  0.3245 -0.1335
10800TIP3    H253816   2.741   4.570   2.550  1.2482 -0.9287  1.5461
10801TIP3   OH253817   4.073   2.354  12.772 -0.0805  0.6934  0.0995
10801TIP3    H153818   4.024   2.401  12.705 -1.2766 -0.4271  0.1512
10801TIP3    H253819   4.061   2.262  12.750  1.1721  0.3648  0.7143
10802TIP3   OH253820   4.644   2.485   2.806  0.1473  0.3950  0.1192
10802TIP3    H153821   4.625   2.411   2.748 -0.6867  1.7751 -1.4221
10802TIP3    H253822   4.733   2.512   2.783  0.8129 -0.6507  1.3239
10803TIP3   OH253823   3.317   1.836  15.278  0.3802 -0.5001  0.9668
10803TIP3    H153824   3.352   1.889  15.206  1.1859 -1.4246  0.6555
10803TIP3    H253825   3.253   1.893  15.321 -0.3711 -0.0552 -0.6780
10804TIP3   OH253826   6.007   5.207   1.863  0.2338 -0.5629  0.2287
10804TIP3    H153827   6.079   5.243   1.914  0.1862 -2.5569  1.8339
10804TIP3    H253828   5.930   5.255   1.893  0.7448  1.1864 -1.0908
10805TIP3   OH253829   0.304   2.242  13.668  0.2788  0.3959 -0.2960
10805TIP3    H153830   0.327   2.280  13.583 -1.5116  1.5043 -0.3335
10805TIP3    H253831   0.345   2.301  13.731  2.4196 -0.9544 -0.3181
10806TIP3   OH253832   2.369   3.210  14.847  0.5536  0.3985 -0.1644
10806TIP3    H153833   2.444   3.258  14.813  1.5564 -1.6383 -1.0321
10806TIP3    H253834   2.295   3.270  14.837  1.8865  2.1267 -0.1295
10807TIP3   OH253835   1.137   4.052   5.776  0.3017 -0.0456  0.0756
10807TIP3    H153836   1.206   4.042   5.841 -0.8647 -1.9293  1.1219
10807TIP3    H253837   1.178   4.026   5.694  1.2488  0.3950  0.3896
10808TIP3   OH253838   5.598   6.649  13.679  0.2291  0.0594 -0.3725
10808TIP3    H153839   5.527   6.698  13.720  0.5699  0.1980  0.0518
10808TIP3    H253840   5.607   6.688  13.592 -1.0675 -0.7975 -0.9319
10809TIP3   OH253841   3.656   0.068   0.508  0.1203  0.4507  0.1942
10809TIP3    H153842   3.621   0.157   0.506  0.6353  0.6523 -0.0662
10809TIP3    H253843   3.750   0.079   0.495  0.2695 -0.0907  0.7600
10810TIP3   OH253844   4.291   1.586  16.284  0.6614  0.0172  0.2977
10810TIP3    H153845   4.236   1.659  16.312  0.8147 -0.0336  0.7469
10810TIP3    H253846   4.235   1.509  16.294  1.0565 -0.1305  1.5288
10811TIP3   OH253847   2.777   1.904  13.578  0.0061 -0.4524 -0.6679
10811TIP3    H153848   2.795   1.849  13.502  0.1246 -0.2578 -0.7823
10811TIP3    H253849   2.715   1.854  13.631  0.7954 -1.0917 -0.3198
10812TIP3   OH253850   5.003   6.183  13.387  0.0396  0.1702  0.4545
10812TIP3    H153851   4.982   6.090  13.379 -0.1932  0.3357 -1.0811
10812TIP3    H253852   4.931   6.219  13.439 -1.0074 -0.1525 -0.7087
10813TIP3   OH253853   5.795   4.526   0.668  0.1128 -0.3499  0.2532
10813TIP3    H153854   5.778   4.543   0.575  1.9160 -0.2969 -0.1134
10813TIP3    H253855   5.742   4.449   0.688 -1.1010  0.2386 -0.5228
10814TIP3   OH253856   6.445   5.329   3.450 -0.6450 -0.0941  0.6014
10814TIP3    H153857   6.503   5.376   3.510  0.6067  0.1386 -0.7264
10814TIP3    H253858   6.438   5.386   3.374 -0.3364 -1.3737 -0.4141
10815TIP3   OH253859   4.947   3.917  15.038 -0.6028  0.1535  0.2031
10815TIP3    H153860   4.980   4.006  15.041 -1.4885  0.4993 -0.0142
10815TIP3    H253861   4.876   3.915  15.103 -0.1028 -0.6015  0.7527
10816TIP3   OH253862   5.056   1.324   2.015  0.6657  0.0085 -0.0609
10816TIP3    H153863   5.106   1.242   2.012  0.2320 -0.2470 -0.3787
10816TIP3    H253864   4.971   1.299   2.053  0.9207  0.5211  0.8761
10817TIP3   OH253865   1.041   1.014  14.509  0.9674 -0.2159  0.3327
10817TIP3    H153866   1.025   0.934  14.458  0.1550 -0.2233  0.5873
10817TIP3    H253867   1.007   0.993  14.596 -0.5132  0.8761  0.0447
10818TIP3   OH253868   4.381   3.362   2.977 -0.0576 -0.3742  0.6276
10818TIP3    H153869   4.377   3.283   2.923 -2.1987 -0.6666  1.1269
10818TIP3    H253870   4.357   3.433   2.918 -0.4859 -0.4250  0.7415
10819TIP3   OH253871   4.023   0.645  13.125  0.0395  0.2958 -0.3947
10819TIP3    H153872   3.965   0.721  13.117 -1.0181 -0.2376  1.5152
10819TIP3    H253873   4.087   0.671  13.191 -0.5036 -0.5336  0.4891
10820TIP3   OH253874   4.757   6.747  11.801 -0.2631 -0.3253  0.2292
10820TIP3    H153875   4.728   6.838  11.815  1.1589 -0.0898  2.0173
10820TIP3    H253876   4.711   6.697  11.867  1.7388 -0.2640  1.7471
10821TIP3   OH253877   3.107   0.902  16.493 -0.0413  0.5632  0.1423
10821TIP3    H153878   3.016   0.874  16.482 -0.2055  1.1326 -0.0058
10821TIP3    H253879   3.136   0.922  16.404 -0.1475  1.5038  0.3110
10822TIP3   OH253880   0.547   4.035   0.454 -0.7393  0.1146  0.0811
10822TIP3    H153881   0.483   4.101   0.426 -1.3672 -0.6104 -0.2312
10822TIP3    H253882   0.519   3.955   0.410  1.2030  0.0693 -1.2057
10823TIP3   OH253883   0.389   3.046   6.737 -0.0579  0.0261 -0.0923
10823TIP3    H153884   0.384   3.119   6.676 -0.1628  0.4428  0.4067
10823TIP3    H253885   0.477   3.052   6.775 -0.5924  0.8318  1.0832
10824TIP3   OH253886   3.189   4.206   3.568  0.2071  0.2230  0.2742
10824TIP3    H153887   3.254   4.136   3.579 -0.6674 -0.5666  0.4919
10824TIP3    H253888   3.118   4.182   3.627 -0.0522  1.3809  0.4605
10825TIP3   OH253889   5.637   3.102  11.723  0.4400  0.7764  0.0544
10825TIP3    H153890   5.662   3.167  11.657  0.2266  0.4057 -0.4015
10825TIP3    H253891   5.556   3.137  11.761 -0.0117  0.4964 -0.6145
10826TIP3   OH253892   5.811   4.339  12.300 -0.1647  0.1353  0.0478
10826TIP3    H153893   5.806   4.255  12.346 -1.4205  0.2614  0.1771
10826TIP3    H253894   5.818   4.315  12.207  1.1642 -0.1115  0.2014
10827TIP3   OH253895   4.180   5.228  14.177 -0.6343 -0.1761  0.1047
10827TIP3    H153896   4.257   5.276  14.207 -1.0391 -0.1036  1.0924
10827TIP3    H253897   4.208   5.136  14.176 -0.8554 -0.2905  1.6412
10828TIP3   OH253898   0.270   0.865  15.944 -0.2657  0.8293  0.2041
10828TIP3    H153899   0.176   0.850  15.934 -0.2158 -0.0401  0.9744
10828TIP3    H253900   0.283   0.954  15.910 -0.8067 -0.1631 -3.0050
10829TIP3   OH253901   1.737   4.937  11.020 -0.2673  0.4986 -0.5075
10829TIP3    H153902   1.671   4.870  11.005  0.5114 -0.8410  1.6148
10829TIP3    H253903   1.689   5.009  11.061 -0.2850 -1.1422  2.6496
10830TIP3   OH253904   3.403   6.756  11.866  0.6318  0.0993  0.4422
10830TIP3    H153905   3.416   6.819  11.795 -2.2769 -0.1104 -0.4180
10830TIP3    H253906   3.439   6.674  11.833 -2.1483 -0.4246 -1.6602
10831TIP3   OH253907   5.552   6.705   1.653 -0.6211  0.6448  0.4966
10831TIP3    H153908   5.571   6.633   1.592  0.5573  2.1546 -1.0486
10831TIP3    H253909   5.525   6.777   1.596  2.0040  2.6052  1.5342
10832TIP3   OH253910   2.164   6.072   2.849  0.2873  0.1893 -0.1073
10832TIP3    H153911   2.069   6.074   2.853  0.3087  1.2858  0.1335
10832TIP3    H253912   2.186   5.979   2.840 -0.7757 -0.1166  0.3422
10833TIP3   OH253913   1.468   4.281   0.152 -0.6754 -0.3401  0.2441
10833TIP3    H153914   1.405   4.260   0.084 -1.6345 -0.5025  1.1456
10833TIP3    H253915   1.510   4.362   0.122 -1.3959 -0.1705 -0.3349
10834TIP3   OH253916   4.098   1.046  13.101  0.2149  0.0104  0.5904
10834TIP3    H153917   4.122   1.117  13.161  0.6537  0.1909  0.2038
10834TIP3    H253918   4.064   1.090  13.023 -1.4533 -0.2349  1.1337
10835TIP3   OH253919   2.817   0.490   5.193  0.0484 -0.2615 -0.2412
10835TIP3    H153920   2.745   0.468   5.134 -1.1180  0.5211  0.8405
10835TIP3    H253921   2.780   0.555   5.253  1.1500 -1.0672  1.3976
10836TIP3   OH253922   6.416   3.722  11.563  0.1807  0.3495 -0.3551
10836TIP3    H153923   6.452   3.804  11.528  0.5179  0.4179  0.1276
10836TIP3    H253924   6.490   3.682  11.609 -0.1272  0.0408 -0.1263
10837TIP3   OH253925   1.772   0.514   2.523 -0.1359  0.1867 -0.2035
10837TIP3    H153926   1.780   0.525   2.429  1.4591  0.5826 -0.0591
10837TIP3    H253927   1.784   0.421   2.538  0.8619  0.2860 -0.3152
10838TIP3   OH253928   2.549   0.949   0.828  0.3089 -0.8142 -0.1345
10838TIP3    H153929   2.635   0.950   0.869  0.2480  0.3314 -0.0004
10838TIP3    H253930   2.495   0.897   0.888  0.5044 -0.1330  0.6621
10839TIP3   OH253931   6.572   6.029  12.582  0.1772 -0.1510  0.3077
10839TIP3    H153932   6.478   6.009  12.586  0.7723 -3.3077  0.8322
10839TIP3    H253933   6.597   6.007  12.492  0.5663 -0.1362  0.4138
10840TIP3   OH253934   0.161   3.230  12.575 -0.2447 -0.0591  0.3079
10840TIP3    H153935   0.206   3.275  12.646  1.7337 -1.9967  0.3939
10840TIP3    H253936   0.077   3.275  12.567  1.5830  3.7153  0.2284
10841TIP3   OH253937   5.521   0.654  16.854 -0.7841  0.3967  0.6778
10841TIP3    H153938   5.500   0.665  16.761 -0.9951 -0.9892  0.5497
10841TIP3    H253939   5.610   0.691  16.862 -0.8007  0.6201 -0.0448
10842TIP3   OH253940   1.351   4.718  10.712  0.3885  0.1727 -0.1917
10842TIP3    H153941   1.437   4.695  10.746  0.1875 -1.2028 -0.5637
10842TIP3    H253942   1.291   4.694  10.782  0.0023 -2.3722 -1.2611
10843TIP3   OH253943   0.342   0.813  14.398 -0.1653  0.4848  0.2581
10843TIP3    H153944   0.333   0.878  14.468  0.3700  1.3405 -0.4638
10843TIP3    H253945   0.417   0.760  14.425  1.2183  1.9663 -0.5515
10844TIP3   OH253946   3.780   2.655  16.598 -0.4564  0.3359 -0.2118
10844TIP3    H153947   3.698   2.705  16.591  0.2550  1.4048 -1.1371
10844TIP3    H253948   3.752   2.569  16.630 -1.7501  1.2069  1.1587
10845TIP3   OH253949   3.038   2.481  13.652  0.0040  0.3405 -0.0069
10845TIP3    H153950   3.013   2.397  13.613 -0.6035 -0.1539  1.3968
10845TIP3    H253951   2.957   2.531  13.657 -0.0083  0.2345  0.9867
10846TIP3   OH253952   2.459   4.929  16.932 -0.0812  0.0684  0.0072
10846TIP3    H153953   2.525   4.896  16.993 -0.3864 -0.3644  0.1096
10846TIP3    H253954   2.508   4.947  16.852  0.0904 -0.7105 -0.0737
10847TIP3   OH253955   5.782   3.014   2.499 -0.5166  0.6553 -0.0410
10847TIP3    H153956   5.815   3.103   2.513  1.5427  0.1380 -1.2520
10847TIP3    H253957   5.748   3.015   2.409 -1.3064  0.4320  0.2457
10848TIP3   OH253958   0.502   2.749  11.548  0.0549  0.0386  1.1090
10848TIP3    H153959   0.520   2.785  11.461 -1.0612 -0.2198  0.7606
10848TIP3    H253960   0.407   2.757  11.558  0.2905  1.2437  2.8212
10849TIP3   OH253961   3.225   3.361   2.994  0.8391 -0.1160  0.4699
10849TIP3    H153962   3.214   3.315   3.077 -2.0240 -1.8126 -0.6739
10849TIP3    H253963   3.267   3.297   2.937  0.5283  0.1389 -0.0514
10850TIP3   OH253964   3.718   4.834   4.836 -0.0722  0.3884 -1.0927
10850TIP3    H153965   3.796   4.779   4.846  0.2247  1.0175  0.2847
10850TIP3    H253966   3.652   4.776   4.798  0.3819 -0.7938 -0.1400
10851TIP3   OH253967   6.469   5.029  14.606  0.0069 -0.6598 -0.0495
10851TIP3    H153968   6.414   5.104  14.582 -0.0136 -0.2562  1.1629
10851TIP3    H253969   6.460   4.968  14.533 -1.8002 -0.4646 -0.0344
10852TIP3   OH253970   4.981   0.154   3.039  0.1910  0.3052  0.0880
10852TIP3    H153971   4.935   0.192   3.114  1.0266  0.3154  0.6154
10852TIP3    H253972   5.005   0.228   2.985 -1.6699  0.1976 -0.9642
10853TIP3   OH253973   6.078   6.331   1.007 -0.7096 -0.2099  0.5509
10853TIP3    H153974   6.012   6.274   0.968  0.1691 -0.1441 -1.1503
10853TIP3    H253975   6.043   6.419   0.996 -0.7090 -0.2280  0.3965
10854TIP3   OH253976   5.894   0.009   4.589  0.6765 -0.3447  0.0090
10854TIP3    H153977   5.860  -0.080   4.596  1.1987 -0.6296 -0.9384
10854TIP3    H253978   5.887   0.031   4.496  1.9086  0.0484 -0.0115
10855TIP3   OH253979   3.089   3.553   5.103 -0.6890 -0.6368 -0.0530
10855TIP3    H153980   3.146   3.610   5.053  1.3859 -1.1937  1.5066
10855TIP3    H253981   3.017   3.609   5.132 -0.5997  0.2667 -1.5194
10856TIP3   OH253982   5.022   5.443   5.673  0.5226 -0.2520  1.2952
10856TIP3    H153983   5.096   5.402   5.717  0.8904 -1.0025  0.0519
10856TIP3    H253984   5.051   5.532   5.654  0.8116 -0.3007  1.5078
10857TIP3   OH253985   4.326   1.064   4.533 -0.1404 -0.0133 -0.1548
10857TIP3    H153986   4.285   1.078   4.448  0.7922  1.5292 -0.3879
10857TIP3    H253987   4.330   0.969   4.543 -4.2894 -0.3420  0.1870
10858TIP3   OH253988   0.400   0.827  11.412 -0.8189 -0.0873  0.3655
10858TIP3    H153989   0.462   0.760  11.384  2.2146  1.9868  1.5244
10858TIP3    H253990   0.429   0.906  11.366 -0.7069  1.5952  3.1252
10859TIP3   OH253991   3.998   5.816   1.170 -0.0994  0.0102 -0.4233
10859TIP3    H153992   4.052   5.754   1.218  0.4643  0.7401 -0.0908
10859TIP3    H253993   3.913   5.772   1.159 -0.1300 -0.2916  0.9405
10860TIP3   OH253994   1.267   6.221   5.786  0.6719 -0.2665 -0.1304
10860TIP3    H153995   1.290   6.309   5.818 -1.2830  0.7057 -1.1680
10860TIP3    H253996   1.227   6.178   5.862 -0.9934  0.8438 -0.3188
10861TIP3   OH253997   0.644   2.160  13.650  0.5907  0.4762 -0.5396
10861TIP3    H153998   0.646   2.250  13.617 -2.0022  0.1457 -1.8070
10861TIP3    H253999   0.599   2.166  13.734  0.0606  0.3338 -0.8088
10862TIP3   OH254000   6.501   6.039   3.005  0.1507 -0.1002 -0.5520
10862TIP3    H154001   6.452   5.963   3.036  1.0908 -1.0242 -1.2238
10862TIP3    H254002   6.545   6.073   3.083  0.4588 -0.8331 -0.3915
10863TIP3   OH254003   2.239   1.207  10.398  0.5324 -0.0779 -0.0911
10863TIP3    H154004   2.293   1.178  10.325 -1.5075  0.2966 -1.8321
10863TIP3    H254005   2.179   1.134  10.414 -1.1932  1.0832 -1.0302
10864TIP3   OH254006   0.927   1.061  13.601  0.2201  0.3019  0.5160
10864TIP3    H154007   0.969   0.979  13.627  0.4705  0.4352  0.5398
10864TIP3    H254008   0.955   1.124  13.667 -0.0727  0.3770  0.5673
10865TIP3   OH254009   3.596   0.345   1.443  0.3826  0.5104  0.8635
10865TIP3    H154010   3.506   0.375   1.436 -0.0184 -1.0152 -1.6838
10865TIP3    H254011   3.628   0.385   1.524 -2.1598  2.0925  1.2077
10866TIP3   OH254012   2.256   1.345  15.156 -0.3138 -0.5326 -0.6084
10866TIP3    H154013   2.182   1.291  15.184  0.2491 -0.8099  0.4099
10866TIP3    H254014   2.224   1.434  15.161 -0.3307 -0.5881  0.7205
10867TIP3   OH254015   5.785   5.865  15.146  0.5434 -0.0469 -0.0365
10867TIP3    H154016   5.834   5.794  15.103 -1.0505  0.0646 -2.2251
10867TIP3    H254017   5.791   5.845  15.239  1.1488 -2.3976 -0.5072
10868TIP3   OH254018   6.631   2.369   5.643  0.1676 -0.6123 -0.1286
10868TIP3    H154019   6.683   2.415   5.577 -0.5041 -0.3235 -0.4695
10868TIP3    H254020   6.686   2.370   5.721 -0.2594  1.8678  0.2427
10869TIP3   OH254021   1.857   4.240   0.473 -0.0469  0.1326  0.0457
10869TIP3    H154022   1.871   4.248   0.379 -0.1026 -1.9312 -0.1900
10869TIP3    H254023   1.928   4.290   0.513 -0.4279  1.6255 -1.0629
10870TIP3   OH254024   2.704   0.644   4.546  0.5125 -0.8793 -0.0841
10870TIP3    H154025   2.672   0.595   4.623 -1.7731 -1.2499 -1.1842
10870TIP3    H254026   2.638   0.712   4.532 -0.2049 -1.9980 -2.8073
10871TIP3   OH254027   4.144   0.150   5.635  0.9408 -0.2945 -0.3392
10871TIP3    H154028   4.093   0.218   5.680  0.0569 -0.6530 -0.7570
10871TIP3    H254029   4.080   0.107   5.577  1.1157 -2.3945  0.9068
10872TIP3   OH254030   0.767   3.860   0.955 -0.0391 -0.2268 -0.0889
10872TIP3    H154031   0.794   3.939   1.002 -0.1783 -0.3872  0.2683
10872TIP3    H254032   0.796   3.788   1.012 -0.1896 -0.4259 -0.2625
10873TIP3   OH254033   0.013   1.459   1.624 -0.2885  0.3069  0.0027
10873TIP3    H154034   0.019   1.536   1.681 -0.0736  0.2537  0.0565
10873TIP3    H254035  -0.071   1.419   1.646 -0.1458  0.2088  0.3878
10874TIP3   OH254036   0.327   4.072   2.214 -0.3394  0.4927 -0.5793
10874TIP3    H154037   0.404   4.039   2.168 -1.3450  0.0038 -2.0014
10874TIP3    H254038   0.286   4.133   2.152 -1.4233  0.2773 -0.1077
10875TIP3   OH254039   0.966   3.173   0.407  0.2891 -0.4657  0.1497
10875TIP3    H154040   0.989   3.233   0.478  3.8476  0.2717 -1.3868
10875TIP3    H254041   0.919   3.228   0.344  1.3757  0.1478 -0.1558
10876TIP3   OH254042   5.596   5.472  14.507  0.1046  0.4155  0.2015
10876TIP3    H154043   5.553   5.435  14.584 -0.4122  1.5353  0.4632
10876TIP3    H254044   5.602   5.566  14.525  2.3813  0.3660  0.0425
10877TIP3   OH254045   3.659   0.597  13.011  0.1912  0.0938 -0.1058
10877TIP3    H154046   3.664   0.588  13.106  0.6405 -0.1143 -0.1472
10877TIP3    H254047   3.576   0.554  12.988 -1.0183  2.0549  0.4025
10878TIP3   OH254048   4.038   5.504   4.302 -0.0124  0.3290  0.4332
10878TIP3    H154049   4.118   5.464   4.336  2.7607  3.9126 -1.1603
10878TIP3    H254050   3.985   5.522   4.379  1.6084 -0.4178  1.7721
10879TIP3   OH254051   2.383   6.211   3.531 -0.0919 -0.0344  0.0958
10879TIP3    H154052   2.348   6.297   3.555 -1.2089 -0.4335 -0.0531
10879TIP3    H254053   2.392   6.165   3.614  1.8071  0.6655  0.3321
10880TIP3   OH254054   5.861   4.939   1.068 -0.5305  0.3184  0.6852
10880TIP3    H154055   5.857   5.004   0.998  0.2375  0.0215  0.3595
10880TIP3    H254056   5.954   4.926   1.084 -0.6324 -1.6074 -0.1030
10881TIP3   OH254057   2.188   4.647  14.767  0.1791  0.3469 -0.2014
10881TIP3    H154058   2.177   4.578  14.702  0.2379 -0.2860  0.4587
10881TIP3    H254059   2.257   4.615  14.825  0.3348  1.0388  0.0101
10882TIP3   OH254060   6.712   1.762   6.009  0.4200 -0.0410 -0.0015
10882TIP3    H154061   6.726   1.735   6.100  0.0260 -2.7037 -0.6371
10882TIP3    H254062   6.800   1.780   5.976  0.7582 -0.8411  0.4306
10883TIP3   OH254063   0.655   6.551   4.141  0.3155  0.4735  0.1645
10883TIP3    H154064   0.713   6.571   4.067 -0.8620  1.0164 -0.6288
10883TIP3    H254065   0.582   6.503   4.102 -0.4403  0.9742  0.9345
10884TIP3   OH254066   4.927   2.010   4.683  0.1762 -0.2599  0.2033
10884TIP3    H154067   4.890   2.062   4.612 -1.0037 -2.0170 -0.5031
10884TIP3    H254068   4.926   1.920   4.652  2.0727 -0.7874  1.4481
10885TIP3   OH254069   4.581   6.168   2.969 -0.2606 -0.1555  0.2773
10885TIP3    H154070   4.533   6.234   2.919 -1.4209 -1.9708 -1.1280
10885TIP3    H254071   4.527   6.089   2.962  1.4945 -1.4993  1.1576
10886TIP3   OH254072   1.052   0.808   3.073 -0.4167  0.5158  0.0343
10886TIP3    H154073   1.040   0.859   2.992 -0.3495 -2.5125 -2.0722
10886TIP3    H254074   1.125   0.750   3.054  0.2133  0.3257  2.6935
10887TIP3   OH254075   0.093   2.720  16.577 -0.0850  0.8612 -0.1476
10887TIP3    H154076   0.052   2.727  16.663 -0.9406 -0.7379 -0.3886
10887TIP3    H254077   0.148   2.642  16.582  0.1665  0.9735 -0.9245
10888TIP3   OH254078   4.476   5.680  13.236  0.1019 -0.3528 -0.3460
10888TIP3    H154079   4.388   5.693  13.202  0.3965 -0.7097 -1.3025
10888TIP3    H254080   4.533   5.731  13.178  0.4564  0.6026  0.7967
10889TIP3   OH254081   5.402   5.651   3.266  0.1674 -0.2267 -0.3836
10889TIP3    H154082   5.452   5.591   3.321  0.7112 -0.6798 -1.3510
10889TIP3    H254083   5.406   5.735   3.311  1.1487 -0.4435 -0.0540
10890TIP3   OH254084   4.314   0.284  16.082 -0.0582 -0.0344 -0.2370
10890TIP3    H154085   4.291   0.272  16.175  0.9188  0.6233  0.1078
10890TIP3    H254086   4.402   0.321  16.084  1.2572 -2.8097 -1.5047
10891TIP3   OH254087   2.790   2.712  13.140 -0.0273  0.8593  0.3808
10891TIP3    H154088   2.804   2.635  13.085  1.2465  1.5557 -0.3184
10891TIP3    H254089   2.726   2.683  13.205 -2.6150  0.3473 -2.1719
10892TIP3   OH254090   0.664   2.371   2.351  0.5608  0.0264 -0.0071
10892TIP3    H154091   0.757   2.374   2.329  0.7295  0.8864  0.7884
10892TIP3    H254092   0.623   2.325   2.276  1.3759  1.1121 -1.1572
10893TIP3   OH254093   3.868   0.447  14.763 -0.7946  0.1329 -0.2879
10893TIP3    H154094   3.859   0.353  14.773  0.4345  0.0585  0.2780
10893TIP3    H254095   3.790   0.484  14.805 -0.4093 -0.5559  1.0620
10894TIP3   OH254096   6.137   6.297  13.354  0.2844 -0.3395 -0.2758
10894TIP3    H154097   6.088   6.216  13.344 -0.3657  0.0749 -0.5315
10894TIP3    H254098   6.229   6.271  13.346  0.0508 -0.9327 -1.1566
10895TIP3   OH254099   6.148   3.233  12.836 -0.5094 -0.6501  0.0231
10895TIP3    H154100   6.099   3.192  12.765  0.6093 -2.0464  0.0067
10895TIP3    H254101   6.240   3.219  12.813 -0.1189  0.1997  0.9921
10896TIP3   OH254102   4.738   5.157  13.360 -0.0528 -0.1145 -0.4631
10896TIP3    H154103   4.748   5.103  13.282  0.4302 -1.1835  0.3280
10896TIP3    H254104   4.699   5.099  13.426  0.4066  0.5111  0.3813
10897TIP3   OH254105   3.676   4.776   3.085  0.0302  0.1986 -0.1327
10897TIP3    H154106   3.587   4.801   3.111 -0.1283 -0.1022 -0.3826
10897TIP3    H254107   3.681   4.800   2.993  0.0291 -0.2735 -0.2565
10898TIP3   OH254108   4.367   3.987   0.218 -0.1998  0.1981  0.0080
10898TIP3    H154109   4.333   3.927   0.152 -1.5070  1.6004 -0.6601
10898TIP3    H254110   4.404   4.059   0.168 -1.1358  1.2420  0.7758
10899TIP3   OH254111   4.881   5.357  11.302 -0.4709  0.6278  0.2085
10899TIP3    H154112   4.924   5.280  11.338  1.2250  1.9838  1.2398
10899TIP3    H254113   4.856   5.332  11.213 -3.5993 -2.4243  1.7022
10900TIP3   OH254114   3.419   5.698   2.159  0.7276 -0.2995 -0.9028
10900TIP3    H154115   3.449   5.773   2.107  1.0147 -0.0495 -0.3865
10900TIP3    H254116   3.476   5.698   2.236 -1.1809  0.7996  0.6238
10901TIP3   OH254117   1.017   4.728  15.221  0.5293 -0.0153 -0.4619
10901TIP3    H154118   1.088   4.782  15.256 -0.0360  1.1902 -1.0847
10901TIP3    H254119   1.056   4.642  15.208  0.9725 -0.3271  2.3532
10902TIP3   OH254120   2.096   3.760   4.926  0.3480 -0.4778 -0.6085
10902TIP3    H154121   2.191   3.766   4.910  0.1825 -0.8037 -1.7711
10902TIP3    H254122   2.059   3.831   4.873 -0.0510 -0.2487 -0.0275
10903TIP3   OH254123   3.502   4.666  15.709 -0.2228 -0.3808 -0.0320
10903TIP3    H154124   3.450   4.595  15.747  0.8111 -0.5898  1.0439
10903TIP3    H254125   3.591   4.631  15.705 -0.1960 -0.2492 -2.3839
10904TIP3   OH254126   0.938   2.570  16.218 -0.3976 -0.0500  0.0145
10904TIP3    H154127   0.989   2.498  16.181 -1.7910 -1.1004  0.0639
10904TIP3    H254128   0.853   2.563  16.176  0.0610  2.9893 -1.7201
10905TIP3   OH254129   4.903   4.514   0.125  0.4266  0.1010 -0.1584
10905TIP3    H154130   4.923   4.429   0.084 -1.4657 -1.1497  1.3148
10905TIP3    H254131   4.813   4.532   0.097  0.8678  1.7399 -0.5795
10906TIP3   OH254132   4.463   2.387   4.357  0.6435 -0.4811 -0.0790
10906TIP3    H154133   4.425   2.454   4.301  0.9214  0.6848  1.0874
10906TIP3    H254134   4.553   2.415   4.372  0.5869 -0.7910  0.9083
10907TIP3   OH254135   3.050   1.638  15.340  0.7755 -0.3438  0.1440
10907TIP3    H154136   3.101   1.561  15.366 -0.0002 -0.6620  0.7846
10907TIP3    H254137   3.101   1.679  15.271  0.9937 -1.6765 -0.5068
10908TIP3   OH254138   0.977   0.974  11.415 -0.2310  0.2990  0.2370
10908TIP3    H154139   1.021   0.963  11.331  3.0870  1.4258  1.6536
10908TIP3    H254140   0.929   1.056  11.407  0.7031  0.8024 -0.3386
10909TIP3   OH254141   3.917   4.867   0.514 -0.2451 -0.2257  0.5737
10909TIP3    H154142   3.957   4.913   0.440 -0.9348  1.7948  1.3661
10909TIP3    H254143   3.988   4.855   0.577 -0.3680  1.3459  1.0540
10910TIP3   OH254144   1.794   1.327  16.608  0.0926 -0.3793  0.0857
10910TIP3    H154145   1.832   1.412  16.584  0.9844 -0.5486  0.8138
10910TIP3    H254146   1.865   1.264  16.593 -0.2874 -0.8783  0.3556
10911TIP3   OH254147   6.048   2.698  14.416  0.5520  0.0590 -0.1103
10911TIP3    H154148   6.030   2.789  14.395 -0.1850 -0.2774 -0.9909
10911TIP3    H254149   5.967   2.652  14.397  0.5792 -0.6450  1.3144
10912TIP3   OH254150   1.086   0.242   4.587  1.0353 -0.0140 -0.0462
10912TIP3    H154151   1.011   0.278   4.540  0.3670 -2.3363 -0.8756
10912TIP3    H254152   1.161   0.292   4.555  0.2117  0.3364 -1.4749
10913TIP3   OH254153   3.700   3.800  14.255 -0.5261  0.0904 -0.4519
10913TIP3    H154154   3.680   3.883  14.299  0.8035  0.9494 -1.3689
10913TIP3    H254155   3.786   3.815  14.215 -0.4893 -1.5724 -1.0642
10914TIP3   OH254156   1.273   0.363   5.159  0.1708 -0.3462  0.2168
10914TIP3    H154157   1.208   0.298   5.187 -0.7061  1.2269  2.0469
10914TIP3    H254158   1.238   0.446   5.191  2.2876  0.7671 -0.2454
10915TIP3   OH254159   3.898   5.371  16.452 -0.1389 -0.5027 -0.1619
10915TIP3    H154160   3.901   5.410  16.540 -1.8796 -2.6629  0.9472
10915TIP3    H254161   3.884   5.446  16.394 -2.7060  0.7068  1.7860
10916TIP3   OH254162   6.598   4.332   0.420  0.3189  0.2359 -0.1754
10916TIP3    H154163   6.586   4.243   0.388 -1.5575  0.6000 -0.6215
10916TIP3    H254164   6.567   4.388   0.348 -0.0272  1.1880  0.6825
10917TIP3   OH254165   2.122   0.322   2.638 -0.0977 -0.2366 -0.2633
10917TIP3    H154166   2.123   0.312   2.733  1.7019 -0.2210 -0.2427
10917TIP3    H254167   2.040   0.282   2.610 -0.2359 -1.0518  1.2143
10918TIP3   OH254168   5.639   5.792  14.196  0.1871  0.2545 -0.1999
10918TIP3    H154169   5.671   5.759  14.279 -1.2047 -0.7739 -0.0433
10918TIP3    H254170   5.663   5.724  14.132  4.1668  2.4185 -1.3585
10919TIP3   OH254171   4.711   1.163   4.258 -0.3849  0.0773  0.4601
10919TIP3    H154172   4.737   1.251   4.286 -1.1202  0.7111 -0.7664
10919TIP3    H254173   4.753   1.151   4.173  0.1581 -0.9932  0.8623
10920TIP3   OH254174   3.587   2.555  12.096  0.7199 -0.0914  0.0783
10920TIP3    H154175   3.577   2.594  12.010 -1.3941 -0.6676  0.0145
10920TIP3    H254176   3.602   2.629  12.155  0.0944  0.5026 -0.4977
10921TIP3   OH254177   5.285   2.325  14.263 -0.0054 -0.9303  0.2627
10921TIP3    H154178   5.294   2.344  14.357  0.6085  2.1163 -0.2967
10921TIP3    H254179   5.218   2.387  14.233 -1.5746 -3.1215 -1.0433
10922TIP3   OH254180   3.487   3.284   5.465  0.0809 -0.2095 -0.3474
10922TIP3    H154181   3.531   3.242   5.391  1.3118  1.0324 -0.3642
10922TIP3    H254182   3.402   3.311   5.431  1.2015  1.6861 -1.7954
10923TIP3   OH254183   3.765   3.427  16.188  0.2741  0.1938  0.1818
10923TIP3    H154184   3.821   3.493  16.149  0.9502 -0.1424  0.5701
10923TIP3    H254185   3.682   3.473  16.204 -0.3862  0.1079 -2.4769
10924TIP3   OH254186   1.050   2.354   5.567  0.5021  0.4787  0.2173
10924TIP3    H154187   1.088   2.321   5.485  3.9532 -1.0497  2.2069
10924TIP3    H254188   1.102   2.431   5.588 -1.0704  1.5007  0.5196
10925TIP3   OH254189   4.213   5.533  11.561 -0.0354 -0.4724  0.0429
10925TIP3    H154190   4.234   5.441  11.572  1.5645  0.0158  1.7721
10925TIP3    H254191   4.286   5.579  11.605 -2.2276  1.5450  1.8405
10926TIP3   OH254192   4.788   6.627   3.910 -0.3275  0.7015  0.3180
10926TIP3    H154193   4.878   6.659   3.911 -0.5576  1.7160 -2.2414
10926TIP3    H254194   4.757   6.639   4.000  1.5991  1.8105  0.8868
10927TIP3   OH254195   3.897   0.337   5.435  0.1341  0.1235  0.0312
10927TIP3    H154196   3.934   0.318   5.349 -2.6272  0.3252 -1.3408
10927TIP3    H254197   3.894   0.433   5.439  1.2251  0.1428  0.8593
10928TIP3   OH254198   0.914   5.640   0.861 -0.1229  0.1345  0.4137
10928TIP3    H154199   0.861   5.717   0.840  0.1112  0.4533  0.9837
10928TIP3    H254200   0.944   5.608   0.775 -1.1718 -0.0167  0.0866
10929TIP3   OH254201   3.617   4.957   4.459 -0.0845 -0.3246 -0.2614
10929TIP3    H154202   3.691   4.957   4.520  0.0185  1.9172 -0.3266
10929TIP3    H254203   3.654   4.924   4.377  1.2361  1.9874 -0.6664
10930TIP3   OH254204   6.363   2.651   2.645 -0.0766 -0.5554  0.1125
10930TIP3    H154205   6.316   2.725   2.683 -0.6810 -0.8713 -0.0008
10930TIP3    H254206   6.335   2.649   2.553  1.4843  0.2960 -0.4280
10931TIP3   OH254207   6.183   4.219  16.250  0.0508  0.0489  0.4899
10931TIP3    H154208   6.191   4.313  16.237  1.0243  0.3688  2.8349
10931TIP3    H254209   6.272   4.191  16.274 -0.4069 -1.3082  0.6673
10932TIP3   OH254210   3.162   2.308  12.927 -0.4288 -0.5463  0.5078
10932TIP3    H154211   3.197   2.337  13.011  0.1986 -2.5362  0.9949
10932TIP3    H254212   3.240   2.290  12.873 -0.7812 -0.9163  0.1094
10933TIP3   OH254213   2.008   5.629   0.474 -0.1284  0.1434  0.0569
10933TIP3    H154214   1.976   5.684   0.546  0.0186  0.8671 -0.4102
10933TIP3    H254215   2.015   5.690   0.400  1.7713 -0.0919 -0.0171
10934TIP3   OH254216   0.709   6.629   2.499 -0.4412  0.4850 -0.0208
10934TIP3    H154217   0.702   6.632   2.404  0.8997 -0.5207 -0.1709
10934TIP3    H254218   0.644   6.564   2.526  0.8448 -1.0809 -0.5003
10935TIP3   OH254219   1.578   2.293   5.434  0.5125 -0.0795  0.3366
10935TIP3    H154220   1.674   2.297   5.433  0.5258 -0.1200  0.9922
10935TIP3    H254221   1.557   2.248   5.516 -0.0617 -0.3223  0.0621
10936TIP3   OH254222   5.042   3.557   5.905  0.0108 -0.0404 -0.6873
10936TIP3    H154223   5.029   3.514   5.821 -0.2816  0.2771 -0.8072
10936TIP3    H254224   5.009   3.646   5.892  1.3072  0.4626 -0.6739
10937TIP3   OH254225   1.279   1.948  14.781 -0.1605  0.2024 -0.0149
10937TIP3    H154226   1.188   1.955  14.810  0.8421  2.0825  3.3331
10937TIP3    H254227   1.289   2.018  14.716 -0.8260  0.9094  0.6113
10938TIP3   OH254228   0.918   6.018   5.340  0.0683  0.0909  0.3129
10938TIP3    H154229   0.831   6.056   5.327  0.7098  2.0524  1.5355
10938TIP3    H254230   0.926   6.007   5.434  0.7780 -1.0927  0.1410
10939TIP3   OH254231   3.304   2.858  13.778 -0.3857 -0.3742 -0.1816
10939TIP3    H154232   3.379   2.817  13.734  0.2653  1.3192 -0.7156
10939TIP3    H254233   3.287   2.937  13.727 -1.9886 -0.2665  0.4700
10940TIP3   OH254234   6.519   2.267  11.734 -0.1042 -0.3397 -0.4355
10940TIP3    H154235   6.476   2.221  11.806  0.8625  0.5390  0.7799
10940TIP3    H254236   6.465   2.250  11.658 -1.1030 -1.4295  0.4753
10941TIP3   OH254237   1.261   5.961  12.162 -0.4754 -0.3680 -0.1311
10941TIP3    H154238   1.190   6.019  12.188  0.0717 -0.0598  0.6941
10941TIP3    H254239   1.250   5.884  12.218 -0.4147 -0.5021 -0.3039
10942TIP3   OH254240   1.977   5.618  14.551  0.0882 -0.5783 -0.3256
10942TIP3    H154241   2.052   5.594  14.496 -0.2581 -0.4340 -0.8704
10942TIP3    H254242   1.922   5.539  14.552  2.0770 -2.2165  3.3524
10943TIP3   OH254243   4.537   6.314   0.262 -0.1753  0.2046  0.4573
10943TIP3    H154244   4.586   6.383   0.217  0.4918 -0.4415  0.1701
10943TIP3    H254245   4.539   6.240   0.202 -0.4387 -0.2314  0.9787
10944TIP3   OH254246   2.670   4.691  15.284 -0.7796 -0.4375 -0.3895
10944TIP3    H154247   2.622   4.705  15.366 -0.5172  2.7285 -0.6468
10944TIP3    H254248   2.607   4.712  15.215 -0.2418 -0.4292 -0.8908
10945TIP3   OH254249   1.739   2.754   5.546 -0.7299 -0.7677  0.1725
10945TIP3    H154250   1.667   2.770   5.607  0.1269  1.2437  0.7535
10945TIP3    H254251   1.758   2.840   5.509  0.4498 -1.5126 -1.0220
10946TIP3   OH254252   6.390   1.052  12.233  0.2173  0.0564  0.0912
10946TIP3    H154253   6.456   1.079  12.170 -1.5209  0.1720 -1.7954
10946TIP3    H254254   6.425   1.078  12.318  2.1659  0.8885 -0.9132
10947TIP3   OH254255   2.644   6.443   0.522  0.5741 -0.7450 -0.1351
10947TIP3    H154256   2.588   6.410   0.451  1.3150 -0.0347 -1.0846
10947TIP3    H254257   2.725   6.392   0.515  1.0769  0.0794 -0.5377
10948TIP3   OH254258   3.159   0.892  14.481 -0.3528  0.1015 -0.2487
10948TIP3    H154259   3.162   0.894  14.385  0.7147  1.8347 -0.2281
10948TIP3    H254260   3.070   0.917  14.503 -0.3137  0.7962 -0.8135
10949TIP3   OH254261   4.856   2.384  12.825  0.4233  0.5910 -0.0162
10949TIP3    H154262   4.865   2.334  12.743  0.2490  0.8664 -0.2039
10949TIP3    H254263   4.789   2.337  12.874  0.7152  0.2727  0.0854
10950TIP3   OH254264   6.675   1.258   3.870  0.3288 -0.5828 -0.7035
10950TIP3    H154265   6.728   1.337   3.877  0.0557 -0.4877  0.5345
10950TIP3    H254266   6.661   1.246   3.776  0.7423  0.5928 -0.9241
10951TIP3   OH254267   1.281   3.799  10.801 -0.3012 -0.9111  0.2071
10951TIP3    H154268   1.362   3.774  10.755 -0.5548 -1.8795  0.2549
10951TIP3    H254269   1.211   3.768  10.745 -0.6625  0.2290  0.0033
10952TIP3   OH254270   1.548   1.866   5.486 -0.0216 -0.3829 -0.0643
10952TIP3    H154271   1.490   1.819   5.425  1.6902 -1.7617 -0.7247
10952TIP3    H254272   1.626   1.811   5.491  1.1595  1.3144  0.9427
10953TIP3   OH254273   6.439   6.357   2.381  0.3422 -0.2898 -0.4197
10953TIP3    H154274   6.463   6.445   2.411  2.0335 -0.6190 -0.7538
10953TIP3    H254275   6.389   6.320   2.454  1.0793  0.3312  0.4271
10954TIP3   OH254276   1.133   6.118   5.990  0.3845 -0.4654  0.7458
10954TIP3    H154277   1.197   6.097   6.059  2.6664  1.4765 -0.6283
10954TIP3    H254278   1.087   6.195   6.023 -0.6990 -1.3591  1.3689
10955TIP3   OH254279   2.323   3.846   3.844 -0.1016  0.1192  0.1016
10955TIP3    H154280   2.364   3.766   3.876  0.5725 -0.3808 -1.9191
10955TIP3    H254281   2.229   3.826   3.844 -0.0204 -0.2949  0.5703
10956TIP3   OH254282   4.644   5.076   6.693  0.2591 -0.4626 -0.5254
10956TIP3    H154283   4.734   5.102   6.710  0.7032 -0.7055 -2.2300
10956TIP3    H254284   4.624   5.115   6.608 -1.1848 -0.5672 -0.2563
10957TIP3   OH254285   5.385   4.710   5.600 -0.2802  0.2296  0.5940
10957TIP3    H154286   5.457   4.653   5.572 -0.3834  0.1579  0.4735
10957TIP3    H254287   5.415   4.799   5.579 -1.0020  0.0885 -1.2373
10958TIP3   OH254288   3.353   4.956  13.880 -1.8143 -0.2575  0.7857
10958TIP3    H154289   3.362   4.988  13.970 -1.3890 -0.3917  0.7943
10958TIP3    H254290   3.414   4.882  13.875 -0.5613  0.7837 -0.0947
10959TIP3   OH254291   3.386   2.213  13.568 -0.3235 -0.0786 -0.4206
10959TIP3    H154292   3.448   2.184  13.635  0.5906  0.7833 -0.8636
10959TIP3    H254293   3.339   2.134  13.543 -0.2911 -0.5183  0.8287
10960TIP3   OH254294   3.961   1.277  11.518  0.8706 -0.0763 -0.1750
10960TIP3    H154295   3.938   1.288  11.426  0.8531 -0.5713 -0.2358
10960TIP3    H254296   3.960   1.182  11.531  2.0137 -0.0743  0.0444
10961TIP3   OH254297   4.034   2.221  14.439  0.1205  0.0909  0.1200
10961TIP3    H154298   4.060   2.165  14.366  0.7302  2.8160 -1.9361
10961TIP3    H254299   3.945   2.247  14.418  0.3761  1.0642  0.2014
10962TIP3   OH254300   5.855   5.437   2.456 -0.0392 -0.2069 -0.2655
10962TIP3    H154301   5.893   5.393   2.381 -1.8563  0.7067 -1.8257
10962TIP3    H254302   5.762   5.412   2.453 -0.1757 -0.0428  1.6123
10963TIP3   OH254303   1.338   5.553  13.818 -0.2420  0.4593  0.7368
10963TIP3    H154304   1.396   5.528  13.891  0.8966 -1.2437 -0.6640
10963TIP3    H254305   1.361   5.492  13.748 -1.1688  2.1656 -1.1379
10964TIP3   OH254306   3.559   6.747  13.702  0.1317 -0.3876 -0.0080
10964TIP3    H154307   3.518   6.746  13.789  0.9738 -0.1247  0.4011
10964TIP3    H254308   3.570   6.654  13.680  0.3462 -0.4585  0.3789
10965TIP3   OH254309   2.172   2.998  11.737  0.1575 -0.1424 -0.1503
10965TIP3    H154310   2.125   2.990  11.820  0.6996  1.2195  0.3163
10965TIP3    H254311   2.153   2.916  11.691 -0.6536 -0.6636  1.0498
10966TIP3   OH254312   5.726   3.008   3.468  0.3291 -0.4147  0.2417
10966TIP3    H154313   5.642   3.046   3.492 -0.4748 -0.1877 -2.6354
10966TIP3    H254314   5.704   2.928   3.420  1.8718 -1.6446  1.4527
10967TIP3   OH254315   1.541   3.091  17.234 -0.2682  0.0885  0.2553
10967TIP3    H154316   1.598   3.166  17.216  0.1939  0.6090  3.3573
10967TIP3    H254317   1.498   3.113  17.316 -1.0045 -2.5686  0.6666
10968TIP3   OH254318   3.546   6.227   2.829 -0.1970  0.2798 -0.6163
10968TIP3    H154319   3.571   6.309   2.872 -0.9802  0.2692 -0.1219
10968TIP3    H254320   3.503   6.254   2.748 -2.6477  0.4975  0.6613
10969TIP3   OH254321   0.760   3.385  17.173 -0.0067  0.2855  0.1356
10969TIP3    H154322   0.846   3.361  17.139 -0.2305 -0.2325 -0.0771
10969TIP3    H254323   0.773   3.395  17.267  0.3250  0.3988  0.0791
10970TIP3   OH254324   2.455   0.116  14.246  0.0829  0.0244 -0.4722
10970TIP3    H154325   2.408   0.043  14.286 -1.0503  1.5776  1.1858
10970TIP3    H254326   2.408   0.134  14.165 -1.0971  0.4020  0.2816
10971TIP3   OH254327   4.534   3.213  13.583  0.1348  0.2793 -0.2736
10971TIP3    H154328   4.587   3.137  13.562 -1.1735 -0.9777  0.7904
10971TIP3    H254329   4.450   3.177  13.610 -0.9210  2.1548 -0.8598
10972TIP3   OH254330   3.829   5.591  16.797  0.1508  0.0488  0.0451
10972TIP3    H154331   3.770   5.544  16.738  1.6988  0.6946 -2.1425
10972TIP3    H254332   3.916   5.581  16.758  0.9360  2.4438  0.9657
10973TIP3   OH254333   0.198   2.734   1.661 -0.2335 -0.1769  0.4206
10973TIP3    H154334   0.250   2.813   1.643 -0.1536 -0.4603 -0.6525
10973TIP3    H254335   0.247   2.689   1.729  0.8206 -0.3051 -0.3845
10974TIP3   OH254336   6.311   6.371   3.107  0.2137  0.1472  0.2687
10974TIP3    H154337   6.315   6.363   3.012  1.1846 -0.3374  0.3339
10974TIP3    H254338   6.403   6.375   3.134 -0.0578  0.8542  1.1443
10975TIP3   OH254339   1.495   3.178   0.159 -0.1005 -0.3891 -0.1882
10975TIP3    H154340   1.551   3.124   0.214 -1.2835 -1.1903  0.2551
10975TIP3    H254341   1.541   3.262   0.154  2.2908 -1.6471 -1.7064
10976TIP3   OH254342   0.903   2.020  16.753 -0.3852  0.3293 -0.4202
10976TIP3    H154343   0.844   2.090  16.778 -0.9040 -0.1651 -0.2397
10976TIP3    H254344   0.858   1.975  16.681 -0.3512 -0.2098 -0.1074
10977TIP3   OH254345   1.616   1.898   2.001 -0.3847  0.0302  0.0306
10977TIP3    H154346   1.709   1.888   1.981 -0.5752  1.5597 -1.9043
10977TIP3    H254347   1.575   1.821   1.962 -0.0202 -0.2817  0.2533
10978TIP3   OH254348   1.278   0.993   5.776  0.5020  0.6097  0.1271
10978TIP3    H154349   1.236   1.031   5.853  2.8366  0.1237  1.7502
10978TIP3    H254350   1.370   1.020   5.783  1.0867 -0.7250 -1.6594
10979TIP3   OH254351   0.070   1.145   4.971 -0.2111 -0.0600  0.3948
10979TIP3    H154352   0.075   1.118   5.063 -1.6954  0.3489  0.6216
10979TIP3    H254353   0.091   1.238   4.972 -0.5980  0.0282  0.3740
10980TIP3   OH254354   5.003   1.116  16.310  0.5106  0.3511  0.3403
10980TIP3    H154355   4.980   1.173  16.237  0.6083 -0.4608 -0.3525
10980TIP3    H254356   4.970   1.161  16.388  0.3223  1.1923 -0.2117
10981TIP3   OH254357   6.491   0.375  14.500 -0.2113 -0.4403 -0.1136
10981TIP3    H154358   6.462   0.324  14.576 -0.7329  2.6986  1.9629
10981TIP3    H254359   6.423   0.440  14.487  2.3173  2.5799  0.3284
10982TIP3   OH254360   6.242   3.133  14.219 -0.2668  0.9447  0.2414
10982TIP3    H154361   6.244   3.037  14.219 -1.6513  0.8307 -2.0272
10982TIP3    H254362   6.304   3.158  14.150  0.2319  1.7077  0.9508
10983TIP3   OH254363   3.841   3.667  12.906 -0.0701 -0.1819 -0.3137
10983TIP3    H154364   3.831   3.574  12.883  2.0707 -0.1159 -1.7722
10983TIP3    H254365   3.752   3.697  12.923 -1.1753 -1.8453 -2.5735
10984TIP3   OH254366   1.968   1.890   4.942 -0.0019  0.5781 -0.2307
10984TIP3    H154367   2.011   1.896   5.027  2.5682  0.2044 -1.4059
10984TIP3    H254368   1.939   1.799   4.935 -4.7116  1.6032  2.1074
10985TIP3   OH254369   6.018   0.344   1.838  0.0075  0.5563  0.0276
10985TIP3    H154370   6.082   0.414   1.855  0.5169  0.0942  0.0247
10985TIP3    H254371   5.972   0.372   1.759  0.7192  0.5375 -0.4018
10986TIP3   OH254372   6.657   5.366  11.955 -0.4747  0.0389  0.0637
10986TIP3    H154373   6.589   5.431  11.938  0.3182  0.4976 -1.4704
10986TIP3    H254374   6.708   5.403  12.027 -1.3967  0.0271  0.7394
10987TIP3   OH254375   2.390   4.914  16.270  0.1281 -0.2829 -0.7269
10987TIP3    H154376   2.318   4.868  16.313  0.2545 -0.7217 -0.9753
10987TIP3    H254377   2.469   4.870  16.301  0.3864  0.9779  0.4949
10988TIP3   OH254378   3.977   1.426   5.403  0.4576 -0.1124  0.4832
10988TIP3    H154379   3.980   1.352   5.342  1.5013  0.2328  0.0918
10988TIP3    H254380   4.069   1.442   5.426  0.4220  2.0718 -0.6707
10989TIP3   OH254381   1.187   0.596   5.268  0.0983  0.4678 -0.4635
10989TIP3    H154382   1.263   0.634   5.312  1.0417 -0.0584 -1.5908
10989TIP3    H254383   1.111   0.631   5.316  1.0055  1.8536  0.0121
10990TIP3   OH254384   5.107   4.175  11.333 -0.1704 -1.0824  0.2960
10990TIP3    H154385   5.074   4.137  11.252 -0.2872  0.6835 -0.5423
10990TIP3    H254386   5.196   4.204  11.311 -0.8320  1.0574  0.1666
10991TIP3   OH254387   0.543   2.460  10.658  0.2141  0.3852  0.1622
10991TIP3    H154388   0.514   2.385  10.607  0.5879 -0.4493  1.1509
10991TIP3    H254389   0.561   2.425  10.745 -0.4833  1.7793  0.9052
10992TIP3   OH254390   3.532   6.148   4.374  0.7002  0.3485 -0.2570
10992TIP3    H154391   3.612   6.179   4.331  0.2377  0.1661 -1.2764
10992TIP3    H254392   3.463   6.204   4.339 -0.1544 -1.7055 -2.1000
10993TIP3   OH254393   4.287   3.382   3.222 -0.2089 -0.4107 -0.2055
10993TIP3    H154394   4.196   3.354   3.208 -0.3772  0.9056 -2.1278
10993TIP3    H254395   4.325   3.385   3.135  1.1392  0.8037  0.3767
10994TIP3   OH254396   2.048   2.549  17.118 -0.2945 -0.5693 -0.0108
10994TIP3    H154397   2.017   2.476  17.064  0.8770 -0.9163 -0.2521
10994TIP3    H254398   2.128   2.578  17.075  0.0037 -0.0467  0.8623
10995TIP3   OH254399   0.775   6.272  14.428  0.0244  0.1734  0.2248
10995TIP3    H154400   0.684   6.245  14.440 -0.2709  0.1605 -1.7895
10995TIP3    H254401   0.782   6.355  14.476 -0.8339 -0.1795  0.9870
10996TIP3   OH254402   3.982   1.206  16.731  0.0437  0.2291  0.6413
10996TIP3    H154403   3.996   1.215  16.825 -0.0202 -1.5061  0.8504
10996TIP3    H254404   4.070   1.208  16.693  0.1018  0.3826  0.7810
10997TIP3   OH254405   1.559   6.328  10.480 -0.3158  0.1968  0.4830
10997TIP3    H154406   1.608   6.393  10.430  1.5538 -3.1284 -2.5006
10997TIP3    H254407   1.623   6.292  10.541  0.0656 -1.7878 -1.0053
10998TIP3   OH254408   4.225   4.112   0.966 -0.6720 -0.0655  0.0443
10998TIP3    H154409   4.172   4.037   0.993 -1.3481  0.6938  0.9030
10998TIP3    H254410   4.219   4.112   0.870 -0.7252 -1.0484  0.0295
10999TIP3   OH254411   3.140   3.063   0.775 -0.1064 -0.1642 -0.5384
10999TIP3    H154412   3.047   3.080   0.792  0.0727 -0.3158  0.6932
10999TIP3    H254413   3.150   3.078   0.681 -1.0146  1.6304 -0.4040
11000TIP3   OH254414   3.369   1.604  11.210 -0.2059 -0.2074 -0.0350
11000TIP3    H154415   3.434   1.609  11.279  1.0660 -0.7772 -1.1410
11000TIP3    H254416   3.378   1.516  11.175 -1.0302 -0.0330 -0.7241
11001TIP3   OH254417   0.953   6.554  11.248 -0.1619  0.0563  0.5223
11001TIP3    H154418   1.028   6.542  11.306  0.7548 -1.5134 -0.9011
11001TIP3    H254419   0.880   6.514  11.294  0.3928 -0.5274  0.9074
11002TIP3   OH254420   6.077   1.237   6.671 -0.1944 -0.4230  0.6414
11002TIP3    H154421   6.003   1.177   6.676 -0.8130  0.1763 -0.5651
11002TIP3    H254422   6.140   1.192   6.615 -1.0167  0.3309 -0.9868
11003TIP3   OH254423   0.095   1.390   0.534  0.0293  0.3366  0.1660
11003TIP3    H154424   0.103   1.295   0.532 -0.4198  0.3009 -1.0901
11003TIP3    H254425   0.185   1.422   0.542  0.2273 -0.1880  0.0683
11004TIP3   OH254426   2.450   3.540   2.030 -0.4953  0.5455 -0.2301
11004TIP3    H154427   2.370   3.547   1.978 -0.2025 -0.6672 -0.8820
11004TIP3    H254428   2.504   3.613   2.000 -0.7558  0.4829 -0.8685
11005TIP3   OH254429   3.642   0.833  13.971 -0.3189  0.2117 -0.3115
11005TIP3    H154430   3.680   0.747  13.987  0.8746  0.9994  1.2710
11005TIP3    H254431   3.669   0.855  13.882  0.5133 -0.4572 -0.2320
11006TIP3   OH254432   4.820   0.177  14.970 -1.0544  0.3519  0.4128
11006TIP3    H154433   4.808   0.137  14.884  1.3901 -0.5613  0.4307
11006TIP3    H254434   4.756   0.133  15.026  0.9539 -3.1919  0.2594
11007TIP3   OH254435   0.465   2.431   6.444 -0.2766 -0.2783  0.3702
11007TIP3    H154436   0.422   2.386   6.517 -1.0145 -0.3076 -0.0694
11007TIP3    H254437   0.444   2.523   6.458  1.4409 -0.0112  1.4075
11008TIP3   OH254438   5.635   6.598   3.291  0.5207 -0.4169 -0.1053
11008TIP3    H154439   5.694   6.523   3.277 -0.9038 -1.9523  1.5560
11008TIP3    H254440   5.548   6.564   3.270 -0.1714  0.7375  0.7598
11009TIP3   OH254441   1.830   4.892   3.889 -0.1911 -0.1303 -0.2781
11009TIP3    H154442   1.795   4.934   3.810 -2.2047  0.8821  1.0476
11009TIP3    H254443   1.917   4.930   3.900 -0.1882  0.2948 -1.5786
11010TIP3   OH254444   6.576   4.432   3.536 -0.2790  0.2096 -0.1400
11010TIP3    H154445   6.523   4.395   3.606  0.0934  1.2484  0.7378
11010TIP3    H254446   6.513   4.460   3.470 -1.0228  2.4109  1.3519
11011TIP3   OH254447   1.786   2.639  16.910  0.6220 -0.2605 -0.6937
11011TIP3    H154448   1.702   2.673  16.941  0.5178  0.4739 -1.7230
11011TIP3    H254449   1.773   2.545  16.901  0.0956 -0.2262 -0.2948
11012TIP3   OH254450   5.916   4.177   1.511 -0.2739  0.4388 -0.0242
11012TIP3    H154451   5.843   4.136   1.558  0.6964 -2.1715 -0.5746
11012TIP3    H254452   5.882   4.191   1.423 -0.1611 -0.7724 -0.2810
11013TIP3   OH254453   2.953   3.781   6.043 -0.3517 -0.4238 -0.7285
11013TIP3    H154454   2.874   3.820   6.081 -0.5906  0.0343 -1.6845
11013TIP3    H254455   2.990   3.730   6.115 -0.3965  1.0041  0.3600
11014TIP3   OH254456   2.076   1.470  11.929 -0.4174  0.2536  0.0221
11014TIP3    H154457   2.055   1.418  11.851  0.7039 -0.2244  0.0064
11014TIP3    H254458   2.007   1.448  11.992 -0.1060 -1.0918 -0.0740
11015TIP3   OH254459   5.418   6.659  15.688  0.0485  0.1151  0.6959
11015TIP3    H154460   5.345   6.718  15.705  0.5674  0.6500  1.1293
11015TIP3    H254461   5.378   6.574  15.672 -0.7393  0.6687 -0.4019
11016TIP3   OH254462   3.214   6.471   1.910 -0.8970 -0.4791  0.3516
11016TIP3    H154463   3.132   6.437   1.946 -0.1641 -1.2536  1.3456
11016TIP3    H254464   3.282   6.429   1.962  0.1033  1.3460  0.6050
11017TIP3   OH254465   0.554   3.704   1.194  0.7701  0.2049  0.2623
11017TIP3    H154466   0.518   3.750   1.118 -0.3291 -0.3743  0.4144
11017TIP3    H254467   0.513   3.745   1.269  1.8283  0.7491  0.5747
11018TIP3   OH254468   6.271   3.125  11.084  0.0042 -0.2467 -0.0888
11018TIP3    H154469   6.205   3.191  11.108  1.2455  1.3809 -0.9719
11018TIP3    H254470   6.255   3.108  10.992  1.1281  0.5716 -0.4525
11019TIP3   OH254471   5.806   1.567   4.601  0.2492  0.2533  0.3061
11019TIP3    H154472   5.840   1.630   4.537  2.6417  0.1920  1.4220
11019TIP3    H254473   5.817   1.482   4.559  1.9240  0.2037  0.7614
11020TIP3   OH254474   0.449   3.916  13.425  0.7625 -0.3042 -0.5060
11020TIP3    H154475   0.466   3.822  13.429  1.6620 -0.1567 -0.5118
11020TIP3    H254476   0.371   3.925  13.370 -0.8520 -1.1860  1.5180
11021TIP3   OH254477   1.201   4.291   2.974  0.4754 -0.3367 -0.0157
11021TIP3    H154478   1.218   4.353   3.045  0.3617 -0.0133 -0.2704
11021TIP3    H254479   1.242   4.209   3.003  0.8238 -0.0782  0.2164
11022TIP3   OH254480   0.537   5.713   1.001  0.1460 -0.9283  0.2908
11022TIP3    H154481   0.533   5.646   0.932 -2.3690  0.0688 -0.6755
11022TIP3    H254482   0.500   5.792   0.959 -3.0425 -0.6752  3.1266
11023TIP3   OH254483   5.328   4.884  16.028 -0.2466  0.0761 -0.1310
11023TIP3    H154484   5.382   4.840  15.963  2.0377  1.7644  0.5094
11023TIP3    H254485   5.324   4.823  16.101 -0.6515 -0.7544 -0.8230
11024TIP3   OH254486   3.482   3.370  12.636 -0.5838  0.5674 -0.4812
11024TIP3    H154487   3.516   3.404  12.554  0.0591 -0.6585 -0.7594
11024TIP3    H254488   3.489   3.443  12.698 -0.5843  1.3412 -1.3812
11025TIP3   OH254489   3.224   3.766   5.547 -0.7686 -0.0009  0.0027
11025TIP3    H154490   3.254   3.804   5.630  0.5679 -2.2250  0.6128
11025TIP3    H254491   3.137   3.733   5.566 -0.6642 -0.0606  0.3904
11026TIP3   OH254492   0.165   0.739  13.751  0.2727 -0.2033 -0.0135
11026TIP3    H154493   0.119   0.656  13.761 -0.5782  0.1931 -0.5258
11026TIP3    H254494   0.258   0.717  13.758  0.1278 -1.3969 -1.5123
11027TIP3   OH254495   0.356   2.448  13.834  0.2535 -0.0020 -0.4817
11027TIP3    H154496   0.396   2.535  13.838  0.4806 -0.1115 -0.3367
11027TIP3    H254497   0.264   2.464  13.818  0.6583  0.2161 -3.0348
11028TIP3   OH254498   4.846   2.700  14.512  0.3892  0.3470 -0.0202
11028TIP3    H154499   4.897   2.775  14.479 -0.6722  2.4955  2.8152
11028TIP3    H254500   4.760   2.712  14.472  0.6032 -0.1884 -0.6492
11029TIP3   OH254501   1.188   1.818  16.817  0.0161  0.2417  0.2476
11029TIP3    H154502   1.170   1.727  16.793 -1.7430  0.1792  1.6482
11029TIP3    H254503   1.126   1.838  16.886  1.2567  2.1169  0.9089
11030TIP3   OH254504   1.621   0.212   0.544  0.4721 -0.0195  0.0749
11030TIP3    H154505   1.603   0.177   0.631 -0.6098  0.3317 -0.0004
11030TIP3    H254506   1.538   0.205   0.497  0.1621  2.6737  0.0675
11031TIP3   OH254507   1.905   3.856   6.925  0.1580  0.4745  0.6500
11031TIP3    H154508   1.965   3.854   6.851 -0.7733  1.2673 -0.1599
11031TIP3    H254509   1.852   3.777   6.916 -1.5814  1.7304 -0.9909
11032TIP3   OH254510   0.973   0.028   0.000 -0.1771 -0.4432  0.0162
11032TIP3    H154511   0.892   0.048   0.045 -0.2756 -0.6951 -0.0457
11032TIP3    H254512   0.946  -0.005  -0.085  0.0121  0.0984 -0.2524
11033TIP3   OH254513   0.315   0.083   2.924  0.6456 -0.1575 -0.4209
11033TIP3    H154514   0.258   0.158   2.904  0.7895  0.1380  0.2521
11033TIP3    H254515   0.255   0.010   2.935  0.2202  0.4648  1.8393
11034TIP3   OH254516   5.233   1.284  12.195  0.0157 -0.3163  0.0985
11034TIP3    H154517   5.230   1.379  12.184 -1.9742 -0.3657 -0.1569
11034TIP3    H254518   5.293   1.254  12.127 -0.3926  0.6515 -0.7131
11035TIP3   OH254519   5.321   1.669   2.773  0.2829 -0.1426 -0.1193
11035TIP3    H154520   5.344   1.613   2.847  0.5625 -0.6754 -0.6084
11035TIP3    H254521   5.230   1.645   2.753  0.7368 -1.1946 -1.0037
11036TIP3   OH254522   5.408   0.581   5.492  0.2073  0.1552  0.2773
11036TIP3    H154523   5.338   0.518   5.503 -0.1915  0.5737  0.1559
11036TIP3    H254524   5.439   0.567   5.403  0.8193 -0.5687  0.5881
11037TIP3   OH254525   3.946   0.924  15.941 -0.4564 -0.0454  0.2274
11037TIP3    H154526   3.872   0.879  15.981 -1.4056  1.1133 -0.1749
11037TIP3    H254527   3.956   1.005  15.991  0.8069 -0.3581  0.5301
11038TIP3   OH254528   3.739   4.981   5.606  0.0391  0.0454  0.0808
11038TIP3    H154529   3.656   4.950   5.641 -0.6369  2.3794  0.6844
11038TIP3    H254530   3.776   5.035   5.676  1.8558 -0.5398 -0.3690
11039TIP3   OH254531   3.154   0.292  15.671 -0.1933 -0.2733  0.0443
11039TIP3    H154532   3.113   0.336  15.745  1.5716  1.2202  0.2089
11039TIP3    H254533   3.082   0.274  15.610 -1.3565  0.4200  1.1716
11040TIP3   OH254534   1.372   5.154  13.266 -0.6412  0.3099  0.2515
11040TIP3    H154535   1.281   5.179  13.251  0.1463  2.5791 -1.2947
11040TIP3    H254536   1.375   5.130  13.358 -2.8962 -0.3999  0.2066
11041TIP3   OH254537   3.852   4.716  15.357 -0.0609 -0.3889 -0.1932
11041TIP3    H154538   3.810   4.631  15.367 -0.7878 -0.0094  0.0734
11041TIP3    H254539   3.889   4.715  15.269  1.1180 -1.4837  0.2911
11042TIP3   OH254540   4.844   6.543  13.129  0.1207  0.3664  0.0376
11042TIP3    H154541   4.877   6.543  13.219  0.6687 -0.7604 -0.1450
11042TIP3    H254542   4.884   6.466  13.089 -1.2955  0.0061 -0.7426
11043TIP3   OH254543   5.638   4.172  15.672 -0.7800  0.1576 -0.0284
11043TIP3    H154544   5.632   4.098  15.612  1.0064  0.0010 -0.0708
11043TIP3    H254545   5.557   4.168  15.723 -1.9935 -0.1406 -1.9038
11044TIP3   OH254546   2.463   5.463   6.273  0.4532 -0.2352 -0.0263
11044TIP3    H154547   2.426   5.374   6.274  1.4365 -0.6475  0.7885
11044TIP3    H254548   2.537   5.457   6.213  0.4860  0.0497 -0.0118
11045TIP3   OH254549   2.486   3.415  12.000 -0.2021  0.7060 -0.8696
11045TIP3    H154550   2.473   3.354  11.927  1.2482 -1.5104  0.5962
11045TIP3    H254551   2.496   3.359  12.077 -0.8994  2.9181  0.9608
11046TIP3   OH254552   2.443   6.253  12.122 -0.7026  0.0262  0.3709
11046TIP3    H154553   2.516   6.314  12.113 -0.9103  0.1750 -0.4090
11046TIP3    H254554   2.446   6.199  12.043  0.5172 -2.1802  1.8216
11047TIP3   OH254555   5.860   1.126   4.756  0.4181 -0.0777  0.6596
11047TIP3    H154556   5.847   1.207   4.806  1.3338  0.2133  0.4618
11047TIP3    H254557   5.896   1.156   4.673 -0.3347 -0.6196  0.1351
11048TIP3   OH254558   2.521   2.946  12.334 -0.7979 -0.1899  0.0344
11048TIP3    H154559   2.446   2.997  12.301 -0.0374  1.9629  1.4350
11048TIP3    H254560   2.593   2.969  12.276 -0.8273 -1.0163 -0.3418
11049TIP3   OH254561   2.039   5.078  14.743  0.6026 -0.0406  0.4224
11049TIP3    H154562   1.977   5.079  14.817 -1.7452 -2.8902 -1.2901
11049TIP3    H254563   2.035   4.988  14.710  4.5142  0.0865 -0.8708
11050TIP3   OH254564   5.823   6.432   3.234 -0.4380 -0.5985  0.0614
11050TIP3    H154565   5.790   6.364   3.175  0.8817 -0.1700 -1.2227
11050TIP3    H254566   5.905   6.397   3.269 -0.9960 -0.6736  1.3649
11051TIP3   OH254567   5.205   4.022   0.787 -0.3784 -0.0323 -0.2868
11051TIP3    H154568   5.154   4.078   0.729  1.0492  2.6381  0.8270
11051TIP3    H254569   5.150   4.012   0.865  0.1453  1.7521  0.3805
11052TIP3   OH254570   3.664   6.628   1.672  0.8638 -0.6448  0.4164
11052TIP3    H154571   3.643   6.644   1.764  0.6063  1.2329  0.0727
11052TIP3    H254572   3.582   6.596   1.634  0.7108 -0.5589  0.6675
11053TIP3   OH254573   5.659   0.015  16.329 -0.3087  0.3562  0.1870
11053TIP3    H154574   5.654  -0.017  16.419 -0.6596  0.4242  0.1918
11053TIP3    H254575   5.571   0.001  16.293  0.5373 -2.3905 -1.0949
11054TIP3   OH254576   6.525   1.224   4.989 -0.9829 -0.8103 -0.0017
11054TIP3    H154577   6.559   1.230   4.900  1.8513  1.6652  1.0864
11054TIP3    H254578   6.530   1.131   5.010  2.6318 -0.9931 -0.9822
11055TIP3   OH254579   1.486   5.183  13.987 -0.3249 -0.1638  0.0266
11055TIP3    H154580   1.491   5.091  14.013 -0.9841 -0.2017  0.0469
11055TIP3    H254581   1.529   5.231  14.059  1.0652 -0.5320 -0.5352
11056TIP3   OH254582   3.461   2.238  17.084 -0.4507  0.1310 -0.2465
11056TIP3    H154583   3.435   2.146  17.075  1.2950 -0.4086 -0.3127
11056TIP3    H254584   3.492   2.244  17.175 -0.6656  0.6844 -0.2105
11057TIP3   OH254585   2.240   4.206   2.590 -0.7830  0.5242 -0.5102
11057TIP3    H154586   2.289   4.142   2.538  0.5478  1.3424 -0.3116
11057TIP3    H254587   2.158   4.162   2.612 -0.0176 -1.0076 -0.6183
11058TIP3   OH254588   0.529   0.648  14.501  0.3907 -0.4403 -0.1682
11058TIP3    H154589   0.552   0.654  14.594  0.3745 -0.1785 -0.1778
11058TIP3    H254590   0.614   0.640  14.456  0.4951  0.6671 -0.2130
11059TIP3   OH254591   0.936   3.338  14.649 -0.3889  0.4804 -0.4745
11059TIP3    H154592   0.992   3.413  14.630 -0.0332  0.1368 -0.8164
11059TIP3    H254593   0.994   3.262  14.638 -0.6127  0.1785  0.3543
11060TIP3   OH254594   3.379   2.454  15.988  0.4989  0.1442 -0.0941
11060TIP3    H154595   3.310   2.508  15.950  2.7334  2.6544 -0.8636
11060TIP3    H254596   3.357   2.450  16.082 -0.5669  1.0102 -0.2918
11061TIP3   OH254597   6.435   1.139   3.858 -0.7618  0.1694 -0.4717
11061TIP3    H154598   6.518   1.184   3.877  0.0527 -0.7494 -1.6970
11061TIP3    H254599   6.444   1.109   3.768 -1.3987 -2.1703  0.1764
11062TIP3   OH254600   3.377   6.599  14.322  0.0151 -0.2537  0.3138
11062TIP3    H154601   3.400   6.606  14.415  0.6252  0.5141  0.1133
11062TIP3    H254602   3.415   6.515  14.295  0.0195 -0.3806  0.7024
11063TIP3   OH254603   6.095   2.096   6.295  0.2807 -1.0040  0.0674
11063TIP3    H154604   6.168   2.040   6.268 -0.2228 -0.7167 -2.0771
11063TIP3    H254605   6.017   2.045   6.277 -0.1171 -0.3623 -0.0707
11064TIP3   OH254606   4.730   4.814   1.379  0.1039  0.3714  0.2179
11064TIP3    H154607   4.762   4.859   1.301 -0.1579  0.4435  0.1514
11064TIP3    H254608   4.799   4.827   1.444  0.5662 -0.1434 -0.1609
11065TIP3   OH254609   0.914   3.307  14.092 -0.3078 -0.0152  0.1528
11065TIP3    H154610   0.823   3.336  14.097 -0.0686  0.6871  0.6650
11065TIP3    H254611   0.915   3.242  14.022 -1.7535 -2.0826  1.9108
11066TIP3   OH254612   1.302   1.310  16.012  0.4062  0.4331  0.3812
11066TIP3    H154613   1.208   1.312  15.996  0.3180  0.9826  0.9484
11066TIP3    H254614   1.310   1.309  16.107  0.9823  1.6199  0.3647
11067TIP3   OH254615   5.666   5.267   4.460  0.3683  0.0524  0.6223
11067TIP3    H154616   5.652   5.266   4.365 -2.6121  0.7606  0.9703
11067TIP3    H254617   5.639   5.181   4.489 -0.8899  0.5775  1.0522
11068TIP3   OH254618   4.212   0.646   5.483 -0.3049  0.1856  0.0600
11068TIP3    H154619   4.226   0.740   5.492  0.8172  0.0621 -0.1991
11068TIP3    H254620   4.179   0.618   5.568 -1.0399  0.8764  0.0048
11069TIP3   OH254621   2.889   2.942   1.062 -0.3725 -0.3726  0.2660
11069TIP3    H154622   2.969   2.895   1.039 -1.1762 -1.0073 -1.3968
11069TIP3    H254623   2.828   2.873   1.090 -0.9157 -0.1312 -0.2874
11070TIP3   OH254624   2.146   0.688  16.915  0.0613 -0.0120 -0.3257
11070TIP3    H154625   2.211   0.629  16.952  0.9462  0.3560 -1.2541
11070TIP3    H254626   2.100   0.634  16.850  1.0280  0.3511 -1.3445
11071TIP3   OH254627   2.843   5.792   2.757 -0.2246  0.2269  0.1916
11071TIP3    H154628   2.772   5.813   2.696  0.0631  0.9118  0.0783
11071TIP3    H254629   2.922   5.823   2.712 -0.2858  3.9270  2.2641
11072TIP3   OH254630   1.894   0.345   2.042  0.2856 -0.0486  0.4532
11072TIP3    H154631   1.914   0.425   2.091 -0.5015 -0.5855  1.6792
11072TIP3    H254632   1.854   0.287   2.106  1.4202 -1.6859 -0.2665
11073TIP3   OH254633   4.005   2.566  12.621  0.1087  0.2188 -0.0804
11073TIP3    H154634   4.079   2.543  12.566 -0.0956  0.5981 -0.5212
11073TIP3    H254635   3.951   2.623  12.566 -1.4664 -1.5188 -0.4206
11074TIP3   OH254636   4.115   5.555  12.684  0.3424 -0.1724  0.2191
11074TIP3    H154637   4.153   5.513  12.606  1.1643  0.8215  0.0589
11074TIP3    H254638   4.190   5.575  12.740 -0.2214 -0.6395  1.1616
11075TIP3   OH254639   0.146   6.348  10.619  1.3687  0.4962 -0.1139
11075TIP3    H154640   0.240   6.331  10.616  1.0739 -1.8339  1.4298
11075TIP3    H254641   0.108   6.269  10.658 -0.7639  3.0256  3.5949
11076TIP3   OH254642   3.328   5.706   0.193 -0.2358  0.8995 -0.0573
11076TIP3    H154643   3.383   5.692   0.116  0.8935 -0.3787  0.9312
11076TIP3    H254644   3.336   5.800   0.211 -1.1789  1.3785 -1.9364
11077TIP3   OH254645   2.636   4.804  17.144  0.0465 -0.7327 -0.2368
11077TIP3    H154646   2.645   4.726  17.090 -1.1376 -1.6906  0.8746
11077TIP3    H254647   2.622   4.770  17.233  1.5709  0.7802  0.6404
11078TIP3   OH254648   3.827   2.283   3.350  0.4658 -0.0474 -0.3444
11078TIP3    H154649   3.776   2.209   3.382  1.2286 -0.9229 -1.0965
11078TIP3    H254650   3.800   2.357   3.404  0.5030 -1.1158  1.1742
11079TIP3   OH254651   4.662   1.783   2.860 -0.3409  0.3334 -0.3987
11079TIP3    H154652   4.656   1.858   2.920 -2.4869  1.1681 -1.5469
11079TIP3    H254653   4.613   1.713   2.904 -1.6220  0.8396 -0.9643
11080TIP3   OH254654   5.065   3.701  12.598  0.5207  0.1536  0.1642
11080TIP3    H154655   5.140   3.653  12.632  0.3333 -2.4584 -2.6571
11080TIP3    H254656   5.102   3.761  12.534  0.3427 -0.3796 -0.4545
11081TIP3   OH254657   3.719   3.094   1.726  0.2982 -0.2829  0.2277
11081TIP3    H154658   3.776   3.017   1.716  0.1629 -0.4678  0.8731
11081TIP3    H254659   3.667   3.095   1.645  1.5307  0.1609 -0.5961
11082TIP3   OH254660   5.530   6.177   2.858 -0.2905  0.2334 -0.7309
11082TIP3    H154661   5.435   6.172   2.846 -0.3015  0.2365 -0.6480
11082TIP3    H254662   5.550   6.270   2.848 -0.1842  0.1233 -1.5408
11083TIP3   OH254663   4.402   2.857  13.212  0.2131  0.1574  0.0750
11083TIP3    H154664   4.445   2.828  13.131 -0.7373 -0.7239 -0.1461
11083TIP3    H254665   4.361   2.940  13.189 -0.1983 -0.1724 -0.4119
11084TIP3   OH254666   2.232   5.531  15.338  0.1718  0.1562 -0.2654
11084TIP3    H154667   2.197   5.594  15.400  2.0282  1.5795 -0.5559
11084TIP3    H254668   2.250   5.453  15.390 -1.0187  0.2708  0.3489
11085TIP3   OH254669   2.275   0.153  15.574 -0.0761 -0.3244 -0.5109
11085TIP3    H154670   2.237   0.206  15.504  0.4587  0.2683 -0.3628
11085TIP3    H254671   2.273   0.210  15.650 -0.7117 -0.9896 -0.0166
11086TIP3   OH254672   3.507   2.952   5.624  0.7150  0.2231  0.0580
11086TIP3    H154673   3.590   2.932   5.582  1.3145 -1.0402  1.7176
11086TIP3    H254674   3.529   2.966   5.716 -1.0531 -1.8480  0.9032
11087TIP3   OH254675   0.750   0.691   3.582 -0.0787 -0.3307 -0.3445
11087TIP3    H154676   0.804   0.621   3.543 -0.5308 -0.6829 -0.3440
11087TIP3    H254677   0.690   0.716   3.512  0.5914  0.6081 -0.6010
11088TIP3   OH254678   4.565   1.730  14.390  0.3646 -0.1814  0.0234
11088TIP3    H154679   4.602   1.810  14.427  1.6374 -0.4358 -0.6439
11088TIP3    H254680   4.496   1.705  14.451  1.1527  0.4346  1.2019
11089TIP3   OH254681   4.173   4.116   0.687  0.3294 -0.2091  0.0212
11089TIP3    H154682   4.085   4.151   0.678  0.1676 -0.6612 -0.1557
11089TIP3    H254683   4.164   4.021   0.673  1.1556 -0.0330 -2.2824
11090TIP3   OH254684   0.571   4.624   4.670 -0.1955  0.1512 -0.4840
11090TIP3    H154685   0.529   4.542   4.644  0.5874 -0.0516 -1.1486
11090TIP3    H254686   0.595   4.666   4.587  0.7263  0.3474 -0.1308
11091TIP3   OH254687   5.374   5.131   6.341 -0.5217 -0.5708 -0.0643
11091TIP3    H154688   5.456   5.174   6.319 -1.5521  1.2209 -0.6168
11091TIP3    H254689   5.313   5.203   6.358 -2.1939 -1.8132 -0.5083
11092TIP3   OH254690   5.060   4.842   2.954  0.4919 -0.3868  0.4465
11092TIP3    H154691   4.998   4.859   3.025  0.8683 -0.5664  0.8210
11092TIP3    H254692   5.061   4.746   2.946  0.8792 -0.3930  0.5786
11093TIP3   OH254693   1.049   3.429   0.629 -0.5356 -0.2656  0.7350
11093TIP3    H154694   1.014   3.503   0.679 -0.6193 -0.8549  1.5748
11093TIP3    H254695   1.072   3.466   0.544 -3.2503  0.1782  0.0851
11094TIP3   OH254696   6.209   1.213   6.388 -0.0033 -0.0110  0.2169
11094TIP3    H154697   6.158   1.137   6.360  0.4281 -0.1298 -0.2552
11094TIP3    H254698   6.277   1.177   6.445 -0.2764  0.1143  0.6243
11095TIP3   OH254699   4.642   4.508  16.318  0.8222  0.8748  0.1104
11095TIP3    H154700   4.721   4.561  16.319  1.2100  0.3700 -1.1766
11095TIP3    H254701   4.664   4.429  16.366  0.0334  2.0886  2.6292
11096TIP3   OH254702   5.500   5.848   5.314  0.4395  0.4254  0.2011
11096TIP3    H154703   5.446   5.922   5.286 -0.6344 -0.7464 -0.9938
11096TIP3    H254704   5.533   5.811   5.232 -0.5825 -1.5060  0.6007
11097TIP3   OH254705   2.202   3.929  14.357  0.1106 -0.2819  0.4243
11097TIP3    H154706   2.284   3.978  14.363 -0.1159 -0.0607  2.2532
11097TIP3    H254707   2.226   3.847  14.314  1.1740  0.0112  0.4264
11098TIP3   OH254708   3.621   3.802   1.033 -0.1441 -0.2434 -0.2457
11098TIP3    H154709   3.539   3.768   0.997  0.7378 -0.6937 -1.9136
11098TIP3    H254710   3.616   3.896   1.019  0.1524 -0.4061 -1.5059
11099TIP3   OH254711   0.336   3.177  17.232  0.4446  0.5487 -0.4498
11099TIP3    H154712   0.301   3.257  17.192  0.7652  0.0880 -1.7064
11099TIP3    H254713   0.403   3.147  17.170  0.7465 -0.3644  0.3008
11100TIP3   OH254714   4.847   5.357   6.055  0.9015 -0.2218 -0.4372
11100TIP3    H154715   4.869   5.319   6.140  0.6269  0.2665 -0.1488
11100TIP3    H254716   4.912   5.319   5.995  2.6384  1.2957  0.4079
11101TIP3   OH254717   3.104   3.674  17.186  0.4037  0.1299  0.4023
11101TIP3    H154718   3.057   3.617  17.245  1.1918 -1.4213 -0.3996
11101TIP3    H254719   3.056   3.757  17.187  0.2349  0.0531  2.9218
11102TIP3   OH254720   6.297   4.125   3.122  0.6894 -0.2984 -0.1139
11102TIP3    H154721   6.379   4.108   3.168  1.5246 -1.0121 -1.7827
11102TIP3    H254722   6.319   4.193   3.059 -0.8021  1.7439  1.4282
11103TIP3   OH254723   3.224   2.288  12.095 -0.1297  0.0907 -0.0917
11103TIP3    H154724   3.317   2.267  12.099 -0.1590  0.0430  0.4380
11103TIP3    H254725   3.201   2.278  12.003  0.7670  1.8176 -0.5384
11104TIP3   OH254726   0.906   0.649   1.737  0.1461  0.4755  0.0893
11104TIP3    H154727   0.888   0.645   1.643 -0.2176 -0.3142  0.1818
11104TIP3    H254728   0.954   0.568   1.756 -3.5118 -1.6552  1.3029
11105TIP3   OH254729   3.888   4.940   1.981  0.1460 -0.5683 -0.0623
11105TIP3    H154730   3.844   4.989   2.049 -1.4093  0.1037 -1.4855
11105TIP3    H254731   3.911   4.856   2.021  0.6215  0.3629  1.6780
11106TIP3   OH254732   5.543   5.303   0.901 -0.0115  0.4505 -0.0674
11106TIP3    H154733   5.600   5.344   0.837  2.1025 -3.7482 -1.2593
11106TIP3    H254734   5.595   5.300   0.981 -0.1546  0.1817  0.0179
11107TIP3   OH254735   6.714   5.882  10.884  0.1997 -0.0230 -0.1387
11107TIP3    H154736   6.621   5.857  10.884  0.0206  0.6014 -0.1634
11107TIP3    H254737   6.713   5.975  10.859  0.4451  1.3834  4.2631
11108TIP3   OH254738   3.333   4.161   4.878 -0.0901  0.2033  0.0168
11108TIP3    H154739   3.260   4.196   4.930  1.1963 -0.2078  2.2444
11108TIP3    H254740   3.411   4.178   4.932  0.8872 -3.9134  0.2573
11109TIP3   OH254741   5.086   3.462   1.330  0.3278  0.0736 -0.5459
11109TIP3    H154742   5.080   3.415   1.247  0.0087 -3.0139  1.0848
11109TIP3    H254743   5.091   3.393   1.397 -1.2217  2.3579  2.1624
11110TIP3   OH254744   4.499   2.484   3.355  0.6219 -0.5654  1.1436
11110TIP3    H154745   4.425   2.428   3.377 -0.1768  0.2351  0.5502
11110TIP3    H254746   4.535   2.446   3.275  0.3600 -0.4952  0.9931
11111TIP3   OH254747   1.109   5.127  17.254 -0.6151  0.2998  0.1138
11111TIP3    H154748   1.135   5.217  17.273  1.6699 -0.4712  0.9925
11111TIP3    H254749   1.179   5.094  17.198 -0.1155 -1.5973  1.7331
11112TIP3   OH254750   4.020   4.956   0.254 -0.2076  0.3766  0.1388
11112TIP3    H154751   4.000   5.037   0.301 -1.1973  0.8602 -1.0872
11112TIP3    H254752   4.113   4.940   0.273  0.1881  2.1671 -0.1635
11113TIP3   OH254753   6.349   3.789   3.074  0.2660  0.0535 -0.3401
11113TIP3    H154754   6.373   3.779   3.166 -2.1066  0.4766  0.3902
11113TIP3    H254755   6.367   3.882   3.055  0.8678 -0.0622 -0.3626
11114TIP3   OH254756   6.652   2.702   2.677 -0.5114 -0.2681  0.1414
11114TIP3    H154757   6.651   2.773   2.742 -3.1037 -0.1762  0.1100
11114TIP3    H254758   6.566   2.706   2.636 -0.4586 -2.9345 -0.4200
11115TIP3   OH254759   4.510   2.524   1.659 -0.0830  0.7915 -0.0836
11115TIP3    H154760   4.448   2.584   1.699  1.1060  1.9936  0.0348
11115TIP3    H254761   4.461   2.443   1.646 -0.5623  0.3320  3.6939
11116TIP3   OH254762   3.791   5.944  11.511 -0.1969 -0.4677 -0.3354
11116TIP3    H154763   3.711   5.918  11.556  1.1057 -0.1499  2.3760
11116TIP3    H254764   3.824   6.019  11.562  1.1986  0.2022 -2.1137
11117TIP3   OH254765   1.350   1.466  16.607 -0.1422  0.4577  0.2307
11117TIP3    H154766   1.416   1.427  16.664  0.7131 -0.3961 -1.2947
11117TIP3    H254767   1.288   1.396  16.590  0.4771  0.2177 -1.1488
11118TIP3   OH254768   4.983   5.424   3.328  0.3811  0.1187 -0.1131
11118TIP3    H154769   4.946   5.374   3.401 -2.0127  1.8106 -0.0509
11118TIP3    H254770   5.047   5.483   3.370 -2.1256  2.2378  1.0217
11119TIP3   OH254771   0.772   3.898   3.297 -0.0448  0.4103 -0.7105
11119TIP3    H154772   0.739   3.950   3.370  0.2583  1.1967 -1.1154
11119TIP3    H254773   0.721   3.926   3.221  1.4427  1.5960 -1.3282
11120TIP3   OH254774   3.435   1.951  17.142  0.5057  0.6458  0.4019
11120TIP3    H154775   3.490   1.910  17.209 -1.0469 -1.5640  0.4381
11120TIP3    H254776   3.437   1.888  17.069 -0.7137  1.2802 -0.2046
11121TIP3   OH254777   0.790   6.136   2.165 -0.2303 -0.3056 -0.0511
11121TIP3    H154778   0.764   6.064   2.108 -1.9594  0.8938 -0.8510
11121TIP3    H254779   0.758   6.111   2.252 -1.5797 -0.1457 -0.4871
11122TIP3   OH254780   3.158   1.562  12.993 -0.4643 -0.3167  0.1636
11122TIP3    H154781   3.159   1.477  12.950 -0.2883 -0.3821  0.2945
11122TIP3    H254782   3.104   1.549  13.071  2.0282 -1.1485  1.8548
11123TIP3   OH254783   4.396   0.728   5.063 -0.0027 -1.2480 -0.2312
11123TIP3    H154784   4.466   0.696   5.119  0.9375 -0.1185 -0.7276
11123TIP3    H254785   4.387   0.820   5.086 -0.1045 -0.9488 -1.4133
11124TIP3   OH254786   3.242   1.543  13.774  0.1344 -0.3108 -0.0848
11124TIP3    H154787   3.263   1.519  13.864  0.1237 -1.1377 -0.3022
11124TIP3    H254788   3.155   1.506  13.759  0.1561 -0.2179 -0.4533
11125TIP3   OH254789   2.130   0.428   1.565  0.2131  0.3143 -0.3003
11125TIP3    H154790   2.144   0.509   1.516  1.5883  0.1614 -0.1882
11125TIP3    H254791   2.179   0.441   1.647 -0.4500 -0.2111  0.1951
11126TIP3   OH254792   1.068   6.435   4.029  0.4924 -0.2807  0.0328
11126TIP3    H154793   1.100   6.521   4.058  0.0223 -0.7498  2.1543
11126TIP3    H254794   0.977   6.433   4.059  0.6316 -1.6626  0.4239
11127TIP3   OH254795   1.703   4.985   3.659 -0.2974  0.0323  0.3400
11127TIP3    H154796   1.678   5.077   3.646 -1.4262 -0.2814  0.1702
11127TIP3    H254797   1.763   4.966   3.587  1.5276  1.1738  1.4857
11128TIP3   OH254798   3.205   2.582   4.220  0.3931  0.0054 -0.1081
11128TIP3    H154799   3.200   2.531   4.301 -0.0758  1.1784  0.6323
11128TIP3    H254800   3.294   2.617   4.218  0.3616  0.0944 -0.0076
11129TIP3   OH254801   2.689   1.577   1.940 -0.0418 -0.3040  0.0306
11129TIP3    H154802   2.742   1.518   1.993  1.1627  1.2088  0.5985
11129TIP3    H254803   2.648   1.636   2.004 -1.8696 -0.9830 -0.4601
11130TIP3   OH254804   3.278   5.535   4.746  0.0239  0.0851  0.1742
11130TIP3    H154805   3.353   5.479   4.766  0.0008 -0.0850 -0.2146
11130TIP3    H254806   3.202   5.481   4.766 -0.0086 -0.3536 -1.0647
11131TIP3   OH254807   5.399   2.991  13.852  0.3030  0.2439 -0.2428
11131TIP3    H154808   5.322   2.938  13.873  0.4005  0.5837  1.0654
11131TIP3    H254809   5.416   3.042  13.932  1.6122  0.5088 -0.6631
11132TIP3   OH254810   4.196   4.223   5.539 -0.5123 -0.3076  0.1438
11132TIP3    H154811   4.195   4.295   5.603  3.1977  1.8492 -1.8634
11132TIP3    H254812   4.252   4.157   5.578  0.6076  0.3971 -0.2227
11133TIP3   OH254813   3.618   0.349  13.652  0.1542  0.2978 -0.4462
11133TIP3    H154814   3.635   0.314  13.739 -2.2047  1.0447  0.3873
11133TIP3    H254815   3.629   0.274  13.593  0.4657 -0.5441  0.6531
11134TIP3   OH254816   6.001   4.759  16.211 -0.3413 -0.1627 -0.1096
11134TIP3    H154817   6.037   4.792  16.294  0.6069 -1.0638 -0.1514
11134TIP3    H254818   6.077   4.741  16.157 -0.8432 -2.0301 -0.2339
11135TIP3   OH254819   5.566   2.441   5.929  0.1458  0.3261 -0.4635
11135TIP3    H154820   5.637   2.448   5.994  0.1245 -0.5115 -0.3325
11135TIP3    H254821   5.587   2.361   5.880 -0.6599  0.1194 -0.4791
11136TIP3   OH254822   5.753   5.716  17.212  0.1257  0.3419 -0.2365
11136TIP3    H154823   5.787   5.688  17.127  2.8213  0.9480  0.5479
11136TIP3    H254824   5.740   5.811  17.204 -1.2930  0.1583 -0.4484
11137TIP3   OH254825   3.900   5.752  14.982  0.0791  0.2473  0.4846
11137TIP3    H154826   3.818   5.753  14.933 -0.1327  0.6000  0.8374
11137TIP3    H254827   3.873   5.745  15.074  0.4523  0.0796  0.5858
11138TIP3   OH254828   6.620   4.169   4.688  0.1970 -0.4361  0.8592
11138TIP3    H154829   6.716   4.160   4.692  0.4581 -0.6773 -2.6059
11138TIP3    H254830   6.587   4.092   4.735  1.8194 -1.7857 -0.0721
11139TIP3   OH254831   2.245   2.431  12.577 -0.9304 -0.5831  0.0547
11139TIP3    H154832   2.278   2.483  12.503 -0.6573 -2.7288 -1.4389
11139TIP3    H254833   2.323   2.388  12.612 -1.6244 -3.4415 -1.6521
11140TIP3   OH254834   2.703   4.935   4.791 -0.0044 -0.3660 -0.6317
11140TIP3    H154835   2.774   4.900   4.737 -0.8836  0.7208 -2.6060
11140TIP3    H254836   2.642   4.974   4.728 -0.5502  2.0071  1.2094
11141TIP3   OH254837   4.312   3.475   0.154  0.3141 -0.1365 -0.2307
11141TIP3    H154838   4.394   3.513   0.124  0.0754  0.6995  0.1626
11141TIP3    H254839   4.246   3.541   0.134  0.1456  0.4837  2.1242
11142TIP3   OH254840   0.611   3.310  13.153  0.4651 -0.6251  0.1084
11142TIP3    H154841   0.558   3.233  13.130 -0.7637  0.8378 -2.3238
11142TIP3    H254842   0.559   3.356  13.218 -0.0387 -0.5351 -0.3508
11143TIP3   OH254843   4.024   4.982  14.734 -0.1796 -0.4210 -1.0928
11143TIP3    H154844   3.970   5.057  14.759  0.9217  0.4115 -1.0991
11143TIP3    H254845   4.091   4.978  14.803  1.3456  0.2792 -2.4662
11144TIP3   OH254846   4.436   3.396   2.185 -0.1748 -0.1614 -0.1186
11144TIP3    H154847   4.506   3.459   2.167 -0.0232  0.2869  1.8073
11144TIP3    H254848   4.482   3.320   2.222 -0.6454  0.0772  1.0191
11145TIP3   OH254849   2.771   6.328   0.966  1.1087 -0.9620  0.2377
11145TIP3    H154850   2.763   6.290   1.053 -0.1861 -0.9403  0.1411
11145TIP3    H254851   2.821   6.408   0.979  2.0714 -1.6183  0.7505
11146TIP3   OH254852   4.633   1.806   3.981  0.4578  0.0482 -0.4862
11146TIP3    H154853   4.655   1.895   3.953  0.9205  0.1264  0.0934
11146TIP3    H254854   4.537   1.806   3.988  0.5618  1.4257  2.3591
11147TIP3   OH254855   6.447   0.442  13.227 -0.1207  0.1287  0.2028
11147TIP3    H154856   6.537   0.409  13.233 -0.4259 -0.8308 -0.2659
11147TIP3    H254857   6.420   0.420  13.138 -0.7719  0.5670  0.2879
11148TIP3   OH254858   0.870   3.855   0.627  0.4186 -0.2322  0.1379
11148TIP3    H154859   0.878   3.798   0.703 -1.2606 -0.1243  0.4430
11148TIP3    H254860   0.788   3.827   0.585 -0.1587  1.5625 -0.0116
11149TIP3   OH254861   1.807   6.102  13.699 -0.1574  0.8013 -0.3790
11149TIP3    H154862   1.875   6.082  13.635  1.9557 -0.9275  2.1993
11149TIP3    H254863   1.799   6.198  13.697  1.1316  0.9105 -1.9344
11150TIP3   OH254864   3.791   3.283  16.441  0.3303 -0.5016 -0.4313
11150TIP3    H154865   3.697   3.272  16.459  0.1945  0.4847 -0.5174
11150TIP3    H254866   3.794   3.334  16.360  0.9339  0.6940  0.3302
11151TIP3   OH254867   4.479   6.271   2.197 -0.1405  0.1781 -0.2711
11151TIP3    H154868   4.526   6.189   2.213 -1.7403 -0.5680  0.8454
11151TIP3    H254869   4.503   6.327   2.271 -1.2328 -0.3469  0.5190
11152TIP3   OH254870   2.980   1.770   0.446  0.1691  0.2183  0.0229
11152TIP3    H154871   3.025   1.772   0.530 -2.7089 -1.1137  1.7413
11152TIP3    H254872   2.973   1.862   0.420  0.8899  0.6666  1.3418
11153TIP3   OH254873   1.172   5.692  14.535 -0.2895 -0.7884 -0.8399
11153TIP3    H154874   1.175   5.776  14.489  0.5797 -1.2758 -1.7160
11153TIP3    H254875   1.206   5.629  14.471  1.1929 -1.4588  0.5422
11154TIP3   OH254876   4.692   4.627  16.036 -0.0070  0.3163 -0.0846
11154TIP3    H154877   4.721   4.543  16.001 -0.1606  0.5891 -0.8863
11154TIP3    H254878   4.657   4.607  16.123  0.6606 -0.3257  0.0403
11155TIP3   OH254879   1.892   0.470   5.399  0.6587  0.2029 -0.4584
11155TIP3    H154880   1.970   0.523   5.417  0.7170 -0.1808  0.4761
11155TIP3    H254881   1.877   0.420   5.479 -1.3777  1.3269 -0.0464
11156TIP3   OH254882   0.088   3.360  15.049  0.0487 -0.2291  0.3613
11156TIP3    H154883   0.056   3.442  15.012  1.5510  0.5304  0.6634
11156TIP3    H254884   0.072   3.295  14.981  0.4546  0.6604 -0.6052
11157TIP3   OH254885   3.247   1.162  15.430  0.0808 -0.3352 -0.4308
11157TIP3    H154886   3.329   1.139  15.386 -0.7748 -2.8817 -0.8615
11157TIP3    H254887   3.179   1.123  15.376 -1.4085  1.1594  0.2822
11158TIP3   OH254888   0.411   4.041  16.070 -0.4361 -0.4504  0.5728
11158TIP3    H154889   0.384   4.048  15.978  0.6008  1.2893  0.3439
11158TIP3    H254890   0.476   3.972  16.071 -0.4553 -0.4810 -0.0104
11159TIP3   OH254891   4.584   1.740   4.369  0.1887  0.1998  0.1355
11159TIP3    H154892   4.515   1.691   4.323 -1.4438  1.9350  0.6356
11159TIP3    H254893   4.602   1.815   4.313  2.1933 -0.5409 -0.2962
11160TIP3   OH254894   6.644   2.458  10.435  0.4667 -0.2354 -0.5599
11160TIP3    H154895   6.564   2.451  10.382  0.8656  0.3263 -1.2519
11160TIP3    H254896   6.646   2.550  10.464  0.2921 -0.5185  0.3762
11161TIP3   OH254897   2.404   0.184  16.585 -0.1306  0.0339 -0.3045
11161TIP3    H154898   2.335   0.140  16.536  0.6145 -0.5605 -0.8319
11161TIP3    H254899   2.485   0.140  16.559  0.4452  0.6599  0.3701
11162TIP3   OH254900   4.512   2.914   3.135  0.1117 -0.7637 -0.4003
11162TIP3    H154901   4.449   2.938   3.203  0.0965 -2.3030  0.1715
11162TIP3    H254902   4.578   2.861   3.181 -0.0532 -2.0893 -1.6033
11163TIP3   OH254903   2.237   2.969   4.194 -0.2544 -0.8575  0.0833
11163TIP3    H154904   2.212   2.902   4.130  0.8177 -0.3998 -0.8465
11163TIP3    H254905   2.210   3.052   4.155  2.5580 -0.3228 -1.0022
11164TIP3   OH254906   4.774   6.301  16.013 -0.4204 -0.2064 -0.1528
11164TIP3    H154907   4.854   6.345  16.041 -0.4076 -0.7009  0.6011
11164TIP3    H254908   4.787   6.210  16.038 -0.8904 -0.4403 -0.7498
11165TIP3   OH254909   5.864   3.488   2.555 -0.3525 -0.3080  0.4193
11165TIP3    H154910   5.806   3.560   2.579  1.3274  1.5323 -0.7591
11165TIP3    H254911   5.929   3.485   2.625  0.0510 -0.1282  0.0546
11166TIP3   OH254912   3.785   4.693   5.880 -0.4773 -0.3766 -0.1372
11166TIP3    H154913   3.790   4.785   5.855 -1.1415 -0.2208  0.2788
11166TIP3    H254914   3.798   4.693   5.975  1.9846 -0.9578 -0.4197
11167TIP3   OH254915   4.251   4.562   2.535  0.2406 -0.5643 -0.2341
11167TIP3    H154916   4.333   4.600   2.568 -0.0221 -0.4996  0.3436
11167TIP3    H254917   4.238   4.484   2.588 -0.4363 -0.2016  0.1431
11168TIP3   OH254918   2.368   1.343   0.873  0.0061  0.8056 -0.5889
11168TIP3    H154919   2.382   1.322   0.965  0.2907 -1.0892 -1.0271
11168TIP3    H254920   2.274   1.359   0.866 -0.0849  0.5217 -0.0372
11169TIP3   OH254921   0.311   3.132  15.309 -0.0728  0.0531 -0.2810
11169TIP3    H154922   0.324   3.215  15.354  1.1384 -0.3730  0.1881
11169TIP3    H254923   0.217   3.113  15.320 -0.1165  0.7451  0.6775
11170TIP3   OH254924   1.475   6.616   3.274 -0.7514  0.0843 -0.0635
11170TIP3    H154925   1.495   6.633   3.366  0.9192  1.3452 -0.6120
11170TIP3    H254926   1.379   6.616   3.270 -0.8537 -0.1044  1.6876
11171TIP3   OH254927   4.504   6.414  16.789 -0.1664  0.2193  0.4793
11171TIP3    H154928   4.465   6.346  16.733 -1.5322  0.7141  0.8007
11171TIP3    H254929   4.586   6.437  16.744 -1.0996  0.4226 -1.2167
11172TIP3   OH254930   0.146   6.099  10.749  0.0965 -0.1703 -0.1252
11172TIP3    H154931   0.154   6.009  10.718 -1.5161 -0.5439  0.3983
11172TIP3    H254932   0.224   6.114  10.802  0.3242 -1.3070 -0.1207
11173TIP3   OH254933   0.923   0.908   0.483 -1.0527 -0.0757  0.1971
11173TIP3    H154934   0.951   0.961   0.408 -0.8981 -0.1485  0.2038
11173TIP3    H254935   0.968   0.948   0.558 -1.3635  0.1222  0.2816
11174TIP3   OH254936   3.696   6.734  15.219  0.0786 -0.0107 -0.6061
11174TIP3    H154937   3.661   6.650  15.251  0.0413 -0.9844 -3.0211
11174TIP3    H254938   3.755   6.763  15.289  0.1778 -2.1014  0.2554
11175TIP3   OH254939   3.570   0.328  11.380 -0.2713 -0.0696  0.6944
11175TIP3    H154940   3.627   0.252  11.387  0.4450  0.4138  0.2036
11175TIP3    H254941   3.519   0.313  11.301  0.8376  0.5821 -0.1762
11176TIP3   OH254942   0.306   0.510   5.133  0.2412 -0.3069  0.0365
11176TIP3    H154943   0.296   0.423   5.093  2.3230  0.1610 -1.6412
11176TIP3    H254944   0.330   0.491   5.224  2.4380 -1.5914 -0.7299
11177TIP3   OH254945   3.416   1.598   3.412  0.2272  0.0207 -0.1153
11177TIP3    H154946   3.459   1.578   3.329  0.6797  1.6620 -0.3021
11177TIP3    H254947   3.353   1.667   3.391 -1.8648 -1.6154  0.3552
11178TIP3   OH254948   3.215   3.111  11.237  0.2249 -0.1341 -0.5077
11178TIP3    H154949   3.306   3.107  11.208  0.0560 -1.3851 -0.9133
11178TIP3    H254950   3.179   3.025  11.217  0.0394 -1.1389  3.3709
11179TIP3   OH254951   2.855   3.237  13.624  0.1615 -0.2544 -0.4770
11179TIP3    H154952   2.779   3.291  13.644  0.3078 -0.5793  1.0505
11179TIP3    H254953   2.845   3.216  13.531 -0.3509  1.6490 -0.8910
11180TIP3   OH254954   6.169   5.469   0.249  0.7655  0.0193 -0.2656
11180TIP3    H154955   6.157   5.449   0.341  1.3014 -0.3810 -0.2753
11180TIP3    H254956   6.156   5.385   0.204  3.5704 -0.5120 -0.2598
11181TIP3   OH254957   1.865   1.006   6.401 -0.3089 -0.5914 -0.2579
11181TIP3    H154958   1.956   1.003   6.370 -0.8446  1.8124 -2.4118
11181TIP3    H254959   1.831   0.918   6.385  0.8406 -0.7353 -2.2338
11182TIP3   OH254960   2.786   1.103  15.951 -0.3062  0.4872 -0.6298
11182TIP3    H154961   2.866   1.093  15.899 -0.5962 -0.6371 -0.8942
11182TIP3    H254962   2.790   1.030  16.013 -0.9009  0.6962 -0.3473
11183TIP3   OH254963   0.699   0.148   3.023  0.9368  0.4155  0.1824
11183TIP3    H154964   0.622   0.165   3.077  1.4070  0.6721  0.7883
11183TIP3    H254965   0.744   0.232   3.017  1.6779  0.0684  0.6554
11184TIP3   OH254966   0.503   5.613  16.065  0.3969 -0.9718  0.4267
11184TIP3    H154967   0.497   5.525  16.028 -1.4531 -0.4839 -0.5311
11184TIP3    H254968   0.512   5.671  15.990  2.6851 -0.3434  1.0859
11185TIP3   OH254969   4.500   2.223   1.275 -0.1748  0.4590  0.5508
11185TIP3    H154970   4.443   2.150   1.251 -1.5847  1.4716  0.6616
11185TIP3    H254971   4.554   2.238   1.198 -0.5850 -0.0565  0.1541
11186TIP3   OH254972   0.968   1.720  15.355 -0.0697  0.2632 -0.3291
11186TIP3    H154973   0.997   1.810  15.338 -2.6811  1.3146  0.1751
11186TIP3    H254974   1.013   1.695  15.436  2.1061  0.3540 -1.4482
11187TIP3   OH254975   0.958   6.758   5.449  0.0956  0.1716 -0.7223
11187TIP3    H154976   0.930   6.692   5.386 -1.8395  0.8444 -0.6327
11187TIP3    H254977   0.971   6.709   5.531  0.4667 -0.3661 -1.0965
11188TIP3   OH254978   3.822   3.377   5.329 -0.2933  0.1448 -0.3558
11188TIP3    H154979   3.913   3.349   5.335 -0.2213  0.3586 -0.4504
11188TIP3    H254980   3.780   3.311   5.274 -0.2977 -0.2005  0.0533
11189TIP3   OH254981   0.444   6.689  14.900  0.0526 -0.0058 -0.4965
11189TIP3    H154982   0.456   6.723  14.812  0.8953 -0.1696 -0.4530
11189TIP3    H254983   0.503   6.613  14.905  0.5171  0.4003  0.4171
11190TIP3   OH254984   6.598   4.567   3.865 -0.0949  0.0162  0.0315
11190TIP3    H154985   6.599   4.633   3.796 -2.4878  1.2459  1.0432
11190TIP3    H254986   6.552   4.492   3.825 -1.7483  0.8354  0.2886
11191TIP3   OH254987   5.646   5.730   6.710 -0.0378  0.0771  0.3906
11191TIP3    H154988   5.697   5.687   6.642 -0.9881 -4.0630  2.0188
11191TIP3    H254989   5.559   5.742   6.671  0.7371  2.7053 -0.7559
11192TIP3   OH254990   2.143   0.145   1.605  0.4909 -0.1217  0.4849
11192TIP3    H154991   2.170   0.236   1.605  0.0917  0.0102  1.4020
11192TIP3    H254992   2.051   0.147   1.578  0.6320 -0.3123 -0.0292
11193TIP3   OH254993   4.122   2.473  14.686  0.3185 -0.0486  0.0687
11193TIP3    H154994   4.211   2.464  14.651  0.9219  0.7892  1.2835
11193TIP3    H254995   4.134   2.463  14.781 -0.7248  1.1317  0.3386
11194TIP3   OH254996   3.359   5.026   4.104  0.7445 -0.2299 -0.5106
11194TIP3    H154997   3.442   4.988   4.076  0.6106 -0.4199 -0.6600
11194TIP3    H254998   3.378   5.118   4.120  0.8789 -0.1674 -1.0000
11195TIP3   OH254999   6.712   2.910   5.376 -0.6511 -0.7739  0.2557
11195TIP3    H155000   6.779   2.881   5.438 -1.8018 -0.5997  1.6328
11195TIP3    H255001   6.633   2.863   5.402 -0.9557 -1.4838 -1.7533
11196TIP3   OH255002   3.568   0.706   5.190  0.0003  0.3633 -0.0166
11196TIP3    H155003   3.662   0.696   5.200 -0.1958 -0.6398  1.0084
11196TIP3    H255004   3.536   0.726   5.278 -0.6744  1.4937 -0.4775
11197TIP3   OH255005   6.203   3.209   4.020 -0.1071 -0.5122 -0.0547
11197TIP3    H155006   6.152   3.287   3.998  1.4652  0.2174 -1.3302
11197TIP3    H255007   6.177   3.143   3.956  0.6765 -0.0661 -0.8543
11198TIP3   OH255008   2.598   5.726   1.998 -0.5755 -0.1422 -0.3266
11198TIP3    H155009   2.684   5.744   2.037 -0.6986  0.2395 -0.2202
11198TIP3    H255010   2.569   5.811   1.965 -1.3152 -0.0779  0.4540
11199TIP3   OH255011   6.352   1.020  14.461  0.3895 -0.2537 -0.0465
11199TIP3    H155012   6.292   0.971  14.517  0.4887 -1.6844 -1.1270
11199TIP3    H255013   6.439   0.989  14.486  0.5987  0.8442  0.6160
11200TIP3   OH255014   4.727   4.761  15.480 -0.0954 -0.3256  0.2656
11200TIP3    H155015   4.795   4.824  15.506 -0.3894  0.0370  0.1660
11200TIP3    H255016   4.694   4.727  15.563  0.4367 -0.7559  0.3089
11201TIP3   OH255017   2.123   3.065  16.330  0.3615 -0.6280  0.3327
11201TIP3    H155018   2.107   3.157  16.350  0.5073 -0.5106 -0.0783
11201TIP3    H255019   2.188   3.037  16.395  0.9538 -0.2099 -0.0698
11202TIP3   OH255020   0.249   0.614  17.253 -0.3068  0.4711 -0.0506
11202TIP3    H155021   0.213   0.529  17.281  1.4656  0.0445  1.0637
11202TIP3    H255022   0.171   0.668  17.237 -1.4634 -0.6289  1.4986
11203TIP3   OH255023   4.875   5.567  12.626  0.0075  0.1250  0.1236
11203TIP3    H155024   4.829   5.484  12.634 -0.3864  0.3744  0.4896
11203TIP3    H255025   4.968   5.544  12.630 -0.0966 -0.3048  0.1021
11204TIP3   OH255026   2.754   4.483   0.990 -0.1492  0.2666 -0.6913
11204TIP3    H155027   2.673   4.529   1.013 -0.1358  0.9999 -1.9914
11204TIP3    H255028   2.815   4.506   1.059 -1.0715 -0.3771  0.3604
11205TIP3   OH255029   5.943   4.634   5.187  0.1844  1.0560  0.2355
11205TIP3    H155030   5.990   4.555   5.214 -1.2307 -0.3786 -1.2703
11205TIP3    H255031   6.006   4.705   5.202  1.7155 -0.4018  1.1045
11206TIP3   OH255032   5.350   3.700   3.622  0.3698 -0.6083  0.6511
11206TIP3    H155033   5.433   3.716   3.578 -0.2312  0.7299 -0.0556
11206TIP3    H255034   5.362   3.737   3.710  0.7322 -1.0154  0.7758
11207TIP3   OH255035   5.181   1.351  15.143  0.2321  0.4289 -0.3334
11207TIP3    H155036   5.104   1.303  15.112 -0.1354 -0.5446  1.8525
11207TIP3    H255037   5.243   1.282  15.169  1.3577  1.1966 -0.8998
11208TIP3   OH255038   6.632   3.787  17.207 -0.2131  0.1101 -0.2204
11208TIP3    H155039   6.557   3.847  17.205 -0.5806 -0.3744 -1.0951
11208TIP3    H255040   6.639   3.763  17.300 -1.4260 -0.1916 -0.1821
11209TIP3   OH255041   5.567   4.712   4.140  0.0355  0.3397  0.0799
11209TIP3    H155042   5.625   4.758   4.201 -0.5578 -1.0116  1.7652
11209TIP3    H255043   5.488   4.767   4.138 -0.1261  0.1626  0.9540
11210TIP3   OH255044   6.536   1.548   0.857 -0.3183  0.3393 -0.1858
11210TIP3    H155045   6.521   1.537   0.951 -0.1573  0.9357 -0.0898
11210TIP3    H255046   6.488   1.628   0.834  3.1062  2.7012  0.2541
11211TIP3   OH255047   6.723   2.783   3.586  0.1053  0.3535  0.1448
11211TIP3    H155048   6.652   2.767   3.524  0.2303  0.6140 -0.0689
11211TIP3    H255049   6.691   2.855   3.641 -0.7011 -0.9804  1.4900
11212TIP3   OH255050   1.627   1.005  14.984 -0.3489  0.2666  0.3547
11212TIP3    H155051   1.569   1.039  14.916  0.1382 -1.4799 -1.0114
11212TIP3    H255052   1.581   0.929  15.020 -1.0066  1.6688  2.6902
11213TIP3   OH255053   0.308   6.515  11.943 -0.1839  0.4418 -0.0177
11213TIP3    H155054   0.353   6.560  11.871  1.9047  0.9612  1.5196
11213TIP3    H255055   0.347   6.427  11.944 -2.0679 -0.4661 -1.0843
11214TIP3   OH255056   5.547   5.655  16.497  0.0511 -0.4698  0.0044
11214TIP3    H155057   5.578   5.641  16.408  0.6571  3.1912 -0.5187
11214TIP3    H255058   5.539   5.750  16.505 -2.8072 -0.7850  2.9437
11215TIP3   OH255059   1.439   1.672   1.877 -0.4162  0.1917  0.3174
11215TIP3    H155060   1.391   1.627   1.947  1.2342  0.5965  1.7772
11215TIP3    H255061   1.479   1.601   1.827 -2.2543 -0.1442 -0.7930
11216TIP3   OH255062   0.168   4.246   5.005  0.1196 -0.6452  0.1919
11216TIP3    H155063   0.191   4.293   5.085  0.5174 -0.8104  0.1743
11216TIP3    H255064   0.152   4.315   4.940  0.4903 -0.5300  0.2224
11217TIP3   OH255065   0.769   1.460  16.197  0.5809 -0.3269 -0.0586
11217TIP3    H155066   0.763   1.383  16.140  2.4893  0.2421 -1.1204
11217TIP3    H255067   0.691   1.512  16.176  0.0402 -1.2545 -0.3984
11218TIP3   OH255068   3.960   2.021   2.910  0.2361  0.3621  0.0903
11218TIP3    H155069   4.035   2.052   2.859 -0.3739  0.7683 -0.5705
11218TIP3    H255070   3.987   2.035   3.001  1.1768 -0.0152 -0.1124
11219TIP3   OH255071   5.225   4.566  13.392  0.1074 -0.2917 -1.0324
11219TIP3    H155072   5.173   4.542  13.316 -0.7218 -0.7115 -0.3433
11219TIP3    H255073   5.289   4.496  13.401 -1.3265 -1.5171  0.0610
11220TIP3   OH255074   3.051   1.061  15.267 -0.2223 -0.3765 -0.0976
11220TIP3    H155075   3.000   0.981  15.284 -1.2790  0.2140 -0.3875
11220TIP3    H255076   2.987   1.122  15.230  0.3902  0.8629  0.8241
11221TIP3   OH255077   6.575   2.198   1.069  0.1176  0.5272 -0.0825
11221TIP3    H155078   6.618   2.250   1.001  1.1896 -0.8507 -0.5009
11221TIP3    H255079   6.636   2.200   1.143  1.0009 -1.4518 -0.6846
11222TIP3   OH255080   3.952   3.375  16.845 -0.6767  0.1571 -0.5448
11222TIP3    H155081   3.902   3.430  16.784 -0.8986 -1.0650 -1.5043
11222TIP3    H255082   3.933   3.285  16.817  0.9913 -0.3701 -0.0697
11223TIP3   OH255083   4.350   5.082  15.797 -0.0008 -0.0591  0.2524
11223TIP3    H155084   4.423   5.123  15.842 -0.3723  2.2588 -1.0438
11223TIP3    H255085   4.390   5.024  15.733  0.7453  1.1040 -0.3677
11224TIP3   OH255086   1.564   6.138  11.198 -0.2400  0.2407 -0.1615
11224TIP3    H155087   1.557   6.056  11.248 -1.3984  0.2239 -0.3236
11224TIP3    H255088   1.608   6.198  11.258  1.3918 -0.6994 -0.3304
11225TIP3   OH255089   2.476   2.151  14.621  0.3498 -0.1454 -0.8032
11225TIP3    H155090   2.454   2.063  14.650  1.8910 -0.1352  0.5180
11225TIP3    H255091   2.391   2.194  14.608 -0.4088 -1.6245 -0.9048
11226TIP3   OH255092   2.510   1.359   6.523 -0.4106 -0.1827 -0.0191
11226TIP3    H155093   2.475   1.410   6.596  2.1672  2.1404 -0.2355
11226TIP3    H255094   2.447   1.373   6.452 -0.8660  0.9844  0.5819
11227TIP3   OH255095   6.756   4.486  15.962  0.1487 -0.0053  0.5469
11227TIP3    H155096   6.849   4.463  15.964  0.0184 -0.7908 -0.9854
11227TIP3    H255097   6.748   4.558  16.024  1.6947 -0.2182  1.0393
11228TIP3   OH255098   1.420   2.835   4.849  0.0586  0.2396  0.2688
11228TIP3    H155099   1.340   2.884   4.871  1.2555  2.2459  0.3751
11228TIP3    H255100   1.428   2.769   4.919 -2.2659 -1.0548 -0.5578
11229TIP3   OH255101   6.451   1.111   3.318  0.4959 -0.7136  0.6517
11229TIP3    H155102   6.403   1.037   3.356 -0.2278 -0.7976 -0.3872
11229TIP3    H255103   6.396   1.188   3.338  1.1559 -0.4658  1.5727
11230TIP3   OH255104   0.195   1.517   1.961 -0.6901  0.1255  0.0437
11230TIP3    H155105   0.140   1.596   1.954 -1.1888 -0.2257 -0.0815
11230TIP3    H255106   0.132   1.446   1.970 -0.2422 -0.2773 -0.0175
11231TIP3   OH255107   4.894   1.930   0.617 -1.0698  0.0642 -0.8069
11231TIP3    H155108   4.964   1.865   0.618  0.4987  1.6112  2.0273
11231TIP3    H255109   4.820   1.886   0.660  0.2458  0.3043  1.8738
11232TIP3   OH255110   1.610   5.091  12.427 -0.0198  0.1162 -0.6011
11232TIP3    H155111   1.579   5.151  12.359  0.2961  1.1472  0.1463
11232TIP3    H255112   1.589   5.135  12.509  1.5451 -0.1113 -0.0460
11233TIP3   OH255113   5.518   5.778   1.498  0.2347 -0.6951  0.0163
11233TIP3    H155114   5.438   5.771   1.550  1.0597 -0.5736  1.3660
11233TIP3    H255115   5.494   5.834   1.424 -0.8401 -0.3884  0.5731
11234TIP3   OH255116   6.382   3.692   5.307 -0.3019 -0.0134  0.8343
11234TIP3    H155117   6.385   3.726   5.218 -0.4948  1.7410  1.4512
11234TIP3    H255118   6.473   3.671   5.328 -0.3469 -1.0807  0.0116
11235TIP3   OH255119   2.899   1.557  10.998  0.4160  0.2166 -0.0550
11235TIP3    H155120   2.896   1.649  10.970  1.8061  0.1481 -0.5250
11235TIP3    H255121   2.809   1.535  11.018 -0.2450  1.1265 -1.8153
11236TIP3   OH255122   1.172   3.838   6.099 -0.6415  0.1155  0.6561
11236TIP3    H155123   1.252   3.890   6.085 -0.7623 -0.0986 -0.9878
11236TIP3    H255124   1.128   3.839   6.014 -0.9222 -2.2295  0.7266
11237TIP3   OH255125   0.124   5.721   5.514  0.0342  0.0319  0.2091
11237TIP3    H155126   0.057   5.748   5.577 -4.4117 -1.1448 -3.4860
11237TIP3    H255127   0.138   5.798   5.459 -0.7201 -0.6119 -0.9094
11238TIP3   OH255128   3.533   1.602  13.730  0.5332  0.8907  0.3051
11238TIP3    H155129   3.445   1.626  13.757 -0.3823 -0.3709 -1.3544
11238TIP3    H255130   3.582   1.684  13.733 -0.1156  1.2714  3.1568
11239TIP3   OH255131   4.110   5.602  15.219 -0.0064 -0.2350 -0.1632
11239TIP3    H155132   4.156   5.636  15.296 -0.7135 -0.5445  0.4090
11239TIP3    H255133   4.086   5.513  15.243 -0.6520 -0.1772 -0.5528
11240TIP3   OH255134   3.804   1.081  12.842 -0.2530  0.5608  0.0496
11240TIP3    H155135   3.878   1.139  12.859  0.9156 -0.7893 -0.2709
11240TIP3    H255136   3.790   1.035  12.924 -1.8043  1.9131  0.6016
11241TIP3   OH255137   3.904   4.863   3.845  0.2503  0.7182 -0.0492
11241TIP3    H155138   3.894   4.781   3.892  0.7352 -0.3392 -1.6890
11241TIP3    H255139   3.984   4.902   3.881  0.2702  0.2517  0.4221
11242TIP3   OH255140   4.212   5.501   5.915 -0.1669  0.5274 -0.4741
11242TIP3    H155141   4.158   5.433   5.956 -0.0884  1.7485  1.8328
11242TIP3    H255142   4.296   5.458   5.900 -0.2579 -0.0400  0.5129
11243TIP3   OH255143   6.682   6.178  14.654  0.3178 -0.1142 -0.3406
11243TIP3    H155144   6.608   6.234  14.677 -0.4191 -1.5628  1.0164
11243TIP3    H255145   6.731   6.228  14.590 -0.9449  1.5780 -0.0497
11244TIP3   OH255146   4.854   3.772   6.448  0.8037  0.6195  0.2729
11244TIP3    H155147   4.895   3.718   6.516 -1.1712 -1.0378  0.2547
11244TIP3    H255148   4.767   3.733   6.436  0.3118  2.1690 -1.7298
11245TIP3   OH255149   3.718   5.391  11.255  0.3460  0.3506  0.0835
11245TIP3    H155150   3.647   5.404  11.191  0.3197 -0.7076 -0.1237
11245TIP3    H255151   3.793   5.365  11.202  0.0853 -1.4339  0.5166
11246TIP3   OH255152   0.460   0.565  17.049  0.0270  0.2078 -0.7593
11246TIP3    H155153   0.515   0.641  17.069 -1.2223  1.1794 -0.8857
11246TIP3    H255154   0.402   0.557  17.125 -0.0006 -0.4843 -0.8468
11247TIP3   OH255155   1.163   6.635   0.123 -0.6807 -0.0647  0.0995
11247TIP3    H155156   1.120   6.690   0.058 -2.8306 -1.6679  0.0598
11247TIP3    H255157   1.094   6.615   0.187  0.7882 -0.3677  1.6616
11248TIP3   OH255158   6.520   3.262   4.457 -0.1135 -0.1396  0.5737
11248TIP3    H155159   6.442   3.232   4.411  0.8418  0.6724 -1.7228
11248TIP3    H255160   6.486   3.312   4.532 -1.8624  1.5304 -1.2285
11249TIP3   OH255161   3.961   6.404   2.217 -0.3848 -0.7600  0.8879
11249TIP3    H155162   4.043   6.360   2.240 -0.4627 -2.0497 -1.0846
11249TIP3    H255163   3.975   6.437   2.128 -2.8575 -3.3871 -0.6257
11250TIP3   OH255164   6.061   2.254  15.224 -0.2483  0.2759  0.1473
11250TIP3    H155165   6.046   2.299  15.141 -0.5186 -0.0184  0.0343
11250TIP3    H255166   5.979   2.209  15.243  0.2194 -0.7019 -0.0717
11251TIP3   OH255167   2.324   2.827  12.489  0.2121 -0.1660 -0.6480
11251TIP3    H155168   2.384   2.854  12.420 -0.9791  0.6618 -1.4030
11251TIP3    H255169   2.244   2.875  12.471  0.0193  0.4664  1.6210
11252TIP3   OH255170   3.602   3.651   1.863 -0.2230 -0.3750 -0.3167
11252TIP3    H155171   3.516   3.616   1.884  0.2952 -1.6891 -0.3097
11252TIP3    H255172   3.585   3.720   1.798 -1.2709 -0.5874 -0.2762
11253TIP3   OH255173   1.108   3.161  12.200 -0.5186  0.2246 -0.6045
11253TIP3    H155174   1.203   3.152  12.208 -0.4766  1.1141  0.0626
11253TIP3    H255175   1.073   3.100  12.265 -0.4431 -0.6193 -1.3249
11254TIP3   OH255176   3.266   5.407  14.839 -0.4810  0.2286 -0.1101
11254TIP3    H155177   3.257   5.320  14.800  2.0296 -0.3402  0.3615
11254TIP3    H255178   3.245   5.394  14.932 -0.0736  0.1040 -0.0334
11255TIP3   OH255179   1.195   4.744   5.204 -0.5306 -0.2090  0.3471
11255TIP3    H155180   1.288   4.740   5.182 -0.0283  3.0923  1.2475
11255TIP3    H255181   1.150   4.731   5.121  0.5740 -3.3860  0.1184
11256TIP3   OH255182   1.514   6.107   4.784  0.0335 -0.2815 -0.8371
11256TIP3    H155183   1.522   6.120   4.879 -0.4354  2.4703 -1.0755
11256TIP3    H255184   1.587   6.156   4.747  0.4292 -1.6479 -1.9097
11257TIP3   OH255185   6.666   5.055   4.293  0.0001 -0.2602  0.3996
11257TIP3    H155186   6.608   4.984   4.321  0.7886 -0.1043  2.5613
11257TIP3    H255187   6.751   5.035   4.332  0.4454  1.4404  0.4091
11258TIP3   OH255188   4.054   1.388   0.850 -0.0914 -0.3082  0.3629
11258TIP3    H155189   4.101   1.471   0.840 -2.0223  0.8555  0.5082
11258TIP3    H255190   3.996   1.402   0.924 -0.9864 -1.5412 -0.0839
11259TIP3   OH255191   0.920   2.963  13.108  0.1293 -0.0014 -0.1563
11259TIP3    H155192   1.003   2.980  13.065  0.5802 -0.9159  0.3354
11259TIP3    H255193   0.855   3.006  13.052  0.9527  1.0743 -0.3261
11260TIP3   OH255194   3.823   0.655   4.423  0.1059 -0.1140  0.4201
11260TIP3    H155195   3.765   0.683   4.493  1.0323 -1.1042  1.6212
11260TIP3    H255196   3.764   0.636   4.350 -0.8921  0.7827  0.9550
11261TIP3   OH255197   1.335   2.877  13.486  0.2080 -0.2621 -0.4176
11261TIP3    H155198   1.343   2.808  13.552  0.6164  0.3561  0.1782
11261TIP3    H255199   1.422   2.885  13.448  0.2700  0.2273 -0.1806
11262TIP3   OH255200   3.541   5.891  11.838 -0.1064  0.2825 -0.0959
11262TIP3    H155201   3.629   5.913  11.868  0.0492  0.0622 -0.3816
11262TIP3    H255202   3.555   5.848  11.754 -0.3319 -1.6190  0.7767
11263TIP3   OH255203   4.657   3.382   6.471 -0.4199  0.6636  0.1557
11263TIP3    H155204   4.639   3.297   6.511 -0.9091  0.9408  0.5301
11263TIP3    H255205   4.733   3.366   6.415 -1.9366 -0.6158 -1.6879
11264TIP3   OH255206   3.087   0.350  11.150  0.0214  0.3352  0.1111
11264TIP3    H155207   3.129   0.427  11.188  1.0704 -0.0697 -0.1949
11264TIP3    H255208   3.158   0.286  11.141 -0.8743 -0.7597  0.5816
11265TIP3   OH255209   5.083   3.753   3.238 -0.1178  0.0237  0.5004
11265TIP3    H155210   5.099   3.794   3.153  1.1614 -3.3606 -1.0506
11265TIP3    H255211   4.995   3.715   3.230 -0.7487  1.1889  1.4453
11266TIP3   OH255212   0.852   4.173   5.359 -0.2200 -0.1993 -0.1660
11266TIP3    H155213   0.830   4.090   5.316  1.6290 -0.7374 -0.1647
11266TIP3    H255214   0.787   4.181   5.429 -0.5199 -1.5951 -0.2425
11267TIP3   OH255215   3.482   2.593  13.773 -0.0944  0.3841  0.4562
11267TIP3    H155216   3.404   2.561  13.729  0.0233  0.0644  0.4751
11267TIP3    H255217   3.476   2.558  13.862  0.9124 -1.1120 -0.0138
11268TIP3   OH255218   5.775   0.929   4.359  0.2687  0.4799  0.0517
11268TIP3    H155219   5.817   0.851   4.322 -2.1544 -0.5632 -0.6832
11268TIP3    H255220   5.842   0.967   4.416  1.8434 -1.6020 -0.2784
11269TIP3   OH255221   1.985   3.978   4.819  0.9741 -0.2379 -0.0440
11269TIP3    H155222   1.960   3.993   4.728  0.1528  0.6847  0.3169
11269TIP3    H255223   1.969   4.062   4.862  0.4558 -0.9286  1.1439
11270TIP3   OH255224   0.939   0.710  14.055  0.3007 -0.1417 -0.1356
11270TIP3    H155225   0.901   0.624  14.037 -0.4709  0.4803 -1.6363
11270TIP3    H255226   0.863   0.765  14.075  0.7245  0.3882  0.0317
11271TIP3   OH255227   6.372   5.410   4.283 -0.1698 -0.1387 -0.3411
11271TIP3    H155228   6.324   5.382   4.205 -2.4509  0.0271  0.9122
11271TIP3    H255229   6.330   5.492   4.309  0.9836  0.1513  0.6961
11272TIP3   OH255230   4.927   6.301  12.456 -0.1582 -0.0609 -0.2772
11272TIP3    H155231   4.924   6.225  12.515 -2.4147 -0.1835 -0.4569
11272TIP3    H255232   4.910   6.376  12.512  0.1804  0.1013 -0.3912
11273TIP3   OH255233   0.266   0.632   0.252  0.7647  0.3731  0.0729
11273TIP3    H155234   0.333   0.587   0.200 -0.4376 -1.0045 -0.3728
11273TIP3    H255235   0.265   0.721   0.217  1.3183 -0.0012 -0.9576
11274TIP3   OH255236   2.323   5.852  14.677 -0.2123  0.0722 -0.2139
11274TIP3    H155237   2.406   5.876  14.718 -1.0447  3.1895 -0.0977
11274TIP3    H255238   2.264   5.835  14.751 -0.3029  0.2448 -0.2471
11275TIP3   OH255239   2.533   5.651  14.174 -0.4959 -0.2866 -0.4702
11275TIP3    H155240   2.541   5.649  14.270 -1.5512  0.3118 -0.3526
11275TIP3    H255241   2.603   5.594  14.143 -0.6005 -1.0843  0.6940
11276TIP3   OH255242   3.457   6.338   6.214 -0.5757 -0.0604 -0.0654
11276TIP3    H155243   3.414   6.369   6.293 -0.4632  1.0253 -0.4148
11276TIP3    H255244   3.551   6.351   6.231 -0.4812 -0.8613  0.0493
11277TIP3   OH255245   6.037   4.194   0.313  0.1144  0.1085 -0.1334
11277TIP3    H155246   6.132   4.188   0.320  0.2852  1.7572 -0.4226
11277TIP3    H255247   6.006   4.104   0.322  1.6591 -0.4001  0.4563
11278TIP3   OH255248   6.063   0.154   5.450 -0.8237  0.0088  0.0063
11278TIP3    H155249   6.098   0.217   5.513  1.0550  0.0955 -1.0548
11278TIP3    H255250   6.077   0.069   5.490  2.9399 -0.1568 -1.2994
11279TIP3   OH255251   4.492   5.361   5.728 -0.7064  0.1783  0.0786
11279TIP3    H155252   4.529   5.273   5.737 -0.7930  0.1635  0.2909
11279TIP3    H255253   4.504   5.401   5.814 -2.8000 -0.4560  0.7321
11280TIP3   OH255254   3.133   1.451   1.113  0.0105 -0.5671 -0.2518
11280TIP3    H155255   3.181   1.493   1.042  3.3177 -1.1615  1.4493
11280TIP3    H255256   3.092   1.523   1.160  1.3439  0.2681 -0.3296
11281TIP3   OH255257   2.621   3.433  13.577 -0.1831  0.1590  0.2671
11281TIP3    H155258   2.670   3.489  13.517  0.5675  0.5208  1.1932
11281TIP3    H255259   2.573   3.373  13.520  1.1870 -0.0818 -0.6752
11282TIP3   OH255260   0.724   4.908   1.923  0.2957  0.1680 -0.3081
11282TIP3    H155261   0.647   4.960   1.900  0.8625  0.4735 -1.6071
11282TIP3    H255262   0.789   4.931   1.856  1.6118  0.1200  0.9138
11283TIP3   OH255263   5.650   6.724  15.146 -0.2641  0.2076 -0.4183
11283TIP3    H155264   5.636   6.806  15.194 -5.6094 -0.4391 -0.2872
11283TIP3    H255265   5.641   6.748  15.054 -1.2994 -0.0484 -0.4031
11284TIP3   OH255266   5.862   2.265  14.705 -0.0302 -0.0890 -0.5468
11284TIP3    H155267   5.802   2.338  14.720  0.1017 -0.2138  0.6523
11284TIP3    H255268   5.805   2.189  14.695 -0.2045  0.2101 -2.3550
11285TIP3   OH255269   2.166   0.032  15.898 -0.2098  0.1308  0.1565
11285TIP3    H155270   2.248   0.067  15.865 -1.0132  1.1957 -0.7960
11285TIP3    H255271   2.132   0.100  15.956 -1.8116  1.0466 -1.7499
11286TIP3   OH255272   0.141   6.194   2.344 -0.4815  0.5852 -0.5449
11286TIP3    H155273   0.187   6.116   2.311 -1.5234 -1.0583  1.6273
11286TIP3    H255274   0.081   6.218   2.274  1.8540  1.2958 -2.4395
11287TIP3   OH255275   3.800   2.343  11.740  0.8623  0.3910 -0.4019
11287TIP3    H155276   3.746   2.279  11.786  1.2387  0.9229  0.8255
11287TIP3    H255277   3.876   2.293  11.710  0.0821 -0.1989 -1.4866
11288TIP3   OH255278   5.070   0.228   1.814  0.3147 -0.2980 -0.3380
11288TIP3    H155279   5.120   0.310   1.820  2.5406 -1.5171 -1.2181
11288TIP3    H255280   5.025   0.235   1.729 -1.3306  0.9293  0.5853
11289TIP3   OH255281   2.846   4.918   3.994 -0.6742  0.0451 -0.1540
11289TIP3    H155282   2.894   4.946   4.072 -0.1807 -0.9805 -0.0762
11289TIP3    H255283   2.861   4.988   3.930 -2.2534  1.6173  1.0984
11290TIP3   OH255284   6.330   2.962  13.097 -0.0117 -0.1959  0.5072
11290TIP3    H155285   6.333   3.032  13.162  2.3179  0.1414  0.1207
11290TIP3    H255286   6.353   2.883  13.145  2.4508  0.1664  0.0542
11291TIP3   OH255287   6.273   3.270   1.309 -0.4849 -0.4504  0.2557
11291TIP3    H155288   6.249   3.362   1.299  0.1919 -0.3029 -0.0519
11291TIP3    H255289   6.296   3.261   1.401 -1.8630 -0.6427  0.6149
11292TIP3   OH255290   3.027   5.207  14.742  0.0183  0.1223  0.4681
11292TIP3    H155291   2.969   5.193  14.817  0.7093  0.4480  1.0807
11292TIP3    H255292   3.072   5.123  14.731  0.0973  0.1519  0.5708
11293TIP3   OH255293   4.413   0.745  13.755 -0.2593  0.2995 -0.2768
11293TIP3    H155294   4.507   0.726  13.754 -0.0950  0.8898 -2.4425
11293TIP3    H255295   4.375   0.679  13.813  1.3690 -0.5702 -0.1486
11294TIP3   OH255296   6.358   0.280   3.913 -0.1582 -0.2354 -0.2395
11294TIP3    H155297   6.286   0.248   3.858 -0.1867 -1.4758  0.4792
11294TIP3    H255298   6.435   0.234   3.881 -0.1830 -1.0027  0.7572
11295TIP3   OH255299   3.602   5.119  13.083  0.0187  0.5322  0.6215
11295TIP3    H155300   3.531   5.058  13.105 -0.0057  0.2217 -0.2570
11295TIP3    H255301   3.680   5.082  13.125  0.1613 -0.5559 -0.5038
11296TIP3   OH255302   5.643   5.007  15.657 -0.1766  0.5584 -0.0796
11296TIP3    H155303   5.733   5.007  15.690  0.0139 -0.4018 -0.5494
11296TIP3    H255304   5.636   4.925  15.607 -1.7230 -0.0421  1.0624
11297TIP3   OH255305   1.959   5.902   3.417 -0.5094  0.3059 -1.1733
11297TIP3    H155306   2.017   5.917   3.491  0.4488 -0.9400 -1.6503
11297TIP3    H255307   1.873   5.930   3.448 -0.1875 -0.4581  0.5047
11298TIP3   OH255308   1.480   1.850   2.272  0.2054 -0.7084 -0.2275
11298TIP3    H155309   1.488   1.940   2.304 -1.7387 -0.4998 -0.2099
11298TIP3    H255310   1.506   1.856   2.180 -0.5409  0.0365 -0.4103
11299TIP3   OH255311   4.824   6.105  14.555  0.3325 -0.1120 -0.7762
11299TIP3    H155312   4.739   6.149  14.555  1.2947  1.8944 -1.8734
11299TIP3    H255313   4.812   6.029  14.498 -0.4279  0.8676 -1.9809
11300TIP3   OH255314   2.671   6.129  11.524  0.1594  0.1769 -0.1746
11300TIP3    H155315   2.617   6.193  11.479  1.2990  0.7376 -0.8055
11300TIP3    H255316   2.678   6.056  11.462 -0.7548 -0.3729  0.3532
11301TIP3   OH255317   3.761   2.852   2.445  0.0418 -0.6822 -0.4894
11301TIP3    H155318   3.709   2.808   2.512 -2.5000  1.9644 -0.5304
11301TIP3    H255319   3.835   2.891   2.492 -0.1603 -1.2166  0.2761
11302TIP3   OH255320   6.269   5.819  12.326  0.1368  0.4797  0.0813
11302TIP3    H155321   6.195   5.831  12.386  0.1461  1.5496 -0.1015
11302TIP3    H255322   6.344   5.803  12.383 -0.3398 -1.3294  0.2466
11303TIP3   OH255323   2.871   0.055   5.269 -0.0022 -0.0954  0.0364
11303TIP3    H155324   2.891   0.053   5.176  0.5092 -3.8411  0.0921
11303TIP3    H255325   2.956   0.058   5.312 -0.1479 -0.3761  0.3539
11304TIP3   OH255326   2.827   6.675   4.329  0.0135 -0.2385 -0.4911
11304TIP3    H155327   2.831   6.719   4.243 -1.8776  0.2122 -0.3836
11304TIP3    H255328   2.800   6.744   4.390 -1.8129 -1.2253 -0.1052
11305TIP3   OH255329   3.198   4.131  14.107  0.1709 -0.4586  0.0076
11305TIP3    H155330   3.245   4.196  14.054 -0.3516  0.6076  0.8245
11305TIP3    H255331   3.253   4.052  14.102  0.8979  0.0787 -0.8679
11306TIP3   OH255332   2.582   1.231   1.810  0.3176  0.1646  0.1094
11306TIP3    H155333   2.627   1.263   1.731  0.5588 -1.8079 -0.6243
11306TIP3    H255334   2.652   1.202   1.868  0.1347 -2.0087 -0.6326
11307TIP3   OH255335   3.583   5.996   5.133  0.1473  0.3317  0.2244
11307TIP3    H155336   3.525   6.034   5.200  1.5401  0.0826  1.6319
11307TIP3    H255337   3.616   5.915   5.173  2.8474  1.3438  0.2587
11308TIP3   OH255338   3.193   5.184   1.304  0.0749 -0.1094 -0.2397
11308TIP3    H155339   3.216   5.183   1.397  2.1706 -1.5250 -0.7120
11308TIP3    H255340   3.098   5.194   1.303 -0.5761 -3.9324  2.2211
11309TIP3   OH255341   0.305   1.580  13.315  0.1073  0.8728 -0.1897
11309TIP3    H155342   0.369   1.535  13.260  0.5124  1.3174 -0.0899
11309TIP3    H255343   0.226   1.527  13.308  1.2566 -1.2720  1.9517
11310TIP3   OH255344   3.047   0.519   2.261 -0.1567  0.7110  0.3025
11310TIP3    H155345   3.015   0.431   2.281  0.2415  0.3565 -0.5530
11310TIP3    H255346   2.969   0.575   2.263 -0.3767  0.3793  1.0732
11311TIP3   OH255347   4.649   0.635   4.076  0.0176  0.0787  0.2024
11311TIP3    H155348   4.611   0.549   4.058  0.2937  0.0740 -0.3797
11311TIP3    H255349   4.699   0.622   4.157  1.7004 -0.8465 -0.9181
11312TIP3   OH255350   3.862   5.578  14.101  0.8325  0.4982  0.3133
11312TIP3    H155351   3.781   5.607  14.058  0.6605 -0.3969  0.0077
11312TIP3    H255352   3.932   5.627  14.058  0.5763  0.2626 -0.3858
11313TIP3   OH255353   1.447   5.422  15.519 -0.6656 -0.0228 -0.0949
11313TIP3    H155354   1.462   5.348  15.578  0.2681  0.7315  0.6540
11313TIP3    H255355   1.367   5.464  15.552 -0.8114 -0.2970 -0.0990
11314TIP3   OH255356   4.928   4.449  11.404 -0.2119  0.8919 -0.0343
11314TIP3    H155357   4.898   4.523  11.352  2.2660  1.2155 -1.1170
11314TIP3    H255358   4.921   4.479  11.495 -0.7088  1.8511 -0.3773
11315TIP3   OH255359   5.997   6.417  16.019  0.5074  0.3925  0.1066
11315TIP3    H155360   6.083   6.407  16.060 -0.2755  0.4615  1.8635
11315TIP3    H255361   5.957   6.490  16.065 -0.7302 -0.0315 -0.2520
11316TIP3   OH255362   6.321   5.794  16.425  0.2226  0.0536 -0.1465
11316TIP3    H155363   6.290   5.796  16.515  0.0203  1.9335 -0.2163
11316TIP3    H255364   6.416   5.784  16.431  0.2014  0.1128  0.2824
11317TIP3   OH255365   0.748   2.724   4.690  0.0981  0.0061  0.0602
11317TIP3    H155366   0.715   2.799   4.739 -3.9109  1.5564 -4.2700
11317TIP3    H255367   0.833   2.752   4.655 -1.0536  2.4068 -0.9851
11318TIP3   OH255368   4.353   1.971   0.594  0.0764 -0.2913  0.3389
11318TIP3    H155369   4.328   2.056   0.629 -1.9443 -0.9083  0.5312
11318TIP3    H255370   4.394   1.990   0.509  0.5344  0.8931  0.8093
11319TIP3   OH255371   5.104   6.554   0.107 -0.0638  0.3038  0.0518
11319TIP3    H155372   5.189   6.512   0.090 -0.0896 -0.4825  1.6879
11319TIP3    H255373   5.040   6.485   0.090 -0.3290  0.6352 -0.3054
11320TIP3   OH255374   0.062   2.786   1.912 -0.3390 -0.1448  0.2224
11320TIP3    H155375   0.133   2.808   1.972  0.5814  0.2137 -0.9664
11320TIP3    H255376   0.099   2.720   1.854 -1.1852 -0.4077 -0.0348
11321TIP3   OH255377   3.029   5.363   0.224 -0.2770 -0.6528 -0.0803
11321TIP3    H155378   3.065   5.284   0.264  0.0236  0.8370  2.8638
11321TIP3    H255379   2.934   5.352   0.230 -0.3511 -2.1243 -2.6932
11322TIP3   OH255380   2.954   4.642  12.160  0.2850  0.1807 -0.4133
11322TIP3    H155381   2.947   4.728  12.118 -1.8195  0.5301  0.5175
11322TIP3    H255382   2.948   4.579  12.089 -1.3236  0.7915 -0.8558
11323TIP3   OH255383   1.510   4.886  11.259 -0.4869  0.5093 -0.7211
11323TIP3    H155384   1.521   4.978  11.234 -2.4889  1.2173  0.7090
11323TIP3    H255385   1.509   4.838  11.176  0.6121  1.7462 -1.4896
11324TIP3   OH255386   3.034   0.217  11.734  0.1051 -0.8596 -0.4693
11324TIP3    H155387   2.984   0.212  11.652 -1.1870 -1.0804  0.3122
11324TIP3    H255388   2.986   0.281  11.787 -0.2720 -2.2245  0.9025
11325TIP3   OH255389   1.817   1.888  12.154 -0.1116 -0.5580 -0.2787
11325TIP3    H155390   1.722   1.893  12.148 -0.0909 -0.7580 -0.8303
11325TIP3    H255391   1.846   1.870  12.064  0.5103  0.4260 -0.2898
11326TIP3   OH255392   4.573   3.580  12.952 -0.5499 -0.2821 -0.1312
11326TIP3    H155393   4.638   3.640  12.988 -0.6453 -0.0437 -0.3575
11326TIP3    H255394   4.519   3.555  13.027 -0.5939  0.0194 -0.0638
11327TIP3   OH255395   3.666   4.276   2.436  0.6104  0.4430 -0.1847
11327TIP3    H155396   3.711   4.232   2.364  1.2010 -0.7629  0.8878
11327TIP3    H255397   3.727   4.344   2.465  2.0032 -1.4480  1.5338
11328TIP3   OH255398   2.532   2.207  14.941  0.2174  0.3264 -0.7969
11328TIP3    H155399   2.539   2.244  15.029  2.6144  1.8414 -1.5498
11328TIP3    H255400   2.470   2.266  14.896 -0.4105  0.0025 -0.3755
11329TIP3   OH255401   0.127   3.832  12.193 -0.3886 -0.1365 -0.3264
11329TIP3    H155402   0.219   3.859  12.194 -0.3709 -0.1988 -0.2827
11329TIP3    H255403   0.126   3.747  12.237 -0.6942  0.6167  1.2152
11330TIP3   OH255404   1.853   4.626   6.177  0.6398  0.0273  0.4821
11330TIP3    H155405   1.815   4.623   6.265 -0.9677 -2.0159 -0.2015
11330TIP3    H255406   1.813   4.703   6.136 -1.6769 -1.1913  0.3102
11331TIP3   OH255407   4.529   1.723   1.061  0.0374  0.1265 -0.1750
11331TIP3    H155408   4.463   1.655   1.071 -0.1060  0.1875 -0.7007
11331TIP3    H255409   4.593   1.704   1.130 -1.6882  1.4391  1.9174
11332TIP3   OH255410   2.344   5.811  16.631  0.0969  0.1314  0.3725
11332TIP3    H155411   2.410   5.743  16.621  1.8657  1.9360 -1.0538
11332TIP3    H255412   2.349   5.836  16.724  2.0939  0.8123  0.1208
11333TIP3   OH255413   4.451   5.919   4.123  0.2218  0.2708 -0.0129
11333TIP3    H155414   4.367   5.929   4.079  0.7904 -1.9068 -1.7926
11333TIP3    H255415   4.504   5.991   4.090 -1.6417  3.4682  3.3335
11334TIP3   OH255416   2.256   5.933  16.163  0.1619 -0.1957  0.0845
11334TIP3    H155417   2.216   5.974  16.239  1.9545  0.9811  0.4685
11334TIP3    H255418   2.213   5.848  16.155 -1.9474  0.7469  0.7515
11335TIP3   OH255419   1.895   0.961  14.983  0.1384  0.3393  0.2890
11335TIP3    H155420   1.905   0.959  15.078  1.2569  3.5584  0.3828
11335TIP3    H255421   1.801   0.966  14.969 -0.0313  0.0833  1.2574
11336TIP3   OH255422   1.007   1.356   5.487  1.0657  0.1374  0.1606
11336TIP3    H155423   0.953   1.432   5.468  0.2865 -0.3998  0.1570
11336TIP3    H255424   1.065   1.384   5.559  0.4509  0.5736  0.4929
11337TIP3   OH255425   0.043   5.347  14.674  0.7410  0.5087  0.1468
11337TIP3    H155426   0.116   5.344  14.737  0.6144 -0.0174  0.2771
11337TIP3    H255427  -0.035   5.331  14.727  0.6026  0.3545 -0.1013
11338TIP3   OH255428   4.552   6.121   5.804  0.1478  0.3830  0.2036
11338TIP3    H155429   4.551   6.062   5.729  0.3322 -2.6065  2.3833
11338TIP3    H255430   4.645   6.129   5.827  0.1381  1.6858 -0.1198
11339TIP3   OH255431   6.059   3.377   0.637 -0.0553  0.3930 -0.1590
11339TIP3    H155432   6.150   3.377   0.667 -0.4820  0.9230  1.2239
11339TIP3    H255433   6.045   3.467   0.607 -0.0723  0.2721 -0.5055
11340TIP3   OH255434   6.050   6.441  15.269 -0.3240 -0.5780  0.8942
11340TIP3    H155435   6.012   6.515  15.222  1.6116 -1.0370 -1.6095
11340TIP3    H255436   5.981   6.375  15.269 -0.8174 -0.0972 -0.2197
11341TIP3   OH255437   6.601   3.818   3.528 -0.1634  0.3732  0.3150
11341TIP3    H155438   6.690   3.784   3.532  0.0518  0.7560 -0.7547
11341TIP3    H255439   6.611   3.913   3.536  0.1280  1.0359 -4.5516
11342TIP3   OH255440   0.596   4.924  14.881 -0.2652  1.0667  0.4757
11342TIP3    H155441   0.591   4.836  14.843  1.0218  0.9408  0.5659
11342TIP3    H255442   0.600   4.909  14.975  0.0499  1.2241  0.4866
11343TIP3   OH255443   4.728   4.807  14.774 -0.3394  0.0014  0.0274
11343TIP3    H155444   4.694   4.895  14.790  0.9515  0.5058  0.0986
11343TIP3    H255445   4.790   4.792  14.845  1.4393  0.1159 -1.4355
11344TIP3   OH255446   3.694   1.908  16.412 -0.6062 -0.4495  0.1758
11344TIP3    H155447   3.745   1.948  16.483  1.1822 -1.4300 -0.4887
11344TIP3    H255448   3.736   1.939  16.332 -2.2115  0.1360 -0.4817
11345TIP3   OH255449   6.170   5.032   2.180 -0.0908 -0.1373 -0.0682
11345TIP3    H155450   6.234   5.021   2.109 -0.0840  0.1757 -0.1111
11345TIP3    H255451   6.095   4.979   2.153  0.1328 -0.4798 -0.0349
11346TIP3   OH255452   3.384   4.286   5.269  0.5661 -0.3207  0.3084
11346TIP3    H155453   3.353   4.367   5.228  1.0499  0.7984  2.0516
11346TIP3    H255454   3.310   4.225   5.260 -1.0648  1.3402  1.7496
11347TIP3   OH255455   2.021   4.756  14.957 -0.5362  0.0685  0.7331
11347TIP3    H155456   2.075   4.725  14.884  0.8065 -0.6072  1.9505
11347TIP3    H255457   1.944   4.795  14.916 -0.3416 -1.2706 -0.9886
11348TIP3   OH255458   2.355   4.019   2.411 -0.0065 -0.1984 -0.4775
11348TIP3    H155459   2.389   3.934   2.440  0.2997  0.2592  0.5613
11348TIP3    H255460   2.354   4.013   2.316  2.0109 -0.6099 -0.5167
11349TIP3   OH255461   0.624   2.216  13.205  0.4260  0.3242 -0.4925
11349TIP3    H155462   0.685   2.264  13.149  0.9927 -0.1058 -0.2601
11349TIP3    H255463   0.541   2.217  13.158  0.3021  1.8888 -0.3025
11350TIP3   OH255464   5.943   1.016  12.497 -0.1301  0.1845 -0.7987
11350TIP3    H155465   5.924   1.086  12.435 -1.1195  0.7425  0.1060
11350TIP3    H255466   6.032   1.035  12.529 -1.0139  2.0379  0.7011
11351TIP3   OH255467   2.022   6.180  16.658 -0.4059  0.0865 -0.6832
11351TIP3    H155468   1.932   6.186  16.692  0.3508  1.8727  1.2380
11351TIP3    H255469   2.072   6.144  16.732  0.4154 -1.4255 -1.9233
11352TIP3   OH255470   2.487   0.788  13.816  0.7298  0.3432 -0.0931
11352TIP3    H155471   2.486   0.745  13.731 -1.3557  1.0758 -0.5082
11352TIP3    H255472   2.565   0.755  13.859  0.4599 -2.0441 -1.2791
11353TIP3   OH255473   0.360   5.236  13.112  0.0189  0.0597 -0.4165
11353TIP3    H155474   0.400   5.316  13.078 -1.1937  0.1233 -1.7776
11353TIP3    H255475   0.402   5.223  13.197  1.3787  1.2592 -0.8595
11354TIP3   OH255476   4.725   2.029  16.012 -0.3343 -0.7961  0.0631
11354TIP3    H155477   4.783   2.023  16.087 -0.3993 -0.8779  0.1069
11354TIP3    H255478   4.703   2.122  16.007  1.0958 -0.4731 -0.9321
11355TIP3   OH255479   0.719   3.999   2.546 -0.0998 -0.1769 -0.1587
11355TIP3    H155480   0.637   4.042   2.519 -0.2032  0.0050  0.4464
11355TIP3    H255481   0.752   3.958   2.465  1.1157  2.7963 -1.2943
11356TIP3   OH255482   0.358   2.403   1.529  0.4012  0.0749 -0.6209
11356TIP3    H155483   0.409   2.415   1.449  0.6695  0.7950 -0.3537
11356TIP3    H255484   0.355   2.309   1.542  1.3251  0.0048 -0.8567
11357TIP3   OH255485   5.894   0.308  15.474 -0.0330  0.4370 -0.0486
11357TIP3    H155486   5.943   0.351  15.403 -0.7910 -1.8723 -2.1266
11357TIP3    H255487   5.822   0.368  15.494 -0.8869  0.4020 -2.6294
11358TIP3   OH255488   3.358   0.978   3.250  0.0337  0.5323 -0.5397
11358TIP3    H155489   3.400   1.046   3.302 -0.6977  1.5502 -1.2426
11358TIP3    H255490   3.420   0.962   3.178  0.0853  0.6250 -0.5157
11359TIP3   OH255491   3.829   0.795  12.974 -0.1424  0.8009  0.4508
11359TIP3    H155492   3.774   0.718  12.985  1.0145  0.1760  2.1227
11359TIP3    H255493   3.907   0.764  12.928 -0.8722  1.5781 -1.4255
11360TIP3   OH255494   2.299   1.271  11.263 -0.3722  0.0617  0.4640
11360TIP3    H155495   2.290   1.182  11.230 -0.8492  0.2427  0.1094
11360TIP3    H255496   2.351   1.316  11.196 -0.5452  0.1805  0.4104
11361TIP3   OH255497   1.682   6.395   5.913  0.3590 -0.0902  0.3369
11361TIP3    H155498   1.649   6.308   5.887 -0.0254 -0.4452  1.9173
11361TIP3    H255499   1.777   6.388   5.905  0.3747 -0.8793  1.0164
11362TIP3   OH255500   2.386   2.962  11.509  0.1821 -0.1576 -0.0616
11362TIP3    H155501   2.303   2.921  11.532  0.1534  0.4845  1.0524
11362TIP3    H255502   2.409   2.923  11.424 -0.2932 -1.7627  0.5005
11363TIP3   OH255503   1.040   5.079  14.783 -0.1403 -0.1713  0.1820
11363TIP3    H155504   1.101   5.005  14.790 -0.3189 -0.3332  0.0140
11363TIP3    H255505   0.997   5.067  14.699 -0.4829 -0.1167  0.3468
11364TIP3   OH255506   2.049   3.367  16.751 -0.3864 -0.8247 -0.5345
11364TIP3    H155507   2.063   3.291  16.807 -0.5765 -0.5392 -0.0903
11364TIP3    H255508   2.074   3.442  16.805 -1.2259 -0.4941 -0.5885
11365TIP3   OH255509   1.604   0.910  13.952  0.3921 -0.1660 -0.2577
11365TIP3    H155510   1.525   0.939  13.996  0.5384 -1.1543  0.7093
11365TIP3    H255511   1.580   0.904  13.860 -0.3258  0.6020 -0.1300
11366TIP3   OH255512   3.841   6.482  13.443 -0.5427  0.5339  0.5555
11366TIP3    H155513   3.767   6.499  13.501 -0.3352 -1.7854  1.6451
11366TIP3    H255514   3.825   6.393  13.409  1.7489 -0.0775  0.8989
11367TIP3   OH255515   0.715   4.383   1.100  0.5119 -0.2015 -0.1510
11367TIP3    H155516   0.709   4.399   1.006  1.5415 -2.5590 -0.6853
11367TIP3    H255517   0.627   4.403   1.133  0.5014  2.0284 -1.3116
11368TIP3   OH255518   0.432   2.731  14.833  0.0349 -0.1878  0.0043
11368TIP3    H155519   0.408   2.672  14.906  0.8318 -0.5086  0.0230
11368TIP3    H255520   0.527   2.722  14.827  0.1565  1.0641 -0.0420
11369TIP3   OH255521   6.423   6.170  17.004  0.0298  0.2574 -0.6936
11369TIP3    H155522   6.330   6.165  16.985  0.3191 -0.3438 -2.1128
11369TIP3    H255523   6.443   6.264  17.003 -0.6441  0.4236  0.1784
11370TIP3   OH255524   1.504   0.134  14.368 -0.4674  0.3973 -0.5509
11370TIP3    H155525   1.573   0.146  14.302  0.2938 -1.5586 -0.1817
11370TIP3    H255526   1.449   0.212  14.359  0.8004  1.1898 -2.0485
11371TIP3   OH255527   2.641   5.764  12.644 -0.5661 -0.3983 -0.4017
11371TIP3    H155528   2.646   5.802  12.556  0.7532 -1.4957 -0.8535
11371TIP3    H255529   2.726   5.721  12.656 -1.4565 -1.9740  0.6076
11372TIP3   OH255530   0.037   2.215   2.936  0.3190 -0.0858 -0.0169
11372TIP3    H155531  -0.028   2.285   2.944  0.2561 -0.3426  2.5617
11372TIP3    H255532   0.104   2.251   2.879  0.0012  1.8858  0.7669
11373TIP3   OH255533   5.682   2.909   4.377  0.3224 -0.2346 -0.0405
11373TIP3    H155534   5.757   2.853   4.395  0.7938  0.3476 -0.1788
11373TIP3    H255535   5.686   2.977   4.444 -0.7266 -0.8162  0.6502
11374TIP3   OH255536   6.001   2.663  14.058 -0.1926  0.0761  0.3067
11374TIP3    H155537   6.019   2.728  13.991  1.5450  0.1889  0.8403
11374TIP3    H255538   5.918   2.690  14.097 -0.7925  0.4787 -1.2053
11375TIP3   OH255539   0.283   1.870   0.999 -0.1937 -0.7215 -0.2647
11375TIP3    H155540   0.353   1.873   0.933  0.3211  2.9591  0.2195
11375TIP3    H255541   0.321   1.822   1.072  1.0599 -0.6524 -0.8354
11376TIP3   OH255542   5.858   4.264   2.138 -0.2645  0.2376  0.2424
11376TIP3    H155543   5.819   4.178   2.125 -1.2624  0.8090 -0.6949
11376TIP3    H255544   5.950   4.254   2.111 -0.1216 -0.7456  1.0400
11377TIP3   OH255545   6.508   1.306  12.892 -0.5480  0.4588 -0.0156
11377TIP3    H155546   6.478   1.219  12.917  1.7453 -0.6894 -0.9962
11377TIP3    H255547   6.485   1.314  12.799  0.0709  0.5212 -0.1658
11378TIP3   OH255548   0.317   2.735  14.500 -0.0820 -0.0991  0.0344
11378TIP3    H155549   0.396   2.770  14.458  0.0534 -0.4475 -0.0088
11378TIP3    H255550   0.318   2.772  14.588 -0.7715  1.2500 -0.4936
11379TIP3   OH255551   4.723   5.025  13.833  0.0449  0.1460  0.0377
11379TIP3    H155552   4.677   5.074  13.765  0.9663 -0.8620 -1.3573
11379TIP3    H255553   4.801   5.078  13.851  0.0552  0.1574 -0.0400
11380TIP3   OH255554   2.049   4.717   3.800 -0.3476 -0.5769  0.0560
11380TIP3    H155555   2.007   4.632   3.798 -0.9005 -0.4251  2.4124
11380TIP3    H255556   2.026   4.754   3.885  1.4763  1.1098 -0.0952
11381TIP3   OH255557   3.759   5.645  10.477 -0.2076  0.3997 -0.1023
11381TIP3    H155558   3.827   5.704  10.444 -0.8353  1.9047  1.1683
11381TIP3    H255559   3.696   5.702  10.520 -3.5449 -0.6574 -3.1531
11382TIP3   OH255560   0.364   1.483  15.758  0.5301 -0.3430 -0.1267
11382TIP3    H155561   0.326   1.571  15.747  0.2499 -0.6984 -2.6513
11382TIP3    H255562   0.311   1.443  15.827 -0.0216  1.1201  0.3387
11383TIP3   OH255563   1.037   3.623   4.174 -0.5525 -0.4265  1.1218
11383TIP3    H155564   1.117   3.574   4.153 -0.3150  0.2465  0.4098
11383TIP3    H255565   0.970   3.580   4.121 -0.2627  0.2571  0.1732
11384TIP3   OH255566   5.245   6.320  13.714  0.1341  0.0862 -0.3616
11384TIP3    H155567   5.256   6.378  13.638  1.6560  0.1850 -0.1068
11384TIP3    H255568   5.254   6.377  13.790  0.0699 -0.2393 -0.1063
11385TIP3   OH255569   5.723   4.168   2.999  0.0444  0.6192 -0.0739
11385TIP3    H155570   5.651   4.202   3.052 -2.6892 -3.2407 -0.8688
11385TIP3    H255571   5.764   4.100   3.053  0.1559 -0.2559 -1.2053
11386TIP3   OH255572   2.516   0.363  17.022  0.3238 -0.1362  0.2413
11386TIP3    H155573   2.447   0.300  17.003  0.1725  0.1371 -0.1230
11386TIP3    H255574   2.578   0.314  17.076  0.3685 -0.7002 -0.2962
11387TIP3   OH255575   3.116   3.102   5.527 -0.4751  0.2131 -0.0333
11387TIP3    H155576   3.084   3.053   5.603  0.7507 -0.8381 -0.1687
11387TIP3    H255577   3.182   3.162   5.563 -1.2129  1.0500 -0.0260
11388TIP3   OH255578   2.451   5.478   2.065 -0.0160 -0.5046 -0.4954
11388TIP3    H155579   2.450   5.567   2.100 -0.5835 -0.8392  0.3805
11388TIP3    H255580   2.540   5.466   2.032  0.9526 -0.5434  1.8826
11389TIP3   OH255581   4.554   3.151   4.401 -0.2460  0.0604  0.1028
11389TIP3    H155582   4.559   3.095   4.324 -0.5251  0.4128 -0.1730
11389TIP3    H255583   4.578   3.093   4.474 -2.3710 -0.9382  0.0773
11390TIP3   OH255584   0.575   5.869   3.753 -0.1723 -0.3400  0.2951
11390TIP3    H155585   0.557   5.857   3.846 -0.3998  0.1161  0.3132
11390TIP3    H255586   0.631   5.947   3.749  0.5460 -0.8530  0.1165
11391TIP3   OH255587   4.099   4.788   4.242  0.6934 -0.3138  0.4639
11391TIP3    H155588   4.132   4.877   4.235 -1.3316  0.4228 -0.3686
11391TIP3    H255589   4.161   4.736   4.190  0.5446  1.0231 -1.1315
11392TIP3   OH255590   5.544   5.769  15.610 -0.1703 -0.3753 -0.0367
11392TIP3    H155591   5.476   5.706  15.633  1.7261 -1.8243  1.9625
11392TIP3    H255592   5.626   5.723  15.624  1.3077  1.8088 -0.8419
11393TIP3   OH255593   4.257   2.058   1.211  0.0188  0.0123 -0.2709
11393TIP3    H155594   4.310   2.014   1.143 -0.5350 -2.6084  0.8794
11393TIP3    H255595   4.169   2.061   1.174  0.1928  0.9353 -0.6515
11394TIP3   OH255596   5.882   3.112  15.669  0.1634 -0.3382  0.1440
11394TIP3    H155597   5.970   3.142  15.692  0.8173 -0.8388 -1.5089
11394TIP3    H255598   5.891   3.077  15.580 -1.6721 -0.5844  0.0020
11395TIP3   OH255599   5.443   5.494  12.103  0.5519  0.0804 -0.5000
11395TIP3    H155600   5.377   5.518  12.038  0.6999  0.0095 -0.6770
11395TIP3    H255601   5.504   5.438  12.055  1.2247  0.8589 -0.5621
11396TIP3   OH255602   5.666   1.955  15.777  0.3498 -0.7075 -0.2423
11396TIP3    H155603   5.582   1.978  15.817  1.4048  1.9029  0.6699
11396TIP3    H255604   5.660   1.991  15.688  0.2310 -1.2111 -0.4418
11397TIP3   OH255605   5.416   3.246   4.450 -0.4339  0.1722  0.1468
11397TIP3    H155606   5.359   3.182   4.494  0.6187 -0.8342  0.0958
11397TIP3    H255607   5.456   3.295   4.521 -0.2011 -0.1624  0.2527
11398TIP3   OH255608   0.211   4.037  14.969 -0.1879 -0.4300 -0.3924
11398TIP3    H155609   0.187   4.061  14.879 -0.6102 -1.5107 -0.5758
11398TIP3    H255610   0.262   3.956  14.960 -1.4597 -1.3549  0.4317
11399TIP3   OH255611   2.069   0.224   6.179  0.1351 -0.4180  0.3715
11399TIP3    H155612   1.997   0.252   6.122  0.9773  2.2133  0.4635
11399TIP3    H255613   2.027   0.205   6.262 -0.6038  0.1087  0.1334
11400TIP3   OH255614   5.469   6.438  16.066  0.2530  0.0605 -0.6679
11400TIP3    H155615   5.472   6.506  15.998  1.3055  0.1019 -0.5959
11400TIP3    H255616   5.446   6.358  16.020 -2.1115  0.6102 -0.6034
11401TIP3   OH255617   0.523   3.684   0.603 -0.1243 -0.2273  0.3413
11401TIP3    H155618   0.525   3.589   0.619  0.5052 -0.0577  1.3545
11401TIP3    H255619   0.502   3.722   0.688 -0.1753  0.5590 -0.0187
11402TIP3   OH255620   0.619   5.468   4.266  0.3651 -0.2178  0.0680
11402TIP3    H155621   0.569   5.386   4.256 -0.7499  0.6212 -1.6325
11402TIP3    H255622   0.552   5.535   4.279  1.2473  0.5216  0.9719
11403TIP3   OH255623   5.596   1.221  12.274  0.3662  0.2211 -0.2818
11403TIP3    H155624   5.525   1.232  12.211 -0.6248  0.3168  0.8082
11403TIP3    H255625   5.595   1.128  12.295 -3.0112  0.8258  3.5863
11404TIP3   OH255626   4.500   3.377   3.633 -0.0369  0.2224 -0.5453
11404TIP3    H155627   4.476   3.437   3.703  0.8471 -0.8704  0.7503
11404TIP3    H255628   4.438   3.395   3.562 -0.8426  1.4697  0.4535
11405TIP3   OH255629   1.156   6.177   5.533  0.0680 -0.8739  0.5960
11405TIP3    H155630   1.193   6.099   5.491  2.6888 -0.3899  1.7990
11405TIP3    H255631   1.195   6.177   5.620 -0.0435  1.6593  0.6934
11406TIP3   OH255632   4.772   1.412   1.732  0.1330  0.3819 -0.5217
11406TIP3    H155633   4.794   1.464   1.655 -1.1056 -2.8751 -3.3309
11406TIP3    H255634   4.696   1.361   1.705 -1.4103  0.2090  3.5133
11407TIP3   OH255635   5.712   6.206   3.075 -0.1501 -0.0827 -0.0104
11407TIP3    H155636   5.681   6.167   3.156 -0.5751  0.2450 -0.0145
11407TIP3    H255637   5.650   6.176   3.008 -0.9312  1.2141  0.1161
11408TIP3   OH255638   2.833   2.725   3.268  0.0782 -0.1166 -0.2958
11408TIP3    H155639   2.769   2.744   3.337  2.0077  0.9360  1.3089
11408TIP3    H255640   2.879   2.647   3.299  0.6320  0.0694 -0.6321
11409TIP3   OH255641   3.148   6.718  16.698  0.4170 -0.0049 -0.0659
11409TIP3    H155642   3.187   6.660  16.764  0.9295  1.0695  0.6094
11409TIP3    H255643   3.177   6.806  16.723  1.2669  0.3758 -2.1961
11410TIP3   OH255644   0.716   2.990   4.481  0.3636 -0.0658  0.1536
11410TIP3    H155645   0.623   2.969   4.488  0.1630  0.4689 -0.6944
11410TIP3    H255646   0.724   3.076   4.522  0.5855 -0.3406  0.6958
11411TIP3   OH255647   1.883   5.096  16.724 -0.5445 -0.3541 -0.2997
11411TIP3    H155648   1.801   5.138  16.749  0.3435  1.2058  0.1153
11411TIP3    H255649   1.863   5.049  16.643 -2.1960 -1.2361  0.5774
11412TIP3   OH255650   1.275   6.757   5.936 -0.0230 -0.1995 -0.1539
11412TIP3    H155651   1.259   6.795   5.850  0.6122 -0.4719 -0.3914
11412TIP3    H255652   1.203   6.695   5.948 -0.6431  0.5161 -0.0825
11413TIP3   OH255653   2.438   0.474   0.069  0.0256  0.6454 -0.1626
11413TIP3    H155654   2.517   0.437   0.108  1.2657  2.6986 -0.6168
11413TIP3    H255655   2.373   0.470   0.140  0.5957 -0.7534  0.3207
11414TIP3   OH255656   2.487   5.113   1.860 -0.3238 -0.1417 -0.1248
11414TIP3    H155657   2.468   5.137   1.951  3.2960 -0.3077  0.8352
11414TIP3    H255658   2.539   5.186   1.827 -2.6144  0.5113 -2.6035
11415TIP3   OH255659   0.062   3.730   4.232  0.1855 -0.3215 -0.0588
11415TIP3    H155660  -0.002   3.735   4.303  2.2209  0.4001  1.8195
11415TIP3    H255661   0.009   3.728   4.152 -2.1999  2.8983  1.2176
11416TIP3   OH255662   0.780   5.568   1.619 -0.0547  0.1048 -0.3673
11416TIP3    H155663   0.819   5.527   1.542  1.2255  1.0813 -0.2848
11416TIP3    H255664   0.779   5.500   1.686 -1.7380 -0.9302 -1.3877
11417TIP3   OH255665   1.773   4.768  16.394 -0.1407 -0.0492  0.2152
11417TIP3    H155666   1.791   4.860  16.415 -1.1059 -0.1502  1.5262
11417TIP3    H255667   1.680   4.766  16.374 -0.0071 -0.6594 -0.3757
11418TIP3   OH255668   4.707   1.491  14.819 -0.4644 -0.0707 -0.2218
11418TIP3    H155669   4.695   1.480  14.913 -2.8785  0.7260 -0.3727
11418TIP3    H255670   4.676   1.579  14.801  0.2455 -0.0934 -1.7579
11419TIP3   OH255671   1.105   0.311   0.930 -0.2941 -0.1378 -0.3594
11419TIP3    H155672   1.200   0.325   0.933 -0.0325 -1.6454 -0.9820
11419TIP3    H255673   1.069   0.386   0.978  1.3650 -1.1907  2.8111
11420TIP3   OH255674   3.606   5.324  15.059  0.5018  0.1308 -0.2808
11420TIP3    H155675   3.550   5.330  15.136  2.4846  1.4527  1.1795
11420TIP3    H255676   3.675   5.262  15.084  1.0133  0.3574 -1.0773
11421TIP3   OH255677   5.407   3.065  15.629  0.2230  0.1943 -0.0451
11421TIP3    H155678   5.360   3.006  15.688 -0.7501  0.8792 -0.1013
11421TIP3    H255679   5.499   3.058  15.655 -0.2715  1.1752  2.2209
11422TIP3   OH255680   3.240   2.790   3.466 -0.3470 -0.0056 -0.1969
11422TIP3    H155681   3.296   2.742   3.406 -1.4622 -0.9321 -0.5377
11422TIP3    H255682   3.177   2.835   3.409 -0.2827  0.5794  0.1918
11423TIP3   OH255683   5.057   4.862  15.935  0.2743 -0.0105 -0.1325
11423TIP3    H155684   5.145   4.866  15.973  0.3000 -0.9786 -0.0539
11423TIP3    H255685   5.058   4.782  15.882 -0.8818 -0.5993  0.7002
11424TIP3   OH255686   6.503   5.459  17.358 -0.2423  0.0838  0.3077
11424TIP3    H155687   6.582   5.494  17.317  0.7382  0.7706  2.6103
11424TIP3    H255688   6.527   5.370  17.385 -0.4807  0.0435  0.3916
11425TIP3   OH255689   6.216   5.515   3.752  1.0252 -0.0877 -0.3550
11425TIP3    H155690   6.285   5.539   3.690  2.3282 -0.4548  0.8881
11425TIP3    H255691   6.173   5.440   3.712  2.5659 -1.0166 -0.3271
11426TIP3   OH255692   1.514   2.154  13.016  0.2221  0.2926 -0.1474
11426TIP3    H155693   1.471   2.136  12.933  2.1518  0.2720 -1.2121
11426TIP3    H255694   1.459   2.220  13.058 -0.6342  0.5357 -1.5837
11427TIP3   OH255695   0.753   4.369  14.894  0.6529 -0.1758 -0.1286
11427TIP3    H155696   0.835   4.325  14.916  0.3438 -0.4621  0.4589
11427TIP3    H255697   0.708   4.382  14.977 -0.1637 -0.5438 -0.4919
11428TIP3   OH255698   6.253   4.541   4.697  0.3794  1.0412 -0.0088
11428TIP3    H155699   6.326   4.587   4.656  0.2382  1.4481  0.1864
11428TIP3    H255700   6.175   4.583   4.660  0.1861 -0.9102 -1.9778
11429TIP3   OH255701   3.847   3.151  15.203 -0.2511 -0.5807 -0.7444
11429TIP3    H155702   3.878   3.085  15.264  0.8619  1.2371  0.7403
11429TIP3    H255703   3.902   3.140  15.126  1.1270 -0.2604  0.1678
11430TIP3   OH255704   4.890   3.940   1.903  0.1133 -1.2952  0.2093
11430TIP3    H155705   4.882   3.947   1.998  4.1501  1.0886  0.6276
11430TIP3    H255706   4.892   3.846   1.886 -0.9117 -1.7867  2.4235
11431TIP3   OH255707   4.905   5.263   3.556  0.8619 -0.5404  0.4953
11431TIP3    H155708   4.810   5.267   3.567  0.8922 -0.0654  0.6122
11431TIP3    H255709   4.922   5.173   3.528  0.1834 -0.1266 -1.4023
11432TIP3   OH255710   1.591   5.588   3.085 -0.0650  0.0557 -0.4440
11432TIP3    H155711   1.687   5.590   3.079 -0.0539  0.6070 -0.1993
11432TIP3    H255712   1.563   5.528   3.016  0.5321 -1.2202  0.3988
11433TIP3   OH255713   2.953   2.925  14.964 -0.3303  0.0881  0.4808
11433TIP3    H155714   2.951   2.914  15.059  1.0093 -1.2743  0.3955
11433TIP3    H255715   2.897   3.000  14.947 -0.8553  0.1565  2.3179
11434TIP3   OH255716   0.256   5.533   0.791  0.1661 -0.2118  0.2484
11434TIP3    H155717   0.201   5.466   0.753  0.9983 -0.4906 -0.5144
11434TIP3    H255718   0.198   5.608   0.806 -0.3726 -0.4458 -0.6709
11435TIP3   OH255719   5.206   2.456  10.793  0.1251 -0.0511 -0.1458
11435TIP3    H155720   5.129   2.506  10.819  1.5516  1.4847  1.4074
11435TIP3    H255721   5.230   2.492  10.707  0.1415  0.7749  0.1915
11436TIP3   OH255722   4.435   4.838   4.201  0.7199  0.4287 -0.2888
11436TIP3    H155723   4.443   4.913   4.142 -1.5638  1.8103  1.0256
11436TIP3    H255724   4.474   4.868   4.283 -0.7296  0.4400  0.4268
11437TIP3   OH255725   1.779   6.702  15.991 -0.0442 -0.0521  0.5388
11437TIP3    H155726   1.825   6.778  16.027  1.6999  0.8754 -3.1726
11437TIP3    H255727   1.726   6.738  15.920 -0.7816 -2.0739 -0.0053
11438TIP3   OH255728   4.756   0.870   4.287  0.4004  0.6259  0.1722
11438TIP3    H155729   4.706   0.942   4.249 -0.1905  0.4933  0.6787
11438TIP3    H255730   4.697   0.831   4.351  0.4093 -0.8155 -0.6561
11439TIP3   OH255731   0.941   4.702   3.524  0.6677  0.4985 -0.4728
11439TIP3    H155732   0.858   4.705   3.476  0.2008 -1.1138  0.1619
11439TIP3    H255733   1.004   4.745   3.467 -0.5571  1.5622 -1.0608
11440TIP3   OH255734   3.831   6.736   3.313  0.4646 -0.3785  0.1341
11440TIP3    H155735   3.822   6.734   3.217  0.3301  0.0099  0.1374
11440TIP3    H255736   3.857   6.647   3.336  0.5884 -0.4515 -0.2743
11441TIP3   OH255737   2.107   1.800   5.188 -0.4803  0.2908  0.1452
11441TIP3    H155738   2.142   1.869   5.244 -1.0838  1.5362 -0.9467
11441TIP3    H255739   2.049   1.750   5.245 -0.8228  1.3174  0.7370
11442TIP3   OH255740   0.249   5.562   5.082 -0.3101 -0.2428 -0.1156
11442TIP3    H155741   0.274   5.603   4.998 -1.5515  1.2876  0.2204
11442TIP3    H255742   0.186   5.495   5.057  1.4490 -1.8024 -0.6354
11443TIP3   OH255743   5.051   5.393  17.022  0.4510  0.8783 -0.2021
11443TIP3    H155744   4.984   5.342  16.976 -0.2359  0.9779  0.6618
11443TIP3    H255745   5.060   5.473  16.970  0.1936  0.6836 -0.5528
11444TIP3   OH255746   4.346   0.890   4.260  0.0424 -0.2559 -0.4488
11444TIP3    H155747   4.275   0.827   4.268  0.0002 -0.3443 -1.3625
11444TIP3    H255748   4.412   0.861   4.323 -0.0965 -1.0596 -0.6618
11445TIP3   OH255749   6.749   5.673  11.918  0.0724 -0.4226 -0.3680
11445TIP3    H155750   6.661   5.711  11.925  0.4935  0.6307 -0.5946
11445TIP3    H255751   6.799   5.737  11.867  1.4164 -0.2349  1.1216
11446TIP3   OH255752   2.855   5.551   0.473  0.1505  0.1545 -0.2387
11446TIP3    H155753   2.939   5.555   0.427 -0.7087 -2.5699 -2.2983
11446TIP3    H255754   2.790   5.574   0.407 -0.8415  1.3224  1.0873
11447TIP3   OH255755   1.393   3.168  12.263 -0.0091 -0.6353  0.0257
11447TIP3    H155756   1.443   3.203  12.337 -1.0535 -0.9140  0.8735
11447TIP3    H255757   1.424   3.219  12.188 -0.1246  0.8121  0.9188
11448TIP3   OH255758   2.991   2.231   5.584 -0.2077  0.2784 -0.0312
11448TIP3    H155759   2.973   2.323   5.605 -0.9684 -0.0282  0.7046
11448TIP3    H255760   3.080   2.216   5.615 -1.3984 -0.2680  3.5522
11449TIP3   OH255761   6.304   3.369  15.539 -0.4936  0.1285 -0.4957
11449TIP3    H155762   6.391   3.407  15.553  0.0860 -0.8627 -1.2534
11449TIP3    H255763   6.257   3.436  15.489 -0.3189  0.8446  0.2680
11450TIP3   OH255764   2.528   5.905  12.840  0.0953 -0.0189  0.3958
11450TIP3    H155765   2.559   5.886  12.928  1.7596 -0.9883 -0.3476
11450TIP3    H255766   2.568   5.837  12.785 -1.1926  0.3346 -1.0638
11451TIP3   OH255767   1.180   6.123  12.696  0.3338  0.1661  0.0430
11451TIP3    H155768   1.122   6.048  12.696 -1.5968  1.5673  1.1775
11451TIP3    H255769   1.246   6.102  12.762  1.1549 -1.4124 -1.2163
11452TIP3   OH255770   0.660   4.597  14.187 -0.2085  0.0938  0.4460
11452TIP3    H155771   0.626   4.667  14.242 -0.6734 -0.6187  1.0994
11452TIP3    H255772   0.594   4.528  14.193  0.7483 -0.8370  0.7363
11453TIP3   OH255773   2.012   0.781   2.342 -0.1418  0.4064 -0.2058
11453TIP3    H155774   2.082   0.811   2.400 -1.4013  1.0938  0.9926
11453TIP3    H255775   2.048   0.793   2.254  0.7405  2.0988  0.3443
11454TIP3   OH255776   4.108   5.273  13.580  0.0594  0.0070  0.3685
11454TIP3    H155777   4.194   5.284  13.620  0.2247 -0.0101  0.0194
11454TIP3    H255778   4.126   5.231  13.496 -0.2961 -0.0558  0.3230
11455TIP3   OH255779   5.588   0.967  12.438 -0.6328 -0.5291 -0.3643
11455TIP3    H155780   5.652   0.901  12.465  0.7856  1.5662  1.7009
11455TIP3    H255781   5.519   0.962  12.504 -0.7894 -0.2879 -0.5093
11456TIP3   OH255782   4.977   2.349  11.818 -0.1319  0.3349  0.0503
11456TIP3    H155783   4.925   2.302  11.752  0.3047  0.1101 -0.1414
11456TIP3    H255784   4.920   2.419  11.848 -0.4221  0.2990 -0.4042
11457TIP3   OH255785   0.783   5.570   5.976 -0.2786 -0.0496  0.1351
11457TIP3    H155786   0.739   5.535   6.053  0.9217 -1.6154  0.1561
11457TIP3    H255787   0.852   5.626   6.011  0.9949 -1.6361  0.3066
11458TIP3   OH255788   4.750   3.152   5.364  0.1897 -0.1159 -0.9974
11458TIP3    H155789   4.776   3.061   5.380  1.8352 -0.0533 -2.8862
11458TIP3    H255790   4.667   3.145   5.316 -1.3889 -0.4552  1.6080
11459TIP3   OH255791   0.646   4.748   5.498 -0.9270 -0.2478  0.0605
11459TIP3    H155792   0.614   4.717   5.413  2.0439 -0.7424 -1.0069
11459TIP3    H255793   0.653   4.843   5.487 -2.4931 -0.0553  0.5256
11460TIP3   OH255794   2.336   0.241  13.693 -0.1668  0.5396  0.4835
11460TIP3    H155795   2.242   0.224  13.694 -0.0113 -0.4077  0.2602
11460TIP3    H255796   2.373   0.177  13.754  0.4225  0.2853 -0.1179
11461TIP3   OH255797   0.943   4.420   0.805 -0.3737 -0.4018 -0.8433
11461TIP3    H155798   0.977   4.462   0.726 -1.3629 -0.1136 -1.1281
11461TIP3    H255799   0.961   4.327   0.792  0.1919 -0.2694 -1.0376
11462TIP3   OH255800   4.944   0.754  15.915  0.0541  0.3351 -0.1368
11462TIP3    H155801   4.888   0.698  15.970 -1.3710  2.2225  0.4432
11462TIP3    H255802   4.882   0.812  15.871  1.0505 -1.4252 -4.3022
11463TIP3   OH255803   1.786   2.473  11.840 -0.0839  0.2153 -0.0207
11463TIP3    H155804   1.743   2.499  11.921 -0.7447 -1.5362  0.2387
11463TIP3    H255805   1.836   2.394  11.864  3.1557  2.0074 -0.3624
11464TIP3   OH255806   3.886   1.691   4.692  0.1082  0.4733 -0.0069
11464TIP3    H155807   3.833   1.621   4.653  1.0270  0.3164 -1.0313
11464TIP3    H255808   3.865   1.769   4.641 -0.3126  0.7713  0.6136
11465TIP3   OH255809   5.432   4.647  12.825 -0.0716 -0.4308 -0.4014
11465TIP3    H155810   5.356   4.682  12.778  0.2146  0.0645 -0.5075
11465TIP3    H255811   5.408   4.557  12.846 -1.2707  0.1442  0.8152
11466TIP3   OH255812   5.937   6.698   2.500  0.2168 -0.8149  0.2442
11466TIP3    H155813   5.976   6.771   2.548  1.1530  1.0925 -3.1106
11466TIP3    H255814   5.843   6.704   2.519  0.4278  0.4795  1.0044
11467TIP3   OH255815   0.760   1.284  16.008 -0.4324 -0.4582  0.2181
11467TIP3    H155816   0.771   1.346  15.936 -2.7487 -0.8382 -0.5427
11467TIP3    H255817   0.670   1.252  15.999 -0.1381 -2.0204  2.1122
11468TIP3   OH255818   1.046   5.116   0.822 -0.5979 -0.1317  0.1657
11468TIP3    H155819   1.096   5.196   0.836  1.2455 -1.0071 -1.0259
11468TIP3    H255820   1.012   5.123   0.733 -0.0546 -0.8225 -0.1112
11469TIP3   OH255821   5.770   2.188  12.305 -0.5677 -0.3645 -0.0175
11469TIP3    H155822   5.781   2.093  12.308  1.8741 -0.4124 -3.7307
11469TIP3    H255823   5.675   2.202  12.314 -0.8888 -2.9711  1.7060
11470TIP3   OH255824   1.339   2.943  11.295  0.1448  0.0172 -0.1224
11470TIP3    H155825   1.426   2.932  11.258  0.0659  1.5798 -0.8732
11470TIP3    H255826   1.310   2.854  11.316  3.1065 -0.3597  3.1191
11471TIP3   OH255827   2.205   5.971  10.316  0.1515 -0.0983  0.2665
11471TIP3    H155828   2.166   6.033  10.254 -2.0703 -2.3084 -0.7107
11471TIP3    H255829   2.141   5.965  10.386  0.7308 -0.6774  0.7513
11472TIP3   OH255830   0.350   2.729   1.193  0.1361  0.6928  0.1245
11472TIP3    H155831   0.412   2.733   1.120  1.6859 -0.7284  1.2847
11472TIP3    H255832   0.397   2.680   1.261 -2.4304 -0.8594  0.9019
11473TIP3   OH255833   1.830   0.287   0.848  0.0218 -0.1801 -0.0521
11473TIP3    H155834   1.893   0.215   0.849  0.1083 -0.1031  1.2173
11473TIP3    H255835   1.884   0.366   0.838 -0.1105 -0.2980 -1.9911
11474TIP3   OH255836   0.694   5.398  12.599 -0.2279 -0.4139 -0.2676
11474TIP3    H155837   0.625   5.431  12.541 -0.4602 -0.4272 -0.0008
11474TIP3    H255838   0.747   5.475  12.619  0.0740 -0.4775 -0.7919
11475TIP3   OH255839   4.481   3.162   2.475  0.8029 -0.0484  0.2010
11475TIP3    H155840   4.429   3.232   2.515 -1.6058 -1.3719 -0.4336
11475TIP3    H255841   4.542   3.207   2.418 -1.4032  1.5831 -1.0437
11476TIP3   OH255842   6.012   2.463   6.543  0.4897  0.0716  0.1011
11476TIP3    H155843   6.102   2.468   6.513  0.6733 -1.2036  0.3940
11476TIP3    H255844   6.012   2.394   6.609 -1.2133 -1.9964 -1.9011
11477TIP3   OH255845   2.106   6.061   0.866 -0.5249  0.2878  0.7018
11477TIP3    H155846   2.017   6.095   0.854 -0.2995 -0.0171 -2.7807
11477TIP3    H255847   2.102   5.970   0.836  1.6185  1.3426 -3.5250
11478TIP3   OH255848   3.687   2.747  14.649  0.1958 -0.0053  0.0519
11478TIP3    H155849   3.681   2.658  14.681 -0.7911 -0.4033 -1.1642
11478TIP3    H255850   3.781   2.764  14.642  0.4482 -0.1171  2.3964
11479TIP3   OH255851   5.054   3.102  11.569  0.3694 -0.2603 -0.3206
11479TIP3    H155852   4.996   3.134  11.501 -0.8367 -0.5937  0.5112
11479TIP3    H255853   5.131   3.069  11.522  0.5200  1.4664 -1.3439
11480TIP3   OH255854   2.384   6.469  12.299 -0.9452 -0.1356 -0.1650
11480TIP3    H155855   2.341   6.429  12.376 -0.4893 -1.7223 -0.7088
11480TIP3    H255856   2.378   6.402  12.231  3.7399 -1.1459  0.1395
11481TIP3   OH255857   6.112   1.326  12.809  0.9579  0.4327 -0.0312
11481TIP3    H155858   6.049   1.315  12.881  0.4319  1.8116 -0.2601
11481TIP3    H255859   6.057   1.341  12.732  1.5599  1.9625 -0.1802
11482TIP3   OH255860   2.238   3.300   4.448 -0.5066 -0.1176  0.2721
11482TIP3    H155861   2.280   3.219   4.479 -0.0086 -0.6996 -1.7443
11482TIP3    H255862   2.167   3.270   4.391  0.1311  0.8347 -1.0795
11483TIP3   OH255863   3.943   0.406   3.968  0.4855  0.0379 -0.2654
11483TIP3    H155864   3.897   0.331   4.003 -0.7717  0.9435  0.1071
11483TIP3    H255865   3.985   0.447   4.044 -1.4219  1.4363  0.1291
11484TIP3   OH255866   2.367   1.675  13.907  0.1820  0.0510 -0.3695
11484TIP3    H155867   2.276   1.701  13.918 -0.0069 -0.7867  0.1843
11484TIP3    H255868   2.376   1.656  13.814 -0.2783 -0.0893 -0.3865
11485TIP3   OH255869   5.164   1.781  13.864  0.2163 -0.4417  0.3131
11485TIP3    H155870   5.081   1.760  13.906  0.2656 -2.0974 -0.3276
11485TIP3    H255871   5.200   1.696  13.838  1.4471  0.3389 -0.6685
11486TIP3   OH255872   0.511   5.507   0.842 -0.3512  0.1542  0.0425
11486TIP3    H155873   0.536   5.451   0.915  0.3325 -0.3643 -0.5827
11486TIP3    H255874   0.417   5.491   0.831 -0.3457 -0.1777  0.4433
11487TIP3   OH255875   6.608   4.503   5.930  0.7575 -0.4030  0.0128
11487TIP3    H155876   6.558   4.559   5.871 -3.3778  0.6653  3.9631
11487TIP3    H255877   6.660   4.564   5.983 -0.0992 -0.6595  1.2023
11488TIP3   OH255878   5.557   4.899  12.863  0.3235  0.7768 -0.1184
11488TIP3    H155879   5.640   4.901  12.911 -0.9333  0.2449  2.2254
11488TIP3    H255880   5.522   4.811  12.878 -0.9573  1.1947 -0.5077
11489TIP3   OH255881   3.908   0.734   1.821  0.3507  0.2968 -0.9110
11489TIP3    H155882   3.937   0.804   1.879  0.5763 -0.1353 -0.4943
11489TIP3    H255883   3.812   0.739   1.823  0.3632  0.4198 -0.6733
11490TIP3   OH255884   4.018   1.175   4.542  0.1375  0.3747  0.0193
11490TIP3    H155885   3.994   1.236   4.473 -0.5620  0.2447  0.1339
11490TIP3    H255886   4.086   1.220   4.592 -0.6443  1.2399  0.3447
11491TIP3   OH255887   0.664   0.720  14.748 -0.0469  0.4965  0.3475
11491TIP3    H155888   0.756   0.706  14.771  0.1491  2.9975  1.5007
11491TIP3    H255889   0.647   0.811  14.774 -2.3605  0.6843 -1.5112
11492TIP3   OH255890   6.459   0.563  15.946  0.6083 -0.1910  0.2172
11492TIP3    H155891   6.380   0.614  15.929 -0.9197 -2.5578 -0.2088
11492TIP3    H255892   6.492   0.595  16.030 -0.3545  1.3481  0.0300
11493TIP3   OH255893   3.936   0.194   2.360  0.4537 -0.6778  0.1201
11493TIP3    H155894   4.011   0.139   2.382  1.1173 -1.6418 -3.7974
11493TIP3    H255895   3.888   0.145   2.293  0.2476  2.7385 -2.5646
11494TIP3   OH255896   5.561   0.782   1.782 -0.3481 -0.0364  0.2057
11494TIP3    H155897   5.473   0.781   1.819 -1.0171 -0.4696 -1.3023
11494TIP3    H255898   5.568   0.866   1.737  0.0976  0.0856  0.4951
11495TIP3   OH255899   0.326   4.415   5.616 -0.0695  0.0458  0.7400
11495TIP3    H155900   0.371   4.389   5.536 -2.8189 -0.2453 -0.8324
11495TIP3    H255901   0.265   4.484   5.589 -3.4998 -2.3080  1.7201
11496TIP3   OH255902   5.801   1.320  16.046 -0.3090 -0.4302 -0.0410
11496TIP3    H155903   5.849   1.374  15.984 -1.1590 -0.1726 -0.4899
11496TIP3    H255904   5.856   1.318  16.124  1.1829 -1.4328 -1.0584
11497TIP3   OH255905   5.590   6.585   0.830  0.9000 -0.0607  0.0169
11497TIP3    H155906   5.546   6.564   0.912  0.3994 -0.9072 -0.4623
11497TIP3    H255907   5.549   6.667   0.801 -1.6204 -1.6524 -1.2638
11498TIP3   OH255908   5.914   1.521   1.645 -0.2865  0.1290  0.1692
11498TIP3    H155909   5.999   1.486   1.671 -0.2681 -0.3428 -0.4863
11498TIP3    H255910   5.928   1.615   1.635  0.8168 -0.2016 -2.2565
11499TIP3   OH255911   3.555   4.480   4.948 -0.0535  0.2511 -0.2372
11499TIP3    H155912   3.476   4.521   4.985 -0.0605 -0.4367  0.5439
11499TIP3    H255913   3.627   4.536   4.977 -0.2714  1.0981 -1.2730
11500TIP3   OH255914   3.615   0.123   3.483 -0.0410  0.1011 -0.1667
11500TIP3    H155915   3.643   0.033   3.465 -2.0007 -0.5702 -0.0299
11500TIP3    H255916   3.665   0.176   3.420  1.6515 -0.9678  0.1990
11501TIP3   OH255917   6.513   0.367   0.059  0.0923  0.4113 -0.3045
11501TIP3    H155918   6.477   0.316   0.131  1.6424  1.2852  1.1538
11501TIP3    H255919   6.552   0.444   0.100  0.6932  1.1445 -2.1102
11502TIP3   OH255920   2.764   5.162  14.052 -0.6756  0.1945 -0.1437
11502TIP3    H155921   2.747   5.250  14.019 -0.6184  0.1411 -0.3168
11502TIP3    H255922   2.775   5.108  13.974  2.7487  0.6720 -0.1730
11503TIP3   OH255923   4.659   1.239  12.397  0.1904  0.0684 -0.6758
11503TIP3    H155924   4.652   1.145  12.382  2.8355  0.0391 -2.2911
11503TIP3    H255925   4.649   1.249  12.492  1.6830 -2.1057 -0.2099
11504TIP3   OH255926   4.357   0.762   4.743 -0.4076  0.3783  0.3161
11504TIP3    H155927   4.311   0.729   4.666 -2.2264 -0.5991  1.7543
11504TIP3    H255928   4.441   0.717   4.742 -0.6218 -0.0122 -0.7993
11505TIP3   OH255929   1.920   6.010   3.781  0.1752 -0.3421  0.1104
11505TIP3    H155930   1.837   6.035   3.739  0.2408  1.5993  1.0118
11505TIP3    H255931   1.893   5.973   3.865  0.2116 -0.2896  0.1446
11506TIP3   OH255932   5.832   0.412   1.621 -0.3414  0.3785  0.5420
11506TIP3    H155933   5.793   0.332   1.657  1.2325  0.0871  1.7083
11506TIP3    H255934   5.888   0.382   1.550  0.0717  0.4686  0.8286
11507TIP3   OH255935   6.457   0.688   5.179  0.0236 -0.0814 -0.0101
11507TIP3    H155936   6.384   0.715   5.235  0.6374  1.9018 -0.0906
11507TIP3    H255937   6.529   0.670   5.239 -0.0052 -0.2776 -0.0335
11508TIP3   OH255938   4.064   4.754   2.619  0.0931 -0.1362  0.2207
11508TIP3    H155939   4.133   4.780   2.680  0.6849 -0.5078 -0.2720
11508TIP3    H255940   4.106   4.690   2.561 -0.2184  0.7779 -1.0647
11509TIP3   OH255941   5.706   0.578  16.399 -0.2706 -0.0824  0.2366
11509TIP3    H155942   5.799   0.569  16.377 -0.4121 -0.7692 -0.0893
11509TIP3    H255943   5.667   0.494  16.377 -0.7208 -0.2905  1.6818
11510TIP3   OH255944   0.994   5.195  15.976 -0.2422 -0.3617 -0.2042
11510TIP3    H155945   0.923   5.172  16.036  0.0634 -1.0414 -0.0926
11510TIP3    H255946   1.031   5.275  16.011 -0.7314 -0.1950 -0.0651
11511TIP3   OH255947   6.568   3.275   3.037  0.8746 -0.1389  0.1452
11511TIP3    H155948   6.658   3.248   3.017  0.5377 -1.3285  0.1753
11511TIP3    H255949   6.546   3.228   3.117  0.1216 -0.1027 -0.0373
11512TIP3   OH255950   5.146   0.944  12.371  0.5369 -0.0473 -0.3935
11512TIP3    H155951   5.148   0.935  12.466  0.6210 -0.6719 -0.4489
11512TIP3    H255952   5.204   0.876  12.339 -0.2489 -0.4858 -0.9304
11513TIP3   OH255953   1.435   6.307   3.445 -0.3638 -0.6113 -0.7538
11513TIP3    H155954   1.419   6.248   3.519  0.8582  1.2516  1.0919
11513TIP3    H255955   1.348   6.332   3.415 -0.9301 -0.2495  1.0695
11514TIP3   OH255956   2.227   6.624   0.469 -0.0163 -0.7531 -0.2628
11514TIP3    H155957   2.245   6.675   0.390 -1.8929  0.5290  0.0650
11514TIP3    H255958   2.313   6.615   0.511  0.4168  2.4913 -0.1615
11515TIP3   OH255959   1.164   3.439  16.817  0.8030 -0.0640  0.1292
11515TIP3    H155960   1.110   3.434  16.738  0.7680 -1.6641  0.2184
11515TIP3    H255961   1.231   3.504  16.797 -0.6287  1.3293 -0.3026
11516TIP3   OH255962   6.240   4.982  13.766  0.0954  0.1995  0.1223
11516TIP3    H155963   6.162   4.931  13.786  0.3604 -0.4480 -0.4503
11516TIP3    H255964   6.299   4.920  13.724  1.6336  0.2324  2.0869
11517TIP3   OH255965   3.122   0.964  12.381 -0.5867 -0.1171 -0.5574
11517TIP3    H155966   3.111   0.869  12.371  3.6314 -0.9349  0.4952
11517TIP3    H255967   3.076   1.001  12.306 -1.1259 -3.1130 -1.8685
11518TIP3   OH255968   0.064   5.937  15.529 -0.5690  0.0044  0.6151
11518TIP3    H155969   0.060   5.872  15.599 -1.3027 -0.8145 -0.1580
11518TIP3    H255970   0.045   6.020  15.571 -1.0487 -0.4823  1.3712
11519TIP3   OH255971   1.880   1.746   2.837  0.4930  0.4263  0.0667
11519TIP3    H155972   1.877   1.816   2.773  0.1114 -1.3029 -1.9135
11519TIP3    H255973   1.969   1.711   2.830  0.2717 -0.1380  0.0558
11520TIP3   OH255974   6.174   3.903  12.227  0.2214  1.0661 -0.6719
11520TIP3    H155975   6.185   3.833  12.163 -1.1373  0.6609 -0.4950
11520TIP3    H255976   6.144   3.859  12.307  0.5317  1.7187 -0.1793
11521TIP3   OH255977   3.358   4.902   4.557 -0.3204 -0.3170 -0.2314
11521TIP3    H155978   3.449   4.929   4.548 -0.5190  0.8589  0.9855
11521TIP3    H255979   3.333   4.874   4.469  1.1704 -0.5521 -0.6050
11522TIP3   OH255980   6.185   6.749  16.968 -0.1595  0.1875  0.1172
11522TIP3    H155981   6.232   6.709  16.895 -1.0056 -2.0362  0.6949
11522TIP3    H255982   6.093   6.730  16.949 -0.4217 -0.0115  1.5329
11523TIP3   OH255983   1.032   4.954  13.328  0.3085  0.9106 -0.4580
11523TIP3    H155984   1.052   5.018  13.260 -1.3839  1.1900 -0.7199
11523TIP3    H255985   0.977   4.889  13.284  0.9505 -0.0539  0.1280
11524TIP3   OH255986   3.460   5.374   5.670  0.5154  0.3280  0.0757
11524TIP3    H155987   3.516   5.373   5.748  0.8184 -2.4790 -0.0707
11524TIP3    H255988   3.377   5.412   5.701  0.8452 -0.1123  1.6012
11525TIP3   OH255989   6.109   1.154   0.320 -0.0277 -0.2214 -0.5397
11525TIP3    H155990   6.196   1.137   0.356  0.1604 -0.7225 -1.2130
11525TIP3    H255991   6.049   1.113   0.383  0.1959  0.4672  0.1290
11526TIP3   OH255992   5.398   5.148  16.745 -0.3600 -0.5758  0.1606
11526TIP3    H155993   5.407   5.148  16.649  0.2271  0.6844  0.1875
11526TIP3    H255994   5.374   5.239  16.766 -0.0056 -0.7228  1.2479
11527TIP3   OH255995   4.209   1.357  13.720  0.3240 -0.6055 -0.3518
11527TIP3    H155996   4.231   1.313  13.802  0.8029 -0.9896 -0.6819
11527TIP3    H255997   4.153   1.430  13.746  0.6512 -0.5939  0.3412
11528TIP3   OH255998   6.606   4.089   3.785 -0.3187 -0.0729  0.0645
11528TIP3    H155999   6.550   4.069   3.710 -1.9209 -0.0116  1.1766
11528TIP3    H256000   6.654   4.008   3.801  0.6849  0.1650 -1.5012
11529TIP3   OH256001   5.390   6.401   5.916 -0.3840 -0.7936 -0.2739
11529TIP3    H156002   5.468   6.384   5.862  0.4260 -0.7681  0.8516
11529TIP3    H256003   5.365   6.490   5.894  0.7253 -0.3166  0.3354
11530TIP3   OH256004   3.015   3.279  16.541  0.5749 -0.9976  0.3118
11530TIP3    H156005   3.032   3.187  16.521  2.1529 -0.5885 -0.3573
11530TIP3    H256006   2.925   3.294  16.511  0.3238 -2.2983  0.3786
11531TIP3   OH256007   1.590   2.408   1.329 -0.1960 -0.2392  0.0477
11531TIP3    H156008   1.637   2.476   1.378 -1.1767  1.4369 -1.2332
11531TIP3    H256009   1.623   2.326   1.365  1.3855  0.8903  1.3423
11532TIP3   OH256010   1.651   5.780  16.235  0.1226  0.6554 -0.0570
11532TIP3    H156011   1.728   5.731  16.204 -0.4004 -0.6941  0.6832
11532TIP3    H256012   1.675   5.872  16.224  0.9309  0.2582 -2.0206
11533TIP3   OH256013   1.598   0.586  14.869 -0.8529  0.3750 -0.2160
11533TIP3    H156014   1.658   0.658  14.852 -0.8948  0.5258  0.2527
11533TIP3    H256015   1.650   0.524  14.920 -0.3521 -0.6324 -1.8860
11534TIP3   OH256016   4.373   6.631   4.341 -0.1013 -0.0245  0.5318
11534TIP3    H156017   4.299   6.586   4.299 -0.6224  0.4257  0.9457
11534TIP3    H256018   4.368   6.721   4.307 -0.7442  0.4403  1.7920
11535TIP3   OH256019   1.397   3.009   2.074 -0.1894  0.4115  0.2894
11535TIP3    H156020   1.314   2.961   2.069  0.1450 -0.0370 -2.3287
11535TIP3    H256021   1.374   3.098   2.049 -0.1231  0.6906  1.1791
11536TIP3   OH256022   4.810   0.093  12.178 -0.8707  0.1533 -0.2087
11536TIP3    H156023   4.821   0.007  12.137 -0.4838  0.1586 -0.1265
11536TIP3    H256024   4.724   0.090  12.220  0.3205 -1.2786  2.3370
11537TIP3   OH256025   4.198   5.992  12.387 -0.4189 -0.4146  0.0322
11537TIP3    H156026   4.127   5.936  12.354  0.7189 -0.1088 -3.3297
11537TIP3    H256027   4.207   6.060  12.321  1.1663  1.2159  1.8120
11538TIP3   OH256028   0.344   2.652  12.877  0.0953  0.3765  0.0151
11538TIP3    H156029   0.395   2.577  12.847 -1.0895 -0.6388  0.4612
11538TIP3    H256030   0.291   2.618  12.949  0.5938  2.0016  1.2170
11539TIP3   OH256031   1.775   2.606   1.240  0.4726  0.6358  0.1552
11539TIP3    H156032   1.704   2.661   1.206 -2.1582 -1.2341  2.2414
11539TIP3    H256033   1.751   2.517   1.213  1.6796 -0.1154  1.4360
11540TIP3   OH256034   5.171   3.843   2.572  0.5327 -0.1010  0.6521
11540TIP3    H156035   5.099   3.896   2.608  2.4475  2.0114  1.6595
11540TIP3    H256036   5.156   3.755   2.606 -1.7404  0.1721  0.5157
11541TIP3   OH256037   1.746   0.728  11.460 -0.1210  0.4665  0.1401
11541TIP3    H156038   1.703   0.811  11.438  0.0344  0.6861  0.6696
11541TIP3    H256039   1.753   0.682  11.376 -0.4483  0.8746 -0.1128
11542TIP3   OH256040   5.964   6.611  12.788  0.0777  0.0753 -0.0424
11542TIP3    H156041   6.019   6.609  12.710  0.3089  1.1345  0.0760
11542TIP3    H256042   5.986   6.531  12.835  2.1834  0.8755  0.4436
11543TIP3   OH256043   2.651   5.630  14.887 -0.5171 -0.1539  0.4107
11543TIP3    H156044   2.593   5.702  14.864 -1.3875 -1.0198 -0.1696
11543TIP3    H256045   2.673   5.588  14.804 -0.8145 -1.1441  0.8063
11544TIP3   OH256046   6.395   3.659  13.814 -0.5298  0.5871 -0.2456
11544TIP3    H156047   6.356   3.635  13.899 -0.8977  0.0494 -0.5596
11544TIP3    H256048   6.474   3.708  13.837 -0.4166  0.1110  0.4192
11545TIP3   OH256049   4.312   0.469   0.063 -0.0299 -0.3234 -0.1199
11545TIP3    H156050   4.343   0.379   0.059  0.5635 -0.1557  0.3596
11545TIP3    H256051   4.263   0.482  -0.017  1.6373 -0.4439 -1.2124
11546TIP3   OH256052   3.098   4.349  15.429  0.3681 -1.0190 -0.7936
11546TIP3    H156053   3.112   4.443  15.432 -1.1237 -0.7497  2.9333
11546TIP3    H256054   3.004   4.338  15.422  0.4711 -2.2022 -0.5896
11547TIP3   OH256055   1.714   1.868  14.780 -0.3211 -0.0316  0.2547
11547TIP3    H156056   1.725   1.813  14.702 -1.8322 -0.7081  0.4877
11547TIP3    H256057   1.673   1.948  14.748 -2.1831 -0.8470  0.4992
11548TIP3   OH256058   4.900   6.664  15.534  0.8399 -0.1596  0.5273
11548TIP3    H156059   4.878   6.758  15.533  2.2303  0.1841  0.8002
11548TIP3    H256060   4.906   6.642  15.627 -0.4361 -0.7819  0.4903
11549TIP3   OH256061   5.805   3.014   3.761  0.0089 -1.0063  0.2666
11549TIP3    H156062   5.745   3.086   3.780  0.0285 -0.7463 -0.6257
11549TIP3    H256063   5.799   3.002   3.666  1.5696 -0.7792  0.1105
11550TIP3   OH256064   1.808   5.694   1.640  0.2568  0.4717  0.1862
11550TIP3    H156065   1.769   5.707   1.727  1.7595  0.1744  0.9374
11550TIP3    H256066   1.842   5.780   1.616 -0.7818  0.7237 -0.4558
11551TIP3   OH256067   2.758   0.916   0.285 -0.5145  0.6513 -0.0542
11551TIP3    H156068   2.723   0.997   0.323 -0.7407 -0.0721  1.3375
11551TIP3    H256069   2.830   0.945   0.229  0.3182  1.7308  1.5038
11552TIP3   OH256070   3.368   6.581   1.178 -0.1337  0.3691  0.2254
11552TIP3    H156071   3.377   6.594   1.273 -1.0792 -1.3504  0.5896
11552TIP3    H256072   3.290   6.527   1.169 -0.0410  0.4851 -1.5532
11553TIP3   OH256073   4.300   4.355   0.576  0.2862  0.0056  0.1000
11553TIP3    H156074   4.239   4.288   0.608  0.3403 -0.1256 -0.0737
11553TIP3    H256075   4.297   4.347   0.481  0.3395  0.2090  0.0816
11554TIP3   OH256076   0.062   0.228   5.260  0.2307 -0.4861  0.0106
11554TIP3    H156077   0.082   0.227   5.354 -0.5548 -1.1246  0.1880
11554TIP3    H256078   0.017   0.311   5.247 -0.2611 -0.6904  0.3482
11555TIP3   OH256079   3.558   1.992  12.848  0.2551 -0.1865 -0.5028
11555TIP3    H156080   3.483   1.963  12.900  1.0175 -1.7479 -0.1888
11555TIP3    H256081   3.562   2.086  12.862 -0.3910 -0.3731  1.1869
11556TIP3   OH256082   5.095   4.756  11.627  0.5149  0.4080  0.4162
11556TIP3    H156083   5.163   4.775  11.563  0.6084  1.9236  0.9388
11556TIP3    H256084   5.135   4.774  11.712 -0.2420  0.3735  0.7914
11557TIP3   OH256085   1.629   1.987  16.425  0.5740  0.6492  0.7737
11557TIP3    H156086   1.639   2.082  16.420 -1.5240  0.8622 -2.4897
11557TIP3    H256087   1.535   1.972  16.420  0.9068 -1.5727 -0.8496
11558TIP3   OH256088   6.179   6.546  12.624  0.0413  0.2473  0.1270
11558TIP3    H156089   6.177   6.540  12.529 -0.2748 -4.0942  0.2377
11558TIP3    H256090   6.272   6.541  12.647  0.0437  0.1049  0.0843
11559TIP3   OH256091   4.474   1.002   5.174  0.4756  0.1737  0.1719
11559TIP3    H156092   4.452   1.094   5.157  1.1848  0.1902 -0.7502
11559TIP3    H256093   4.425   0.979   5.253 -3.5428 -0.0259 -2.0971
11560TIP3   OH256094   1.001   5.841   3.358 -0.2907 -0.3267 -0.1550
11560TIP3    H156095   1.023   5.921   3.309 -2.7719  1.3158  1.2027
11560TIP3    H256096   0.956   5.873   3.436 -2.8781 -3.0989 -0.3415
11561TIP3   OH256097   4.284   2.479  14.911  0.0755  0.1049  0.1757
11561TIP3    H156098   4.377   2.503  14.902  0.2818 -0.4678  0.6789
11561TIP3    H256099   4.284   2.413  14.981 -0.5151 -1.0292 -0.8623
11562TIP3   OH256100   0.955   6.371   5.546 -0.1708  0.1305  0.2774
11562TIP3    H156101   1.018   6.308   5.511  0.4888  0.9644 -0.0930
11562TIP3    H256102   0.875   6.321   5.559 -0.1254 -0.4474 -1.4331
11563TIP3   OH256103   1.112   0.179   5.287 -0.0049 -0.0699  0.2076
11563TIP3    H156104   1.122   0.101   5.342 -0.4051  1.5862  2.8312
11563TIP3    H256105   1.030   0.164   5.239 -1.7195 -0.1175  2.9230
11564TIP3   OH256106   3.005   4.959   0.093  0.3951  0.2596  0.6227
11564TIP3    H156107   2.943   4.901   0.138  1.6667 -0.7354  1.1862
11564TIP3    H256108   3.051   4.902   0.031  1.2059  0.8031  0.7032
11565TIP3   OH256109   0.878   4.968   0.292 -0.0160  0.6016  0.4698
11565TIP3    H156110   0.853   4.878   0.271 -0.8860  0.2275  2.8472
11565TIP3    H256111   0.962   4.981   0.247  0.0041 -1.2938 -0.1096
11566TIP3   OH256112   4.946   2.264   5.499 -0.4710 -0.3973 -0.3043
11566TIP3    H156113   4.891   2.191   5.526 -1.6447  0.3010 -0.7212
11566TIP3    H256114   4.907   2.295   5.417 -0.3638  1.0432  0.1534
11567TIP3   OH256115   3.175   1.816   3.464  0.4960  0.3378 -0.2727
11567TIP3    H156116   3.148   1.884   3.403  2.4545  0.0674 -1.5345
11567TIP3    H256117   3.094   1.788   3.507 -0.7131  1.5967 -1.6429
11568TIP3   OH256118   3.897   5.920  16.936 -0.3747 -0.0038 -0.4580
11568TIP3    H156119   3.898   5.994  16.876 -3.9078 -0.2438 -1.0140
11568TIP3    H256120   3.811   5.923  16.978  1.0696 -1.1560  3.0315
11569TIP3   OH256121   3.173   3.709  13.949  0.0779  0.4148 -0.1912
11569TIP3    H156122   3.201   3.630  13.997 -1.1562 -1.3245 -2.1465
11569TIP3    H256123   3.243   3.725  13.886  0.0196  0.4520 -0.2471
11570TIP3   OH256124   0.477   5.024   4.355 -0.3431  0.1538 -0.5687
11570TIP3    H156125   0.535   4.990   4.287  0.6101  0.0811  0.2577
11570TIP3    H256126   0.470   5.118   4.335 -0.7373 -0.0067 -1.2319
11571TIP3   OH256127   6.548   5.398  16.883 -0.8141  0.4380 -0.0862
11571TIP3    H156128   6.639   5.371  16.900 -0.3478  1.6251 -0.5447
11571TIP3    H256129   6.549   5.493  16.896 -1.5859  0.7044 -1.7392
11572TIP3   OH256130   2.051   1.818   1.012  0.5203  0.0282  0.0610
11572TIP3    H156131   2.028   1.861   1.095  1.1770  0.5106 -0.0006
11572TIP3    H256132   1.970   1.777   0.984 -0.0712  1.0110  0.2599
11573TIP3   OH256133   5.380   3.647  15.885  0.0197  0.1563  0.1893
11573TIP3    H156134   5.409   3.733  15.853 -0.3360  0.1523 -0.1455
11573TIP3    H256135   5.293   3.664  15.922 -0.7924 -0.3742 -1.4105
11574TIP3   OH256136   1.285   3.233  14.214  0.4822 -0.9929 -0.2457
11574TIP3    H156137   1.360   3.174  14.204  0.1895 -1.5745  0.8332
11574TIP3    H256138   1.236   3.223  14.132 -0.1532 -3.1165  0.3276
11575TIP3   OH256139   2.086   1.064  13.063 -0.0562  0.1405 -0.1441
11575TIP3    H156140   2.019   1.003  13.033 -0.8504  1.0108 -0.1952
11575TIP3    H256141   2.038   1.127  13.118  0.7116  0.7860 -0.1914
11576TIP3   OH256142   6.552   4.091  16.583  0.5151 -0.7987 -0.0377
11576TIP3    H156143   6.600   4.155  16.636  0.5135  0.0801 -1.0694
11576TIP3    H256144   6.509   4.035  16.647  0.9389 -0.0880  0.8971
11577TIP3   OH256145   0.355   6.490  16.167  0.0761 -0.7617 -0.1226
11577TIP3    H156146   0.408   6.411  16.154 -1.5186 -1.7708 -0.7778
11577TIP3    H256147   0.301   6.470  16.243 -1.0492 -0.7172 -0.8939
11578TIP3   OH256148   2.584   4.746  12.229  0.0143 -0.0392 -0.0383
11578TIP3    H156149   2.559   4.768  12.140  0.2772 -0.0943 -0.1290
11578TIP3    H256150   2.632   4.823  12.260 -0.9856  0.4117  0.4312
11579TIP3   OH256151   4.955   5.224  12.959 -0.2264 -0.6229  0.0505
11579TIP3    H156152   5.009   5.146  12.947 -0.1199 -0.7976  1.4325
11579TIP3    H256153   5.017   5.297  12.955 -0.3570 -0.5819 -1.4582
11580TIP3   OH256154   5.025   2.299   0.998  0.3909 -0.1202 -0.6002
11580TIP3    H156155   5.114   2.330   0.985  0.7858 -0.9605  0.0446
11580TIP3    H256156   4.999   2.265   0.912 -0.7136  3.4826 -1.8744
11581TIP3   OH256157   1.912   4.982   3.416  0.0205 -0.2555  0.0201
11581TIP3    H156158   1.945   5.065   3.449 -2.2928 -0.4374  3.3027
11581TIP3    H256159   1.984   4.920   3.430  0.7351  0.6363  0.3561
11582TIP3   OH256160   2.221   5.808  14.347  0.0393 -0.3489 -0.4701
11582TIP3    H156161   2.158   5.739  14.368  0.4514 -0.5493  0.1583
11582TIP3    H256162   2.270   5.821  14.429  1.5523 -0.9743 -1.2376
11583TIP3   OH256163   3.627   6.625  11.318 -0.1267 -0.1428  0.0979
11583TIP3    H156164   3.578   6.546  11.343 -0.0159 -0.8691 -1.8386
11583TIP3    H256165   3.591   6.650  11.233  1.0451  0.8858 -0.1204
11584TIP3   OH256166   0.847   0.756  12.241 -0.2893 -0.2723 -0.3195
11584TIP3    H156167   0.793   0.683  12.210  0.1714 -1.2592  1.0564
11584TIP3    H256168   0.788   0.809  12.294 -0.3243 -0.3602 -0.2705
11585TIP3   OH256169   4.401   5.031  13.822 -0.2536  0.2043  0.1387
11585TIP3    H156170   4.319   5.042  13.870 -0.3258  1.9477 -0.3026
11585TIP3    H256171   4.381   5.061  13.733  0.5925 -0.3364 -0.2451
11586TIP3   OH256172   1.000   3.093  16.796 -0.0001 -0.2007 -0.2813
11586TIP3    H156173   0.924   3.036  16.785 -0.8295  1.0081 -1.1335
11586TIP3    H256174   1.056   3.074  16.721 -1.7476  2.1943 -2.3724
11587TIP3   OH256175   2.587   4.766   5.239 -0.3165 -0.0757 -0.1468
11587TIP3    H156176   2.568   4.688   5.186 -2.8845 -1.1296  2.0716
11587TIP3    H256177   2.501   4.805   5.255  0.6872  1.8441  0.8388
11588TIP3   OH256178   1.350   1.561  12.313 -0.1866 -0.7955  0.6685
11588TIP3    H156179   1.282   1.624  12.291  1.3924  0.3174 -1.2810
11588TIP3    H256180   1.410   1.610  12.370  0.7446 -0.6912 -0.3855
11589TIP3   OH256181   3.734   5.334   2.327  0.2780  0.0307  0.0917
11589TIP3    H156182   3.770   5.393   2.394  0.2662  0.1930 -0.0427
11589TIP3    H256183   3.811   5.305   2.278  0.6723 -2.4077  1.9742
11590TIP3   OH256184   0.618   3.018  15.770 -0.5671  0.1014  0.2211
11590TIP3    H156185   0.571   3.086  15.817  0.6014  1.6369 -0.7324
11590TIP3    H256186   0.581   3.022  15.681 -0.6799 -0.7192  0.2253
11591TIP3   OH256187   6.754   4.564  16.949 -0.5163  0.1111 -0.3530
11591TIP3    H156188   6.659   4.566  16.937 -0.2902 -0.6081 -3.0041
11591TIP3    H256189   6.780   4.656  16.940 -1.0022  0.4738  1.4979
11592TIP3   OH256190   0.389   3.184  12.785  0.3897 -0.1340  0.1568
11592TIP3    H156191   0.345   3.130  12.851  2.5027 -0.9799  0.9645
11592TIP3    H256192   0.415   3.263  12.832  2.5749 -1.0612  0.6585
11593TIP3   OH256193   3.485   5.273   4.228 -0.4131  0.5465  0.4726
11593TIP3    H156194   3.553   5.339   4.216 -0.9095  0.9242 -0.2990
11593TIP3    H256195   3.487   5.254   4.322 -0.9543  2.4178  0.9027
11594TIP3   OH256196   1.037   1.350  15.962 -0.1300  0.8542  0.3232
11594TIP3    H156197   0.990   1.361  15.880 -0.3956 -1.2038  0.1341
11594TIP3    H256198   0.976   1.379  16.029 -1.5462 -1.2270  0.0419
11595TIP3   OH256199   1.680   4.563   3.116  0.3343  0.2247  0.4005
11595TIP3    H156200   1.689   4.482   3.165  0.6885  1.1686  1.9826
11595TIP3    H256201   1.698   4.632   3.180 -1.0360  1.5996 -0.6029
11596TIP3   OH256202   5.500   3.656   4.582  0.2764 -0.2992  0.1248
11596TIP3    H156203   5.430   3.680   4.521  1.1808  0.4073 -0.6752
11596TIP3    H256204   5.573   3.714   4.558  1.1415 -1.0375  0.9076
11597TIP3   OH256205   0.380   0.890   3.872 -0.8345  0.3114  0.0884
11597TIP3    H156206   0.331   0.936   3.940  0.9447 -0.5784  2.0971
11597TIP3    H256207   0.436   0.958   3.832  0.7186  0.2850  2.0425
11598TIP3   OH256208   3.012   3.339   4.017 -0.0002  0.5007 -0.4668
11598TIP3    H156209   3.032   3.276   3.948  1.7604  1.9841 -1.4082
11598TIP3    H256210   2.974   3.287   4.087  0.8165 -1.4972 -1.4407
11599TIP3   OH256211   3.805   0.372  11.695  0.4971 -0.3371 -0.5945
11599TIP3    H156212   3.780   0.415  11.613 -1.9991 -0.4266  0.0501
11599TIP3    H256213   3.901   0.377  11.696  0.6721 -1.0711 -3.8824
11600TIP3   OH256214   2.894   4.565   1.794 -0.1469  0.3576  0.4604
11600TIP3    H156215   2.890   4.485   1.742 -0.7641  0.7111 -0.0606
11600TIP3    H256216   2.978   4.605   1.772 -0.3027  0.3830 -0.0834
11601TIP3   OH256217   4.760   6.472   1.268  0.6727 -0.5328 -0.2949
11601TIP3    H156218   4.740   6.526   1.192  0.3442 -1.7281 -1.0680
11601TIP3    H256219   4.717   6.389   1.251  1.7489 -1.2898  0.5555
11602TIP3   OH256220   4.664   6.551  16.330 -0.2030 -0.9066  0.2685
11602TIP3    H156221   4.746   6.510  16.358 -0.1719 -0.7008  0.4878
11602TIP3    H256222   4.598   6.518  16.391 -0.5426 -2.1033 -0.7224
11603TIP3   OH256223   0.250   0.844  12.856 -0.4344 -0.0531 -0.3351
11603TIP3    H156224   0.330   0.893  12.836  0.5315 -1.8261 -1.0316
11603TIP3    H256225   0.270   0.754  12.831 -2.1944 -0.7996  0.7568
11604TIP3   OH256226   0.077   4.485  11.585 -0.0992  0.0448  0.1513
11604TIP3    H156227   0.131   4.510  11.510 -0.6403  0.1249 -0.2172
11604TIP3    H256228   0.111   4.399  11.611  0.6948  0.4153  0.3997
11605TIP3   OH256229   4.406   1.390   3.407  0.2951 -0.2187 -0.0769
11605TIP3    H156230   4.403   1.413   3.500  2.5939 -2.6918  0.7565
11605TIP3    H256231   4.493   1.352   3.395 -0.8144 -2.2678 -2.6586
11606TIP3   OH256232   0.025   1.124   3.113 -0.2790  0.5276 -0.7759
11606TIP3    H156233   0.074   1.152   3.036  1.3071  1.7929  0.6323
11606TIP3    H256234   0.077   1.152   3.188 -2.2610  0.2787  0.8139
11607TIP3   OH256235   0.773   0.678  11.915  0.4567  0.1379  0.1884
11607TIP3    H156236   0.731   0.657  11.999 -0.3155  0.0452 -0.2105
11607TIP3    H256237   0.709   0.732  11.869  0.1457 -1.1643 -1.0065
11608TIP3   OH256238   6.478   5.481   6.187 -0.1595  0.5769 -0.3982
11608TIP3    H156239   6.460   5.387   6.192 -0.9594  0.7761  1.3556
11608TIP3    H256240   6.397   5.519   6.152  0.0531  0.6437 -0.8203
11609TIP3   OH256241   6.513   2.892  13.948  0.4534  0.0068  0.5155
11609TIP3    H156242   6.540   2.884  14.040 -0.4381  0.6516  0.8602
11609TIP3    H256243   6.461   2.973  13.946  2.6347  1.5101 -1.1091
11610TIP3   OH256244   3.217   0.126  12.908 -0.5630 -0.1540 -0.5629
11610TIP3    H156245   3.225   0.187  12.981  0.8095  0.5801 -1.2894
11610TIP3    H256246   3.254   0.173  12.833 -2.4463 -0.6587 -1.9006
11611TIP3   OH256247   4.220   3.863   5.820 -0.7229 -0.2066  0.8050
11611TIP3    H156248   4.147   3.876   5.760 -0.2644 -0.7953  0.0934
11611TIP3    H256249   4.221   3.768   5.836  0.8630 -0.4658 -0.5121
11612TIP3   OH256250   2.721   6.057  15.064 -0.1837  0.5780  0.1318
11612TIP3    H156251   2.673   5.977  15.084 -0.2854  0.9352  1.3744
11612TIP3    H256252   2.695   6.119  15.132  0.3729  1.4794 -0.4418
11613TIP3   OH256253   1.812   6.722   0.386 -0.0516  0.2287  0.3060
11613TIP3    H156254   1.739   6.767   0.429  1.2103  0.4290  2.3817
11613TIP3    H256255   1.880   6.718   0.453  1.1260 -1.7421 -0.9102
11614TIP3   OH256256   4.380   1.290  15.352 -0.4508  0.9546 -0.0127
11614TIP3    H156257   4.344   1.307  15.439  0.9523  0.9168  0.6020
11614TIP3    H256258   4.473   1.273  15.367 -0.8159 -2.7268 -1.0839
11615TIP3   OH256259   0.666   2.355  11.734 -0.1287  0.4613  0.6994
11615TIP3    H156260   0.676   2.450  11.736  0.8580  0.3760  0.2562
11615TIP3    H256261   0.599   2.336  11.800 -1.6485  1.6053 -0.4229
11616TIP3   OH256262   0.735   4.956  15.986  0.6727 -0.9625  0.0072
11616TIP3    H156263   0.704   5.029  16.040  2.2921 -0.2977  0.0766
11616TIP3    H256264   0.761   4.996  15.903 -2.0080 -2.0048 -1.4649
11617TIP3   OH256265   6.391   0.941   6.032  0.3552 -0.3509  0.1150
11617TIP3    H156266   6.380   0.848   6.053  2.1697 -0.6932 -0.2229
11617TIP3    H256267   6.460   0.971   6.091  0.3600  0.5732 -0.3389
11618TIP3   OH256268   5.605   3.698  11.604  0.3703 -0.0099  0.5550
11618TIP3    H156269   5.667   3.767  11.580 -1.0277  0.6797 -1.2391
11618TIP3    H256270   5.613   3.633  11.533 -0.7536 -0.0320  0.4317
11619TIP3   OH256271   2.287   3.406   3.305  0.6175  0.0716  0.6502
11619TIP3    H156272   2.314   3.351   3.379  0.7913  1.7551  1.8876
11619TIP3    H256273   2.253   3.344   3.240  1.3435 -1.5334  1.7362
11620TIP3   OH256274   0.244   0.367   2.926  0.1086 -0.5614  0.0226
11620TIP3    H156275   0.322   0.421   2.932 -0.4994  0.4671 -0.8153
11620TIP3    H256276   0.197   0.383   3.008 -0.7660  1.3809 -0.7899
11621TIP3   OH256277   1.538   6.563   1.251  0.1340  0.0770  0.4297
11621TIP3    H156278   1.541   6.569   1.156  2.7760  3.1916  0.5420
11621TIP3    H256279   1.595   6.490   1.273  1.9699  1.1897 -0.3942
11622TIP3   OH256280   1.310   1.848  14.334 -0.5223  0.1795 -0.0071
11622TIP3    H156281   1.297   1.764  14.291  1.0576 -0.2656  0.3402
11622TIP3    H256282   1.245   1.849  14.405  1.2746 -2.0562  1.8307
11623TIP3   OH256283   1.652   0.428   2.269  0.0918 -0.2534  0.1814
11623TIP3    H156284   1.587   0.427   2.339 -0.0177  0.2230  0.0891
11623TIP3    H256285   1.641   0.345   2.224 -0.8481  0.0714 -0.2003
11624TIP3   OH256286   6.353   6.376   5.221 -0.3831  0.0673 -0.1480
11624TIP3    H156287   6.409   6.416   5.154 -1.1630  1.3060 -0.0920
11624TIP3    H256288   6.316   6.450   5.268 -1.4765 -0.7417  0.3053
11625TIP3   OH256289   3.925   3.416   5.934  0.1424 -0.3440 -0.0806
11625TIP3    H156290   3.967   3.451   6.013  1.4974 -0.6986 -0.6168
11625TIP3    H256291   3.899   3.493   5.884  0.2302 -0.1175  0.2177
11626TIP3   OH256292   3.104   3.324   0.953 -0.1569 -0.6730 -0.4785
11626TIP3    H156293   3.059   3.247   0.919  0.6183 -1.1666 -0.4128
11626TIP3    H256294   3.173   3.342   0.890 -0.3875  0.0252 -0.5369
11627TIP3   OH256295   4.387   2.087  10.992 -0.0947 -0.1044  0.2577
11627TIP3    H156296   4.376   2.080  10.897 -0.3267  0.9820  0.1963
11627TIP3    H256297   4.322   2.152  11.019  0.5178  0.1883  1.0546
11628TIP3   OH256298   5.669   2.129  11.429  0.5757 -0.1877  0.0344
11628TIP3    H156299   5.659   2.040  11.464 -0.5257 -0.9844 -2.0764
11628TIP3    H256300   5.594   2.177  11.465 -0.3728 -0.9086 -0.8979
11629TIP3   OH256301   1.894   5.328   2.239  0.6608 -0.0015  0.7665
11629TIP3    H156302   1.846   5.324   2.321  0.1332 -0.9416  0.4289
11629TIP3    H256303   1.884   5.241   2.201  1.5307  0.1944  0.0618
11630TIP3   OH256304   5.637   2.908  14.416 -0.1396 -0.4525 -0.2069
11630TIP3    H156305   5.608   2.887  14.505  0.9238 -0.2019  0.2174
11630TIP3    H256306   5.629   2.825  14.369 -3.6581  0.0499 -0.7869
11631TIP3   OH256307   4.400   6.150   4.345 -0.1643  0.0200  0.1704
11631TIP3    H156308   4.412   6.184   4.434 -0.6797  0.1664  0.1864
11631TIP3    H256309   4.352   6.068   4.357  1.3463 -0.9037  0.1560
11632TIP3   OH256310   5.536   5.978   3.761  0.6539 -0.4434 -0.5268
11632TIP3    H156311   5.449   5.946   3.738  0.0832 -0.6145  1.6461
11632TIP3    H256312   5.596   5.915   3.721 -0.3591 -2.4749  0.9628
11633TIP3   OH256313   0.220   4.506  13.281 -0.6796  0.3414 -0.0559
11633TIP3    H156314   0.157   4.458  13.226 -1.4751  1.8444 -0.5008
11633TIP3    H256315   0.286   4.539  13.219  0.4853 -1.0381  0.3803
11634TIP3   OH256316   3.314   5.003  17.179 -0.0420 -0.0007 -0.1223
11634TIP3    H156317   3.255   5.055  17.234 -0.7907 -0.1937 -0.7100
11634TIP3    H256318   3.364   4.950  17.241 -0.8997 -0.2493  0.3875
11635TIP3   OH256319   3.201   4.269  17.221 -0.2236  0.1073 -0.6276
11635TIP3    H156320   3.289   4.297  17.197 -0.2300  1.6795  0.9395
11635TIP3    H256321   3.150   4.277  17.141  0.0537  3.7110 -0.6129
11636TIP3   OH256322   6.662   6.045  11.536  0.0574  1.0698 -0.0971
11636TIP3    H156323   6.653   5.952  11.558  1.0191  0.8996 -0.3913
11636TIP3    H256324   6.663   6.089  11.621 -1.7609  0.9691  0.0220
11637TIP3   OH256325   4.274   3.195  17.278  0.4423 -0.1462 -0.3481
11637TIP3    H156326   4.308   3.258  17.341  0.7866 -1.7606  1.1371
11637TIP3    H256327   4.210   3.245  17.227 -0.7355  0.9283  2.0585
11638TIP3   OH256328   1.840   3.760   6.264 -0.2734 -0.2534 -0.3291
11638TIP3    H156329   1.878   3.676   6.239 -1.2801 -0.4400 -1.2713
11638TIP3    H256330   1.756   3.764   6.218 -1.3629  0.2046  1.5867
11639TIP3   OH256331   6.404   0.859   1.169 -0.2014 -0.1562  0.0367
11639TIP3    H156332   6.390   0.846   1.263  0.4192  0.4414  0.2232
11639TIP3    H256333   6.321   0.833   1.128  0.0215 -1.8914  0.5957
11640TIP3   OH256334   3.027   6.410   5.657  0.7419  0.3955 -0.3684
11640TIP3    H156335   2.982   6.403   5.741 -1.0567 -0.0823 -1.3049
11640TIP3    H256336   2.987   6.342   5.603 -0.2673  2.5322 -2.5093
11641TIP3   OH256337   4.347   3.086   1.059  0.2902  0.3588  0.7636
11641TIP3    H156338   4.341   3.150   1.130  2.0409  0.6075  0.7224
11641TIP3    H256339   4.360   3.138   0.981  3.0447  0.0110  0.8824
11642TIP3   OH256340   3.973   5.950   3.212 -0.0800  0.0428  0.2323
11642TIP3    H156341   3.900   5.939   3.151 -0.0644 -0.2738  0.2707
11642TIP3    H256342   4.025   5.870   3.202 -0.3244 -0.2150  0.9890
11643TIP3   OH256343   3.205   4.925  12.208  0.5554 -0.3534 -0.1333
11643TIP3    H156344   3.262   5.002  12.216  0.5724 -0.1819 -1.6944
11643TIP3    H256345   3.260   4.858  12.168  0.6292 -1.3110  1.5005
11644TIP3   OH256346   0.440   1.360   1.404 -0.0212 -0.0530  0.1543
11644TIP3    H156347   0.504   1.375   1.335  2.0539 -0.2420  1.9078
11644TIP3    H256348   0.404   1.274   1.385 -0.0462  0.2091 -1.0720
11645TIP3   OH256349   2.370   0.113  11.835  0.1166  0.7630 -0.7247
11645TIP3    H156350   2.405   0.063  11.762 -0.8482  0.4229 -0.9760
11645TIP3    H256351   2.368   0.051  11.908 -0.1724  0.7114 -0.7749
11646TIP3   OH256352   2.524   2.007  11.735  0.3795  0.2621 -0.5065
11646TIP3    H156353   2.614   1.996  11.704  0.2457  1.1637 -1.2535
11646TIP3    H256354   2.485   2.071  11.675 -1.7778 -2.4614 -2.2631
11647TIP3   OH256355   1.498   3.503   4.975  0.0450 -0.5494  0.4794
11647TIP3    H156356   1.543   3.563   4.915  1.4670  0.2797  2.2913
11647TIP3    H256357   1.520   3.416   4.942 -1.0894 -0.1655 -1.4988
11648TIP3   OH256358   2.167   1.991   5.388 -0.2515 -0.2635 -0.0157
11648TIP3    H156359   2.236   2.045   5.426  0.6532 -1.2587 -0.2167
11648TIP3    H256360   2.087   2.019   5.433  0.5833 -0.4669  1.6511
11649TIP3   OH256361   6.164   5.996  11.600 -0.8929  0.2118 -0.3725
11649TIP3    H156362   6.201   6.001  11.688 -0.0819 -0.4255 -0.6714
11649TIP3    H256363   6.235   5.963  11.546 -0.7334  2.4053 -1.6444
11650TIP3   OH256364   4.206   1.973  12.698  0.0646  0.3069 -0.1302
11650TIP3    H156365   4.134   2.034  12.680 -0.7576 -0.4766  0.3917
11650TIP3    H256366   4.244   2.004  12.780  0.0852  0.5144 -0.2186
11651TIP3   OH256367   1.973   5.431  15.190  0.4241 -0.7511 -0.8391
11651TIP3    H156368   1.985   5.362  15.255 -0.0325  0.5869  0.7357
11651TIP3    H256369   1.922   5.389  15.120  0.9537 -2.2416 -0.3809
11652TIP3   OH256370   4.094   5.467   5.258 -0.5252 -0.3965  0.5381
11652TIP3    H156371   4.077   5.406   5.329  1.1874 -2.0050 -0.3424
11652TIP3    H256372   4.170   5.431   5.212  1.1638  2.8412  0.4553
11653TIP3   OH256373   6.153   1.589   1.429 -0.1913  0.3822  0.0446
11653TIP3    H156374   6.188   1.613   1.343  0.5561  1.6984  0.6809
11653TIP3    H256375   6.229   1.588   1.487 -0.7423 -0.0854  0.7883
11654TIP3   OH256376   3.810   5.188   6.121 -0.1354 -0.4627  0.3376
11654TIP3    H156377   3.835   5.141   6.201 -1.8727  1.1557  1.9355
11654TIP3    H256378   3.741   5.247   6.149 -1.0143 -0.0253 -2.4796
11655TIP3   OH256379   4.777   4.942   0.596  0.2079  0.4133 -0.3478
11655TIP3    H156380   4.753   4.982   0.680 -2.5741  0.2917 -0.9856
11655TIP3    H256381   4.784   4.849   0.615 -1.3088  0.2653 -0.3469
11656TIP3   OH256382   5.965   1.799  11.323 -0.7642  0.4252  0.2068
11656TIP3    H156383   5.949   1.879  11.272 -3.3152  0.4388  0.8684
11656TIP3    H256384   5.879   1.759  11.333  0.7092 -4.3994 -3.0466
11657TIP3   OH256385   1.306   0.783   4.030  0.4131 -0.0255  0.6670
11657TIP3    H156386   1.388   0.775   3.982 -0.2410  1.4601 -0.7677
11657TIP3    H256387   1.243   0.732   3.979  0.3713 -0.9959  1.6541
11658TIP3   OH256388   3.008   0.954  15.575 -0.3354 -0.2761 -0.6265
11658TIP3    H156389   3.047   1.019  15.517 -1.0096  0.5603 -0.1648
11658TIP3    H256390   3.080   0.929  15.634 -0.6197  1.8579  0.7507
11659TIP3   OH256391   1.704   2.399   2.682 -0.6346 -0.5071  0.8895
11659TIP3    H156392   1.661   2.480   2.711  2.4298  1.3425  0.6730
11659TIP3    H256393   1.685   2.394   2.588 -1.5108 -0.5378  1.0557
11660TIP3   OH256394   1.560   3.408   4.129  0.1020 -0.1456  0.3142
11660TIP3    H156395   1.615   3.405   4.207 -0.4876  0.1625  0.7470
11660TIP3    H256396   1.620   3.428   4.058  0.4913  0.5853  0.8443
11661TIP3   OH256397   2.510   1.708  15.903  0.2769 -0.2520 -0.1648
11661TIP3    H156398   2.528   1.742  15.816 -2.0460 -1.3153 -1.1371
11661TIP3    H256399   2.518   1.613  15.893  3.7012 -0.3484  1.7758
11662TIP3   OH256400   5.444   6.578   1.306 -0.3369 -0.7965  0.1982
11662TIP3    H156401   5.501   6.561   1.381  0.8430  0.9418 -0.2255
11662TIP3    H256402   5.359   6.543   1.332  0.1968 -0.8396  2.0689
11663TIP3   OH256403   0.872   0.551  11.671 -0.3587 -0.7636 -0.9552
11663TIP3    H156404   0.914   0.626  11.628  1.4985 -1.8746 -1.2026
11663TIP3    H256405   0.840   0.586  11.754  2.6529 -0.1195  0.0809
11664TIP3   OH256406   0.612   6.760  12.577 -0.5395  0.5456  0.3426
11664TIP3    H156407   0.684   6.748  12.515  0.9519  0.4902  2.0127
11664TIP3    H256408   0.654   6.782  12.660 -2.2305 -2.1029  2.0897
11665TIP3   OH256409   0.742   2.190   1.058 -0.1459 -0.0576 -0.1678
11665TIP3    H156410   0.672   2.146   1.106 -0.0210  2.2720  2.4494
11665TIP3    H256411   0.819   2.134   1.070 -0.2066  0.2714  2.2628
11666TIP3   OH256412   3.895   2.673   2.722 -0.2147 -0.0033  0.1806
11666TIP3    H156413   3.838   2.625   2.662  0.1440 -1.6497  1.1173
11666TIP3    H256414   3.837   2.701   2.793 -0.4456  1.1203 -0.4147
11667TIP3   OH256415   4.471   5.570  11.586  0.0212 -0.2159  0.0686
11667TIP3    H156416   4.537   5.566  11.655  0.0268 -0.8658  0.0328
11667TIP3    H256417   4.477   5.485  11.542  0.2438  0.3028 -0.9414
11668TIP3   OH256418   3.179   5.536   0.648 -0.0068 -0.1704 -0.5794
11668TIP3    H156419   3.108   5.552   0.709  0.2204 -0.7543 -0.1418
11668TIP3    H256420   3.182   5.440   0.640  1.1938 -0.1995 -0.0106
11669TIP3   OH256421   2.754   0.200   4.262 -0.2216  0.0863  0.5762
11669TIP3    H156422   2.692   0.273   4.263  0.3754  0.7262 -1.6663
11669TIP3    H256423   2.840   0.242   4.269  0.1636 -0.2626 -1.3352
11670TIP3   OH256424   3.230   3.790  11.145 -0.6260  0.1821  0.5045
11670TIP3    H156425   3.150   3.775  11.194 -1.2515 -0.0503 -0.5499
11670TIP3    H256426   3.248   3.707  11.101 -0.4203  0.5396 -0.1091
11671TIP3   OH256427   1.209   3.748   2.633  0.2593  0.5130  0.3002
11671TIP3    H156428   1.220   3.814   2.701  0.8733  0.7679 -0.0438
11671TIP3    H256429   1.229   3.665   2.677 -0.3086  0.5659  0.6757
11672TIP3   OH256430   0.963   2.381   0.838  0.1378  0.1739  0.0428
11672TIP3    H156431   0.995   2.308   0.890  0.2439 -0.5910 -1.0602
11672TIP3    H256432   1.007   2.458   0.875  0.0753 -0.3158  1.1751
11673TIP3   OH256433   0.394   5.382  12.674  0.4569 -0.6892  0.5656
11673TIP3    H156434   0.438   5.390  12.759 -0.8668 -0.8535  1.2956
11673TIP3    H256435   0.378   5.289  12.664  1.0021 -0.7177 -0.0873
11674TIP3   OH256436   2.638   4.997  16.399  0.1547  0.3497 -0.7602
11674TIP3    H156437   2.566   5.026  16.343 -0.9347 -0.3119  0.2350
11674TIP3    H256438   2.712   5.054  16.376 -0.3050  0.2400 -2.6817
11675TIP3   OH256439   2.302   2.888   3.064  0.5709 -0.7251 -0.2709
11675TIP3    H156440   2.334   2.907   2.976 -0.9076  0.8984 -0.5141
11675TIP3    H256441   2.262   2.801   3.058  0.7498 -0.7477 -1.1221
11676TIP3   OH256442   0.168   6.420  14.103 -0.0449  0.0179 -0.0028
11676TIP3    H156443   0.131   6.454  14.185  0.2969 -1.9644  1.0407
11676TIP3    H256444   0.238   6.361  14.131 -0.0859 -0.9049 -1.7117
11677TIP3   OH256445   1.428   1.838   0.724 -0.0149  0.1972 -0.2770
11677TIP3    H156446   1.395   1.866   0.809  0.0460 -0.5566 -0.0010
11677TIP3    H256447   1.416   1.743   0.723  1.2778  0.0190 -0.5391
11678TIP3   OH256448   2.970   2.002   4.419  0.0646  0.2810 -0.5198
11678TIP3    H156449   3.035   2.028   4.355  0.7006  1.6040  0.6178
11678TIP3    H256450   3.014   1.936   4.473  0.1620  0.5021 -0.3249
11679TIP3   OH256451   0.034   4.530   2.028  0.1698 -0.6298  0.6227
11679TIP3    H156452   0.058   4.505   1.938 -0.0638 -0.5535  0.5374
11679TIP3    H256453   0.019   4.446   2.072 -0.0515 -0.6577  0.4955
11680TIP3   OH256454   6.038   5.912  16.707 -0.0359  0.0979  0.5122
11680TIP3    H156455   5.988   5.833  16.687  0.0350  0.1787  0.0013
11680TIP3    H256456   5.980   5.963  16.763 -0.3463 -0.0181  0.2994
11681TIP3   OH256457   1.358   1.337   0.607 -0.2196  0.0171 -0.2177
11681TIP3    H156458   1.307   1.389   0.669 -0.8173 -0.3595 -0.3829
11681TIP3    H256459   1.328   1.247   0.621 -0.0766 -0.1247 -0.7814
11682TIP3   OH256460   0.549   0.179   1.553 -0.0955  0.3605  0.1221
11682TIP3    H156461   0.571   0.089   1.576 -0.7214  0.1656 -0.0073
11682TIP3    H256462   0.546   0.225   1.637 -1.7396 -0.1997  0.4113
11683TIP3   OH256463   1.292   2.074   3.104  0.4060  0.3144  0.2640
11683TIP3    H156464   1.277   2.157   3.059 -0.1024 -0.4152 -0.9382
11683TIP3    H256465   1.308   2.099   3.195  0.3884  1.7351 -0.1040
11684TIP3   OH256466   6.507   5.647  13.325 -0.6269 -0.0464  0.0164
11684TIP3    H156467   6.463   5.600  13.254 -0.4177  1.9577 -1.5102
11684TIP3    H256468   6.465   5.733  13.327 -0.8673 -0.1386  2.5928
11685TIP3   OH256469   0.258   3.200   1.855 -0.1330  0.4374  0.0952
11685TIP3    H156470   0.253   3.284   1.899  0.7110 -0.1032  1.2886
11685TIP3    H256471   0.306   3.143   1.916 -2.4999 -1.5286  0.2790
11686TIP3   OH256472   5.890   4.031  11.453 -0.7454  0.0043 -0.1547
11686TIP3    H156473   5.957   4.068  11.395 -0.9493 -1.2290 -1.2444
11686TIP3    H256474   5.807   4.068  11.421 -0.8663 -0.7360 -0.7335
11687TIP3   OH256475   6.559   0.625   1.665  0.2531  0.2805 -0.2965
11687TIP3    H156476   6.591   0.604   1.577  0.5900  1.1526 -0.4023
11687TIP3    H256477   6.624   0.686   1.700  0.2731 -0.2803  0.6792
11688TIP3   OH256478   1.474   2.730   1.713 -0.6666  0.2527 -0.3259
11688TIP3    H156479   1.460   2.647   1.758  0.0519  0.1298 -0.3199
11688TIP3    H256480   1.548   2.770   1.759 -0.0443  0.2120 -1.2721
11689TIP3   OH256481   4.424   0.158   4.383 -0.1318 -0.0383 -0.5466
11689TIP3    H156482   4.394   0.161   4.474  0.5256 -1.5782 -0.2351
11689TIP3    H256483   4.397   0.241   4.345 -1.1627  0.2784  0.8271
11690TIP3   OH256484   3.549   0.139  14.780  0.4047 -0.1691  0.0603
11690TIP3    H156485   3.461   0.126  14.817 -0.0678 -1.6171 -1.4761
11690TIP3    H256486   3.544   0.224  14.737  0.2575  0.4639  1.2746
11691TIP3   OH256487   6.427   3.740  14.117 -0.1976  0.2784  0.4315
11691TIP3    H156488   6.339   3.724  14.150 -0.5272  1.6309  0.2768
11691TIP3    H256489   6.432   3.835  14.107  0.6769  0.1026 -1.1874
11692TIP3   OH256490   5.136   6.189  11.384 -0.8859  0.0686  0.3448
11692TIP3    H156491   5.211   6.203  11.442 -1.2325  1.4655  0.4825
11692TIP3    H256492   5.083   6.124  11.430  1.3758 -2.8912 -0.8819
11693TIP3   OH256493   4.777   3.351  16.425 -0.1715 -0.0231 -0.3139
11693TIP3    H156494   4.804   3.436  16.461 -1.3641  0.9693 -1.6544
11693TIP3    H256495   4.859   3.305  16.407  0.4920 -0.0684  2.3919
11694TIP3   OH256496   2.685   6.281  17.005 -0.2397 -0.2010  0.8798
11694TIP3    H156497   2.701   6.187  17.016  1.8237  0.1178  0.9429
11694TIP3    H256498   2.753   6.310  16.944 -1.0963  1.2026  0.5350
11695TIP3   OH256499   5.156   1.520  16.262 -0.4811  0.1108  0.0707
11695TIP3    H156500   5.234   1.573  16.277 -0.0245 -1.2308  3.0211
11695TIP3    H256501   5.152   1.509  16.167  2.4103  0.9364 -0.2160
11696TIP3   OH256502   1.440   6.010   4.239  0.0520  0.2830 -0.2682
11696TIP3    H156503   1.443   6.066   4.317 -0.9416  2.1189 -1.4845
11696TIP3    H256504   1.348   5.982   4.233  0.4862 -1.3822  0.1999
11697TIP3   OH256505   3.949   1.279   3.967 -0.2417 -0.1100 -0.3545
11697TIP3    H156506   3.896   1.288   4.046  0.6826  0.9963  0.1621
11697TIP3    H256507   3.892   1.233   3.905 -0.4572 -2.4031  1.4294
11698TIP3   OH256508   5.854   2.816  12.798 -0.4061  0.0793 -0.0541
11698TIP3    H156509   5.848   2.810  12.702  0.4886 -1.1921 -0.0500
11698TIP3    H256510   5.944   2.847  12.814  1.2002 -4.1297  0.4161
11699TIP3   OH256511   5.708   1.707   1.988 -0.4583 -0.2019 -0.3863
11699TIP3    H156512   5.649   1.744   2.053 -1.5903 -1.8173 -0.4289
11699TIP3    H256513   5.679   1.744   1.904  0.0422  0.7356 -0.1466
11700TIP3   OH256514   5.567   6.754  17.271 -0.1134  0.0395  0.5469
11700TIP3    H156515   5.651   6.708  17.275 -0.7853 -1.2271  0.8484
11700TIP3    H256516   5.588   6.839  17.233  1.7558  0.8692  3.1602
11701TIP3   OH256517   1.741   5.175  14.795  0.3349  0.7408 -0.4594
11701TIP3    H156518   1.746   5.256  14.746 -0.7689 -0.0691 -1.9936
11701TIP3    H256519   1.650   5.169  14.823  0.1617 -0.3856 -1.1710
11702TIP3   OH256520   5.715   3.340  11.614  0.2299 -0.4608  0.0255
11702TIP3    H156521   5.714   3.374  11.525 -0.1691  0.6758  0.4426
11702TIP3    H256522   5.634   3.374  11.654 -0.2050 -1.9426  0.4664
11703TIP3   OH256523   5.745   3.889  14.762 -0.3787  0.4364  0.0268
11703TIP3    H156524   5.672   3.832  14.737  0.1706 -0.6376  0.8032
11703TIP3    H256525   5.817   3.863  14.705 -0.7403  1.9275 -1.1757
11704TIP3   OH256526   1.967   4.197  11.031 -0.1183 -0.0302  0.2397
11704TIP3    H156527   1.996   4.134  11.096 -1.6261 -2.9294 -1.6722
11704TIP3    H256528   1.873   4.205  11.046 -0.1010  1.0465 -0.1626
11705TIP3   OH256529   6.735   0.579   0.215  0.1848 -0.5568  0.0023
11705TIP3    H156530   6.696   0.523   0.282  0.1981 -2.4084 -1.4518
11705TIP3    H256531   6.829   0.575   0.233  0.0363  1.3628  1.5912
11706TIP3   OH256532   0.271   0.045   6.252 -0.0255  0.5421  0.0457
11706TIP3    H156533   0.353   0.094   6.257 -0.2821  0.9789 -0.0279
11706TIP3    H256534   0.298  -0.045   6.233  0.4567  0.6094  0.3896
11707TIP3   OH256535   0.218   3.431  11.441  0.3178  0.2412 -0.0977
11707TIP3    H156536   0.139   3.379  11.422 -0.1561  0.9255 -0.0581
11707TIP3    H256537   0.226   3.427  11.537 -0.0432  0.6802 -0.0412
11708TIP3   OH256538   4.089   4.988  15.846  0.0864 -0.0437 -0.0184
11708TIP3    H156539   4.178   5.022  15.830  0.5025 -0.7867  0.6786
11708TIP3    H256540   4.094   4.896  15.821 -0.2609 -0.2908  0.8065
11709TIP3   OH256541   5.899   3.349  14.593  0.4428 -0.2448 -0.2803
11709TIP3    H156542   5.951   3.322  14.518 -0.2090  0.6738 -1.0725
11709TIP3    H256543   5.819   3.296  14.587 -1.1750  2.1845 -2.2587
11710TIP3   OH256544   2.156   2.894  17.167  0.1885 -0.7006 -0.7147
11710TIP3    H156545   2.100   2.902  17.089 -0.7061 -0.6138 -0.0853
11710TIP3    H256546   2.245   2.899  17.133 -0.1875 -0.0673 -1.6747
11711TIP3   OH256547   5.863   1.377   6.155  0.1460  0.2398  0.4268
11711TIP3    H156548   5.809   1.448   6.118  0.7796  0.2906 -0.4371
11711TIP3    H256549   5.820   1.356   6.238 -0.3925  1.2359  0.4283
11712TIP3   OH256550   6.385   1.716   1.945  0.6270 -0.2084  0.1596
11712TIP3    H156551   6.314   1.761   1.900  0.7677  0.6692  0.7853
11712TIP3    H256552   6.342   1.645   1.993  0.0802  0.6885  1.0246
11713TIP3   OH256553   3.105   4.081   0.262  0.2501  0.2964 -0.4695
11713TIP3    H156554   3.156   4.000   0.258  0.9351  0.7181 -0.4204
11713TIP3    H256555   3.155   4.144   0.211 -0.2093  0.7321 -0.3967
11714TIP3   OH256556   2.162   0.558  12.006  0.0773  0.1898  0.6161
11714TIP3    H156557   2.251   0.592  12.009  0.1258  0.4634 -1.6272
11714TIP3    H256558   2.171   0.470  11.968 -0.6852  0.8962 -1.3325
11715TIP3   OH256559   2.919   3.267  11.862  0.0835  0.0830  0.1988
11715TIP3    H156560   2.921   3.174  11.885 -0.1213 -0.2128 -0.9059
11715TIP3    H256561   2.827   3.284  11.843  0.3455  0.0879 -1.1794
11716TIP3   OH256562   1.482   6.594   5.380 -0.1566 -0.0851  0.1650
11716TIP3    H156563   1.458   6.505   5.403  0.3991 -0.4963 -0.7899
11716TIP3    H256564   1.569   6.586   5.340 -1.1048  0.5515 -2.1753
11717TIP3   OH256565   0.509   3.530  17.151  0.2686  0.2015  0.7982
11717TIP3    H156566   0.575   3.462  17.138 -1.5668 -1.6428  0.4477
11717TIP3    H256567   0.511   3.582  17.071  0.9389 -0.1519  0.5770
11718TIP3   OH256568   2.107   2.085  15.948 -0.6214  0.0305  0.5415
11718TIP3    H156569   2.132   2.175  15.969 -0.7446 -0.2664  2.1038
11718TIP3    H256570   2.183   2.032  15.973 -0.5869 -0.3204 -0.2741
11719TIP3   OH256571   3.027   3.076   4.634  0.1481 -0.2798 -0.2749
11719TIP3    H156572   2.949   3.131   4.633  0.8773  0.7818 -1.3415
11719TIP3    H256573   2.994   2.987   4.623 -1.0570 -0.1098  1.5571
11720TIP3   OH256574   2.356   1.651   5.024 -0.1166  0.0544  0.2071
11720TIP3    H156575   2.446   1.676   5.047  0.1097 -0.6277  0.0927
11720TIP3    H256576   2.301   1.700   5.085  0.3155  0.6671  0.1206
11721TIP3   OH256577   6.607   5.417   1.991  0.0289  0.7991  0.2960
11721TIP3    H156578   6.648   5.481   2.048  0.6313  2.3061 -1.7232
11721TIP3    H256579   6.570   5.468   1.919 -0.1743 -1.0322 -0.9930
11722TIP3   OH256580   2.020   5.613   2.731 -0.0013  0.0993  0.0578
11722TIP3    H156581   1.966   5.535   2.734 -0.6248  0.5415  0.3992
11722TIP3    H256582   2.078   5.605   2.807 -0.7482  0.4535  0.6765
11723TIP3   OH256583   0.653   5.034  15.395  0.1899  0.4254 -0.0283
11723TIP3    H156584   0.606   5.104  15.440 -4.9394 -1.4482 -1.7169
11723TIP3    H256585   0.642   4.958  15.452 -0.0856 -0.4038 -1.1641
11724TIP3   OH256586   5.466   3.839  13.668 -0.2006 -1.3757 -0.2376
11724TIP3    H156587   5.376   3.870  13.656  0.5392  0.8096 -0.5944
11724TIP3    H256588   5.467   3.751  13.630 -2.8943 -2.7794  2.4588
11725TIP3   OH256589   1.436   5.247   0.064  0.8407  0.2825 -0.0130
11725TIP3    H156590   1.458   5.155   0.081 -1.3659 -0.4034 -0.5325
11725TIP3    H256591   1.516   5.283   0.026  1.4027 -1.7341 -0.9184
11726TIP3   OH256592   1.098   1.414   0.476 -0.2533 -0.1794 -0.8247
11726TIP3    H156593   1.156   1.484   0.508 -0.5690 -0.5407  0.6177
11726TIP3    H256594   1.120   1.405   0.383 -0.0227  1.6576 -0.9902
11727TIP3   OH256595   2.696   3.431   3.179 -0.1688  0.4121  0.2642
11727TIP3    H156596   2.675   3.501   3.240  0.8092  0.2250  0.8342
11727TIP3    H256597   2.693   3.351   3.232 -0.3195  0.1207 -0.1680
11728TIP3   OH256598   1.367   4.171  15.587 -0.4122 -0.3933  0.3006
11728TIP3    H156599   1.398   4.130  15.506  0.4097 -0.5187  0.6720
11728TIP3    H256600   1.285   4.125  15.607  0.5669 -2.0085  0.7985
11729TIP3   OH256601   2.904   3.934   5.531 -0.0062 -0.2681  0.2637
11729TIP3    H156602   2.943   3.875   5.596 -3.0765 -2.6404  0.1680
11729TIP3    H256603   2.945   3.909   5.448  2.4909  1.4377  0.8583
11730TIP3   OH256604   1.005   5.645   4.022  0.2712 -0.0820  0.1298
11730TIP3    H156605   1.002   5.590   3.944  1.0783  0.5401 -0.3611
11730TIP3    H256606   0.920   5.633   4.063 -0.2997 -0.1836 -1.0285
11731TIP3   OH256607   4.159   4.752   5.395  0.5294 -0.1616  0.4704
11731TIP3    H156608   4.068   4.745   5.421 -0.0950 -0.4062 -1.6346
11731TIP3    H256609   4.199   4.669   5.422 -0.4422 -1.0111 -0.6017
11732TIP3   OH256610   5.462   1.849  12.180 -0.4478 -0.1065 -0.9571
11732TIP3    H156611   5.513   1.888  12.109  1.0607 -0.1611  0.0389
11732TIP3    H256612   5.487   1.756  12.178 -0.4508 -0.1208 -0.4166
11733TIP3   OH256613   2.106   5.688   4.011  0.3879  0.0668 -0.2373
11733TIP3    H156614   2.100   5.663   4.103  2.9681 -1.1593 -0.2880
11733TIP3    H256615   2.027   5.653   3.971 -0.3228 -0.2076  1.3512
11734TIP3   OH256616   2.044   1.109  14.218 -0.2822  0.5706  0.6549
11734TIP3    H156617   1.973   1.093  14.156  0.8275  1.5827 -0.9619
11734TIP3    H256618   2.124   1.087  14.169  0.6912  2.4259  1.3167
11735TIP3   OH256619   0.362   5.114  13.671 -0.1112  0.1724  0.3644
11735TIP3    H156620   0.433   5.058  13.702  1.0748  0.8904 -0.9555
11735TIP3    H256621   0.347   5.087  13.580 -2.1755 -0.5680  0.8579
11736TIP3   OH256622   2.185   6.715  17.315  0.4010  0.1217  0.1063
11736TIP3    H156623   2.098   6.736  17.348 -0.2634 -3.1261  0.8190
11736TIP3    H256624   2.180   6.732  17.221 -0.2982  1.8831  0.4233
11737TIP3   OH256625   3.571   2.573  12.411  0.0436  0.0105  0.2577
11737TIP3    H156626   3.622   2.641  12.368  0.4214  0.6573  1.6952
11737TIP3    H256627   3.480   2.596  12.393  0.2055 -0.2027 -0.8876
11738TIP3   OH256628   0.762   1.110  15.777 -0.3778  0.0887  0.0023
11738TIP3    H156629   0.700   1.116  15.850  1.2572 -0.2392  1.4721
11738TIP3    H256630   0.840   1.070  15.814 -0.0630 -1.6719 -2.3424
11739TIP3   OH256631   2.378   4.585  15.025  0.2793  0.1372 -0.2718
11739TIP3    H156632   2.422   4.670  15.033 -0.2774  0.4061 -0.0512
11739TIP3    H256633   2.367   4.556  15.116 -0.2845  0.2186 -0.3143
11740TIP3   OH256634   6.671   5.776  17.026  0.0111 -0.6258 -0.1902
11740TIP3    H156635   6.611   5.731  16.966  1.7393 -2.6309 -0.5528
11740TIP3    H256636   6.749   5.793  16.973  0.0910  1.2534  0.4575
11741TIP3   OH256637   3.579   2.136  15.779 -0.1119  0.1860 -0.5406
11741TIP3    H156638   3.550   2.045  15.780 -1.7088  0.6796 -0.1568
11741TIP3    H256639   3.569   2.165  15.869  1.0657  0.5595 -0.5138
11742TIP3   OH256640   6.394   3.550   1.364  0.0221  0.1883 -0.0396
11742TIP3    H156641   6.434   3.496   1.432  2.6634 -1.2015 -2.4643
11742TIP3    H256642   6.464   3.610   1.337 -1.3756  1.6253 -0.6655
11743TIP3   OH256643   0.057   2.870  12.727  0.4392 -0.3728 -0.2111
11743TIP3    H156644   0.143   2.895  12.693  0.0001  0.8485 -0.4932
11743TIP3    H256645   0.034   2.941  12.787 -0.3618 -0.7119 -0.1064
11744TIP3   OH256646   2.692   0.248   5.343 -0.0473 -0.2330 -0.0491
11744TIP3    H156647   2.733   0.331   5.319  1.3700 -0.4929  1.2654
11744TIP3    H256648   2.759   0.182   5.325 -0.1513 -0.7737  1.3696
11745TIP3   OH256649   1.165   2.909   1.945  0.1366  0.1826 -0.3192
11745TIP3    H156650   1.172   2.815   1.931  1.4950  0.3692 -1.1039
11745TIP3    H256651   1.137   2.944   1.860 -2.1823  0.3418  0.4555
11746TIP3   OH256652   1.802   6.188  17.223  0.3304  0.2428 -0.7458
11746TIP3    H156653   1.876   6.232  17.266  1.1134 -0.9296 -0.8183
11746TIP3    H256654   1.726   6.209  17.277  1.0836 -0.2026  0.5234
11747TIP3   OH256655   3.411   4.648   3.100 -0.3210 -0.5598  0.3415
11747TIP3    H156656   3.484   4.586   3.095 -1.8900 -2.6874  2.1994
11747TIP3    H256657   3.334   4.596   3.080 -1.4899  1.4701 -0.7904
11748TIP3   OH256658   0.311   6.470  15.543  0.2540  0.0166 -0.4839
11748TIP3    H156659   0.220   6.467  15.573  0.1680  3.0979 -0.1072
11748TIP3    H256660   0.352   6.395  15.585 -1.3478  0.4836  2.1934
11749TIP3   OH256661   3.328   4.819  12.433  0.4202  0.2883 -0.2862
11749TIP3    H156662   3.400   4.882  12.433 -0.1553  0.9854  0.6149
11749TIP3    H256663   3.265   4.854  12.370  1.0474 -0.5666 -1.4232
11750TIP3   OH256664   1.901   0.457   3.184  0.6370  0.3019  0.6554
11750TIP3    H156665   1.931   0.393   3.119 -3.3755 -1.9018  0.6519
11750TIP3    H256666   1.863   0.528   3.132  1.0181  0.4987  0.6420
11751TIP3   OH256667   2.083   6.762  15.309 -0.3664 -0.3813 -0.2843
11751TIP3    H156668   2.084   6.858  15.313  2.0774 -0.3690  0.2904
11751TIP3    H256669   2.021   6.742  15.239 -1.7334  1.5681  0.2913
11752TIP3   OH256670   1.804   6.283  11.522  0.9547 -0.5742  0.0721
11752TIP3    H156671   1.854   6.287  11.604 -0.5367  0.9273  1.0005
11752TIP3    H256672   1.722   6.239  11.547  0.0599  0.8009 -0.3127
11753TIP3   OH256673   1.883   6.560   3.578 -0.6896  0.1945 -0.1624
11753TIP3    H156674   1.853   6.561   3.487  0.3758  2.7508 -0.5540
11753TIP3    H256675   1.806   6.532   3.628 -1.4605 -0.6808 -1.7686
11754TIP3   OH256676   5.760   6.190  13.300 -0.5471 -0.2483  0.0562
11754TIP3    H156677   5.691   6.230  13.353  0.6202  0.8871  0.7908
11754TIP3    H256678   5.746   6.225  13.212 -1.2802 -0.5422  0.0455
11755TIP3   OH256679   6.328   3.513  11.812  0.3567  0.0488  0.4564
11755TIP3    H156680   6.335   3.419  11.800  1.7921  0.3191 -1.2706
11755TIP3    H256681   6.316   3.548  11.723 -0.8130  1.4595  1.1187
11756TIP3   OH256682   3.015   2.654   0.828  0.2461 -0.2753  0.2040
11756TIP3    H156683   3.041   2.602   0.752  1.6044  0.2053  0.3092
11756TIP3    H256684   2.971   2.731   0.791  0.7994 -0.1016 -0.0968
11757TIP3   OH256685   3.874   4.560  17.353 -0.4269  0.4990  0.0117
11757TIP3    H156686   3.906   4.611  17.427 -1.0233  1.3062 -0.2794
11757TIP3    H256687   3.934   4.582  17.281 -1.0771  1.3287 -0.2944
11758TIP3   OH256688   0.053   4.852  16.874 -0.6763  0.9304 -0.3103
11758TIP3    H156689   0.065   4.946  16.890 -0.2644  0.9460 -0.7059
11758TIP3    H256690   0.067   4.841  16.780  0.0558  0.3574 -0.1450
11759TIP3   OH256691   5.304   4.150   4.005 -0.7733  0.1559  0.2453
11759TIP3    H156692   5.258   4.123   3.925 -1.6841  1.5042  0.2879
11759TIP3    H256693   5.249   4.218   4.043  0.9040  1.3685  0.6620
11760TIP3   OH256694   2.602   1.641  12.614  0.4677 -0.3702 -0.4444
11760TIP3    H156695   2.548   1.696  12.671  1.8271 -0.8728  1.4150
11760TIP3    H256696   2.569   1.658  12.526 -0.2888  2.0868  0.2501
11761TIP3   OH256697   3.234   2.075   0.635 -0.0849 -0.2850  0.2056
11761TIP3    H156698   3.205   2.085   0.544  1.5758 -1.4537 -0.5178
11761TIP3    H256699   3.163   2.027   0.677 -0.9268  0.3614 -0.4356
11762TIP3   OH256700   3.219   4.884   5.701 -0.6600 -0.2688  0.1420
11762TIP3    H156701   3.168   4.917   5.775  0.3950 -0.8606  1.1751
11762TIP3    H256702   3.184   4.797   5.685  0.8178 -1.2373  1.7454
11763TIP3   OH256703   0.034   1.529  16.113  0.3210  0.4461  0.4068
11763TIP3    H156704  -0.053   1.562  16.089  0.1557  0.1657  0.6203
11763TIP3    H256705   0.077   1.604  16.155  1.0347  1.3140 -1.7480
11764TIP3   OH256706   5.650   5.789   4.524 -0.2733  0.6546 -0.0149
11764TIP3    H156707   5.632   5.874   4.564 -1.1545  0.6212 -0.3157
11764TIP3    H256708   5.601   5.791   4.441 -0.7309 -0.3316  0.2120
11765TIP3   OH256709   5.806   4.118  12.434 -0.1991  0.0097 -0.5081
11765TIP3    H156710   5.718   4.079  12.432  1.0494 -3.0674 -0.2343
11765TIP3    H256711   5.836   4.104  12.524  0.7030  0.8379 -0.6635
11766TIP3   OH256712   4.927   5.373   0.341 -0.1756  0.4306 -0.1624
11766TIP3    H156713   4.893   5.297   0.293  0.0347 -0.0541  0.4465
11766TIP3    H256714   4.869   5.382   0.417  0.2968  0.3660  0.2107
11767TIP3   OH256715   4.387   5.603  13.966  0.3015 -0.0114  0.0006
11767TIP3    H156716   4.445   5.559  13.904  1.6931  0.5530  0.8680
11767TIP3    H256717   4.385   5.694  13.937 -1.9488 -0.3805 -1.3150
11768TIP3   OH256718   1.440   1.099   0.837  0.2298 -0.0693  0.0988
11768TIP3    H156719   1.477   1.051   0.912 -1.0178 -0.6765  0.3487
11768TIP3    H256720   1.493   1.072   0.762  1.2975  0.3057  0.6911
11769TIP3   OH256721   5.206   6.610  14.411 -0.2705 -0.4400  0.4986
11769TIP3    H156722   5.194   6.705  14.413  0.2078 -0.3488 -0.3918
11769TIP3    H256723   5.299   6.597  14.424  0.3172 -0.5581 -2.8254
11770TIP3   OH256724   2.975   4.431  12.740  0.3261  0.1534 -0.0095
11770TIP3    H156725   2.979   4.498  12.672  0.2824  0.1884  0.0215
11770TIP3    H256726   3.061   4.388  12.737  0.8136  1.0357  0.7984
11771TIP3   OH256727   2.551   1.546  12.063 -0.4588  0.5774  0.0003
11771TIP3    H156728   2.564   1.601  12.141  0.1064  0.3127  0.0965
11771TIP3    H256729   2.456   1.533  12.059 -0.7527  2.6868 -0.8071
11772TIP3   OH256730   3.919   2.336   5.889 -0.1935  0.4889 -0.4601
11772TIP3    H156731   3.992   2.280   5.864  0.0957  0.5268  0.2747
11772TIP3    H256732   3.915   2.402   5.820 -0.3851 -0.2867 -1.2057
11773TIP3   OH256733   1.863   5.119  15.495  0.1975 -0.4578 -0.0460
11773TIP3    H156734   1.895   5.209  15.502  2.1716 -1.1835  1.6746
11773TIP3    H256735   1.912   5.082  15.422 -1.0242 -0.0349 -1.1176
11774TIP3   OH256736   5.894   3.262  11.322  0.2641  0.5876 -0.7342
11774TIP3    H156737   5.846   3.180  11.328  0.1861  0.5610 -1.6482
11774TIP3    H256738   5.829   3.329  11.343  0.5829  0.3754  1.1009
11775TIP3   OH256739   6.733   2.827  11.384 -0.0055  0.1816  0.3508
11775TIP3    H156740   6.715   2.831  11.290 -2.9015  1.3130  0.8213
11775TIP3    H256741   6.713   2.737  11.408 -2.0406  0.5523  0.2506
11776TIP3   OH256742   0.823   0.828  15.983 -0.0857  0.0988 -0.9718
11776TIP3    H156743   0.739   0.812  16.025  1.3440 -0.4499  1.9424
11776TIP3    H256744   0.881   0.759  16.017  1.6278  0.5832 -2.6854
11777TIP3   OH256745   6.175   2.702  13.341  0.7379  0.0473 -0.7022
11777TIP3    H156746   6.243   2.636  13.349  1.1766  0.6611  1.1512
11777TIP3    H256747   6.148   2.699  13.249  1.7084 -1.7229 -0.9545
11778TIP3   OH256748   3.135   2.832   1.009  0.0537 -0.3982  0.1333
11778TIP3    H156749   3.190   2.878   0.945 -1.9864  1.2089 -0.5474
11778TIP3    H256750   3.099   2.758   0.961 -0.1456 -0.1682 -0.0691
11779TIP3   OH256751   6.721   3.547   1.485 -1.0577 -0.3367  0.3306
11779TIP3    H156752   6.704   3.641   1.494 -2.6916 -0.6497  0.7921
11779TIP3    H256753   6.796   3.531   1.543 -0.4408  0.7557 -0.1341
11780TIP3   OH256754   1.393   1.139  12.268  0.2732  0.6388 -0.7413
11780TIP3    H156755   1.428   1.050  12.264 -0.1360  0.4891 -1.0754
11780TIP3    H256756   1.443   1.181  12.337 -0.7269 -0.3772  0.6634
11781TIP3   OH256757   4.843   0.229  14.515  0.6583 -0.3242 -0.3273
11781TIP3    H156758   4.917   0.288  14.527  1.4970 -1.2892 -0.6704
11781TIP3    H256759   4.823   0.235  14.421  0.0840  0.1643 -0.1856
11782TIP3   OH256760   4.022   4.799   1.642  0.4015  0.4477  0.5453
11782TIP3    H156761   3.948   4.861   1.641  0.1015  0.0941  0.6290
11782TIP3    H256762   4.021   4.763   1.730  0.5935  0.3411  0.5038
11783TIP3   OH256763   1.457   4.843  16.660 -0.1783 -0.2476 -0.1445
11783TIP3    H156764   1.538   4.843  16.712 -0.5941  0.2172  0.5068
11783TIP3    H256765   1.488   4.851  16.569  0.7367 -3.9926 -0.3521
11784TIP3   OH256766   0.808   5.128  16.814  0.6722 -0.2163 -0.5569
11784TIP3    H156767   0.841   5.145  16.902  1.1366 -1.9017 -0.3637
11784TIP3    H256768   0.839   5.203  16.762 -3.0677  3.0376  1.3900
11785TIP3   OH256769   2.593   2.577   0.055  0.1152  0.4598  0.1464
11785TIP3    H156770   2.505   2.544   0.071  0.3510  0.2235  1.0132
11785TIP3    H256771   2.624   2.607   0.140  1.3872 -0.7672  0.1615
11786TIP3   OH256772   2.917   4.703   2.053 -0.5244 -0.4806 -0.1950
11786TIP3    H156773   2.951   4.669   2.136  1.9898 -1.6627 -1.5748
11786TIP3    H256774   2.899   4.624   2.001 -2.4496  0.2261 -0.6955
11787TIP3   OH256775   6.718   0.162   2.753 -1.0367  0.0746  0.0470
11787TIP3    H156776   6.667   0.083   2.771 -0.9676  0.1751  0.7232
11787TIP3    H256777   6.705   0.216   2.831  0.9230 -0.3350  0.7199
11788TIP3   OH256778   5.429   1.352  12.928 -0.5133  0.6317 -0.4577
11788TIP3    H156779   5.464   1.287  12.866 -1.0551 -1.0689  0.9208
11788TIP3    H256780   5.338   1.364  12.901 -1.4883 -1.9224  1.2694
11789TIP3   OH256781   1.788   1.014  14.394  0.4610  0.1067  0.0914
11789TIP3    H156782   1.837   1.084  14.435  0.1642  0.9290 -0.9111
11789TIP3    H256783   1.736   0.975  14.465  1.0914  0.4885  0.7706
11790TIP3   OH256784   0.124   2.202   5.717 -0.9400  0.1186  0.2970
11790TIP3    H156785   0.069   2.218   5.793 -1.9473  1.1290 -0.5938
11790TIP3    H256786   0.064   2.167   5.651  0.0183 -1.2559  0.1153
11791TIP3   OH256787   4.888   4.099   4.305 -0.0846 -0.0988 -0.1921
11791TIP3    H156788   4.927   4.130   4.223  0.9844 -0.5303  0.1231
11791TIP3    H256789   4.888   4.175   4.362 -1.2296  0.3120 -0.7191
11792TIP3   OH256790   2.325   5.338  12.970  0.4698 -0.2064  0.0716
11792TIP3    H156791   2.374   5.321  12.890 -2.0060 -0.3770 -1.5322
11792TIP3    H256792   2.243   5.378  12.940 -1.2880 -1.8078  2.3445
11793TIP3   OH256793   2.616   6.427  11.083 -0.1636 -0.2338  0.0121
11793TIP3    H156794   2.616   6.474  11.000 -2.3575 -0.1186 -0.0019
11793TIP3    H256795   2.523   6.408  11.100  0.0682  0.6222  2.9053
11794TIP3   OH256796   3.699   0.122  10.878  0.1573 -0.3228 -0.3685
11794TIP3    H156797   3.779   0.088  10.840  0.6425 -1.7927  1.7612
11794TIP3    H256798   3.631   0.060  10.851 -0.1487  0.4373 -1.4393
11795TIP3   OH256799   4.607   5.238  11.153  0.8458  0.4486  0.4099
11795TIP3    H156800   4.537   5.201  11.100 -0.7348  3.5162  0.1250
11795TIP3    H256801   4.671   5.167  11.162 -1.1042 -1.6961 -1.4296
11796TIP3   OH256802   2.441   6.373   0.350  0.2501 -0.0169  0.8566
11796TIP3    H156803   2.352   6.345   0.328  0.7750 -2.2849  1.3942
11796TIP3    H256804   2.460   6.443   0.288 -2.0097  0.7441  0.9378
11797TIP3   OH256805   1.180   1.328  11.377  0.8104 -1.4552  0.0745
11797TIP3    H156806   1.185   1.391  11.305  1.7767 -0.8000  0.6863
11797TIP3    H256807   1.271   1.302  11.392  0.6758 -1.2889  1.2978
11798TIP3   OH256808   3.797   5.095  11.234  0.1796  0.1195  0.1235
11798TIP3    H156809   3.876   5.149  11.224 -0.1235  0.5246 -0.1033
11798TIP3    H256810   3.752   5.103  11.150 -1.1428  1.5456  0.9189
11799TIP3   OH256811   4.998   4.114   4.811  0.2627 -0.1654  0.2128
11799TIP3    H156812   5.024   4.166   4.887 -2.3446  1.1913  0.2699
11799TIP3    H256813   4.982   4.027   4.846  0.4379  0.0931  0.9581
11800TIP3   OH256814   5.813   0.187  16.991 -0.6479 -0.1043  0.5473
11800TIP3    H156815   5.839   0.095  16.980 -1.9849 -0.5485  0.9638
11800TIP3    H256816   5.741   0.200  16.930 -0.3806  0.7182  0.3882
11801TIP3   OH256817   1.583   4.886   4.910 -0.0231 -0.2280 -0.5036
11801TIP3    H156818   1.495   4.877   4.873 -0.5162 -0.2104  0.6321
11801TIP3    H256819   1.580   4.968   4.960  0.2717 -0.8385  0.5278
11802TIP3   OH256820   0.133   3.057   1.589  0.0725  0.5546  0.3313
11802TIP3    H156821   0.112   3.018   1.504 -0.3711  2.1246 -0.3166
11802TIP3    H256822   0.066   3.022   1.648 -0.0960  0.0575 -0.1371
11803TIP3   OH256823   1.634   2.424  14.720  0.2518  0.0721  0.1967
11803TIP3    H156824   1.584   2.367  14.778 -0.9293 -1.2924 -2.0416
11803TIP3    H256825   1.719   2.381  14.711 -0.2998 -0.8586 -0.7160
11804TIP3   OH256826   1.373   0.330  11.512 -0.2458  0.4781 -0.2678
11804TIP3    H156827   1.290   0.376  11.526 -0.1859  0.7762 -0.8649
11804TIP3    H256828   1.349   0.250  11.465 -0.3900 -0.2877  1.0576
11805TIP3   OH256829   1.832   1.546   4.187  0.0309 -0.2469 -0.0897
11805TIP3    H156830   1.806   1.551   4.279  0.2211 -0.6402 -0.0140
11805TIP3    H256831   1.765   1.490   4.147 -0.5981  0.6876 -0.3941
11806TIP3   OH256832   6.240   5.417   1.990 -0.2371  0.3178  0.0467
11806TIP3    H156833   6.216   5.433   2.081  0.3090  1.4546  0.0035
11806TIP3    H256834   6.271   5.326   1.989 -1.1605 -0.0217  0.7860
11807TIP3   OH256835   6.734   3.605  11.415 -0.3315 -0.1998 -0.1866
11807TIP3    H156836   6.779   3.681  11.378 -0.7527 -0.1028 -0.5103
11807TIP3    H256837   6.774   3.530  11.370  1.9401 -0.4069  2.0023
11808TIP3   OH256838   5.774   1.503  15.244  0.2943  0.3157  0.0478
11808TIP3    H156839   5.854   1.488  15.194  1.1276  2.3854  0.6638
11808TIP3    H256840   5.779   1.595  15.271 -2.9361  0.9443 -1.0330
11809TIP3   OH256841   2.766   1.071  15.363  0.0118 -0.5411 -0.1191
11809TIP3    H156842   2.714   0.992  15.381 -1.1903  0.2041 -0.1875
11809TIP3    H256843   2.705   1.129  15.317  0.8829  0.4233 -0.0804
11810TIP3   OH256844   5.338   3.897   6.358 -0.2974  0.0843  0.6930
11810TIP3    H156845   5.330   3.835   6.430 -1.5735  0.3913  0.8458
11810TIP3    H256846   5.263   3.955   6.369 -0.0479  0.6343 -0.4156
11811TIP3   OH256847   5.553   0.226  15.981  0.0846  0.1533  0.0758
11811TIP3    H156848   5.467   0.210  15.944  0.3757  1.7403 -1.3778
11811TIP3    H256849   5.544   0.306  16.032  0.8448  0.7692 -0.7199
11812TIP3   OH256850   6.572   5.729  15.655  0.2674  0.2988  0.9548
11812TIP3    H156851   6.504   5.698  15.594  0.8957 -1.0076  0.8784
11812TIP3    H256852   6.608   5.648  15.692  2.4335  0.9095  0.2800
11813TIP3   OH256853   1.242   2.912   5.385 -0.0487  0.3604  0.2990
11813TIP3    H156854   1.157   2.956   5.376 -2.0807 -3.3651 -0.7715
11813TIP3    H256855   1.220   2.823   5.413  3.2675 -1.5022 -2.3079
11814TIP3   OH256856   2.568   2.799  16.775  0.7788  0.7929  0.9001
11814TIP3    H156857   2.550   2.729  16.838  0.2415  1.8200  1.9094
11814TIP3    H256858   2.655   2.779  16.741 -0.3020 -1.7153 -0.6414
11815TIP3   OH256859   5.389   6.665   2.975  0.3294  0.6663  0.3517
11815TIP3    H156860   5.372   6.645   3.067  1.2587  1.2881  0.6671
11815TIP3    H256861   5.360   6.756   2.964  2.0063  1.2416  0.5271
11816TIP3   OH256862   6.120   0.810  13.800 -0.1395 -0.4136 -0.0530
11816TIP3    H156863   6.097   0.717  13.789  1.4375 -0.7681 -0.5503
11816TIP3    H256864   6.038   0.851  13.827 -0.6817 -2.0978  1.0623
11817TIP3   OH256865   1.933   5.450  12.597 -0.1226 -0.1461  0.2623
11817TIP3    H156866   1.937   5.455  12.501 -3.0411 -0.5060  0.0439
11817TIP3    H256867   1.926   5.542  12.624  1.2139 -0.0046  0.2228
11818TIP3   OH256868   4.362   1.777  13.157  0.3942 -0.6105  0.1208
11818TIP3    H156869   4.340   1.746  13.069  1.1502  1.3979 -0.8413
11818TIP3    H256870   4.305   1.852  13.171  1.7969  0.4379  0.4119
11819TIP3   OH256871   2.905   0.028  15.839 -0.1195  0.1627  0.0407
11819TIP3    H156872   2.949   0.085  15.902 -0.1006  0.0814  0.1023
11819TIP3    H256873   2.817   0.016  15.875 -1.0061  2.2450 -1.2714
11820TIP3   OH256874   3.757   5.639  13.818  0.1842  0.3075 -0.2888
11820TIP3    H156875   3.809   5.559  13.815  0.9108  0.7603 -0.1806
11820TIP3    H256876   3.676   5.614  13.863  0.9697 -0.0636  0.9691
11821TIP3   OH256877   5.629   5.532  13.676  0.4220  0.5231 -0.4290
11821TIP3    H156878   5.624   5.475  13.599  0.0662 -2.1722  1.4710
11821TIP3    H256879   5.710   5.506  13.719 -0.0715  0.9891  0.8213
11822TIP3   OH256880   4.523   0.020  15.920 -0.3170 -0.1835  0.4267
11822TIP3    H156881   4.514  -0.059  15.867 -0.8928 -0.1718  0.4992
11822TIP3    H256882   4.490   0.090  15.864 -0.8826 -0.1646  0.7749
11823TIP3   OH256883   4.654   1.764  11.742 -0.1004  0.0209 -0.4127
11823TIP3    H156884   4.593   1.730  11.808  1.9250 -2.3586  0.3949
11823TIP3    H256885   4.621   1.730  11.659 -1.0877  0.6244 -0.2759
11824TIP3   OH256886   4.309   4.854   1.799 -0.1415 -0.5864 -0.1267
11824TIP3    H156887   4.227   4.904   1.792  0.5110  0.5371 -0.0249
11824TIP3    H256888   4.371   4.916   1.836  0.5643 -1.6666  0.5473
11825TIP3   OH256889   2.839   6.039   0.431  0.7693  0.2097 -0.5884
11825TIP3    H156890   2.835   6.134   0.422 -0.5607  0.0552 -2.0564
11825TIP3    H256891   2.837   6.006   0.341  1.1415 -1.2122 -0.1042
11826TIP3   OH256892   4.825   3.439  15.771  0.0988 -0.1466 -0.5616
11826TIP3    H156893   4.837   3.365  15.830  1.2073 -1.8871 -2.7805
11826TIP3    H256894   4.785   3.400  15.692 -3.1375  2.3838 -0.3649
11827TIP3   OH256895   0.530   1.592   2.585  0.2414  1.0422  0.2541
11827TIP3    H156896   0.446   1.590   2.539  0.5944  2.7054 -0.5438
11827TIP3    H256897   0.594   1.568   2.518  0.7033  2.9262 -0.0150
11828TIP3   OH256898   6.388   3.802  13.579 -0.8265  0.2873  0.1813
11828TIP3    H156899   6.343   3.726  13.541 -0.9872 -0.5013  1.8864
11828TIP3    H256900   6.405   3.778  13.670  1.7451  1.1563  0.0194
11829TIP3   OH256901   1.670   3.393   5.571 -0.4071 -0.0535  0.2290
11829TIP3    H156902   1.633   3.458   5.512  0.9433 -0.4878 -1.1699
11829TIP3    H256903   1.734   3.442   5.623  0.5701 -0.2002 -0.7853
11830TIP3   OH256904   0.384   1.053  15.095 -0.7677  0.6564 -0.1927
11830TIP3    H156905   0.407   0.979  15.038  0.7789  1.7096 -1.0054
11830TIP3    H256906   0.465   1.074  15.140 -1.4696  1.1795  0.8518
11831TIP3   OH256907   4.139   5.627   2.827 -0.3639  0.2971 -0.2199
11831TIP3    H156908   4.186   5.568   2.768 -0.3169  0.6837 -0.5747
11831TIP3    H256909   4.047   5.621   2.799 -0.1042  1.8502 -1.5492
11832TIP3   OH256910   1.112   1.890   5.263 -0.4086 -0.1208 -0.2838
11832TIP3    H156911   1.170   1.940   5.320 -1.1003  0.9475 -0.4809
11832TIP3    H256912   1.054   1.956   5.224 -1.2236 -1.0610 -0.7075
11833TIP3   OH256913   2.733   0.803   2.483  0.0379  0.6084 -0.5996
11833TIP3    H156914   2.704   0.714   2.502 -1.3421  1.2350  0.4423
11833TIP3    H256915   2.652   0.851   2.465 -0.3775  3.2355  5.5843
11834TIP3   OH256916   4.388   3.408   2.496 -0.0089 -0.3308  0.4137
11834TIP3    H156917   4.452   3.475   2.474 -0.2276 -0.2092  0.1348
11834TIP3    H256918   4.330   3.405   2.420 -0.8247  0.1433  1.0010
11835TIP3   OH256919   5.522   5.944  15.064 -0.1320 -0.4258 -0.0499
11835TIP3    H156920   5.467   5.875  15.101 -0.6272  0.7319  1.4851
11835TIP3    H256921   5.612   5.916  15.083 -0.2430 -1.4449 -0.9571
11836TIP3   OH256922   0.648   2.597  16.750 -0.1424  0.2623  0.4386
11836TIP3    H156923   0.579   2.583  16.684  2.0079 -0.3851 -1.8252
11836TIP3    H256924   0.683   2.683  16.729  0.8261 -0.1147  0.4729
11837TIP3   OH256925   3.728   3.018   3.870 -0.4764 -0.5490 -0.4093
11837TIP3    H156926   3.724   3.078   3.945  0.6955  2.2268 -2.3718
11837TIP3    H256927   3.648   3.037   3.821  0.1252 -0.2467 -1.2843
11838TIP3   OH256928   3.611   3.979   3.642  0.6069  0.7133 -0.1601
11838TIP3    H156929   3.652   3.919   3.704  1.3467 -0.0271 -1.3370
11838TIP3    H256930   3.685   4.020   3.597  0.1177  2.4850  0.5644
11839TIP3   OH256931   6.608   6.722  12.368  0.3953  0.4369 -0.3293
11839TIP3    H156932   6.685   6.666  12.381  0.0953 -0.0525 -0.6554
11839TIP3    H256933   6.632   6.779  12.295  0.7217  0.7799  0.0391
11840TIP3   OH256934   2.948   6.257  16.534 -0.1258  0.0503 -0.4137
11840TIP3    H156935   2.931   6.190  16.468 -0.3777 -0.4806  0.1716
11840TIP3    H256936   2.961   6.337  16.485  0.2674 -0.4494 -1.1335
11841TIP3   OH256937   0.606   6.006  16.133 -0.0471  0.3716  0.5276
11841TIP3    H156938   0.661   5.981  16.207  0.6950  1.2251  0.2910
11841TIP3    H256939   0.663   5.994  16.056 -0.2283  1.1209  0.2665
11842TIP3   OH256940   5.502   4.046   0.189  0.1934  0.2582  0.1930
11842TIP3    H156941   5.502   3.983   0.117  1.9514  1.0263 -0.5521
11842TIP3    H256942   5.423   4.098   0.175  0.2992  0.1320 -0.9757
11843TIP3   OH256943   1.988   4.923  12.067  0.0984  0.2014  0.1303
11843TIP3    H156944   2.077   4.897  12.091  0.3965 -0.0826 -1.2175
11843TIP3    H256945   1.940   4.922  12.150  1.4218  0.7039  0.9391
11844TIP3   OH256946   6.154   4.991  16.994 -0.7757  0.3445 -0.1896
11844TIP3    H156947   6.167   5.086  16.992 -1.4595  0.4628  0.4520
11844TIP3    H256948   6.060   4.980  17.004 -0.6204 -0.3980  0.5426
11845TIP3   OH256949   6.277   1.308  13.608  0.0210  0.0606 -0.1759
11845TIP3    H156950   6.257   1.224  13.650 -0.4129  0.5537  0.6495
11845TIP3    H256951   6.201   1.364  13.630 -0.1596  0.3770 -1.5383
11846TIP3   OH256952   2.682   3.201  14.468  0.0676  0.0983  0.0294
11846TIP3    H156953   2.633   3.260  14.411 -1.2252 -0.0660  0.9229
11846TIP3    H256954   2.620   3.177  14.537  1.8333  1.0850  2.1030
11847TIP3   OH256955   1.836   6.617  13.102 -0.5587  0.2699 -0.4875
11847TIP3    H156956   1.888   6.551  13.056  1.4163  1.1297  0.3981
11847TIP3    H256957   1.761   6.633  13.045 -0.1457 -1.4040 -1.5701
11848TIP3   OH256958   3.843   5.905  11.933 -0.0935 -0.1559  0.0485
11848TIP3    H156959   3.888   5.821  11.931  0.6758  0.2415  0.4039
11848TIP3    H256960   3.897   5.963  11.880 -0.8972 -0.0077 -0.6395
11849TIP3   OH256961   4.591   1.225  11.673 -0.3995  0.0222 -0.0916
11849TIP3    H156962   4.598   1.320  11.664 -0.5486 -0.0954 -1.9801
11849TIP3    H256963   4.656   1.202  11.740  0.2455  1.3649 -0.2199
11850TIP3   OH256964   6.457   4.660  16.304 -0.5090 -0.3660 -0.3577
11850TIP3    H156965   6.470   4.631  16.395 -1.9707 -0.0606 -0.0241
11850TIP3    H256966   6.418   4.584  16.260 -3.1129  0.5350  0.1938
11851TIP3   OH256967   1.067   6.035   4.594  0.5370 -0.2377 -0.4100
11851TIP3    H156968   1.086   6.124   4.564 -1.9947  0.3628 -0.4104
11851TIP3    H256969   1.134   6.018   4.661  1.7661  1.1865 -1.2078
11852TIP3   OH256970   4.081   1.657   5.727 -0.0464  0.3480 -0.1572
11852TIP3    H156971   4.068   1.563   5.727  0.7691  0.2244 -0.0522
11852TIP3    H256972   4.164   1.670   5.773  0.9985  0.9339 -2.0815
11853TIP3   OH256973   2.800   4.479   5.037 -0.2602  0.0996  0.6790
11853TIP3    H156974   2.850   4.533   4.976  0.2365  0.2925  1.2497
11853TIP3    H256975   2.850   4.482   5.118 -1.1819  0.2554  1.2469
11854TIP3   OH256976   6.105   1.303   0.965  0.0737  0.3051  0.2086
11854TIP3    H156977   6.200   1.295   0.975 -0.0965 -0.2929  1.7170
11854TIP3    H256978   6.076   1.216   0.940 -0.1318  0.3281  0.3617
11855TIP3   OH256979   1.923   4.016   3.329 -0.1645 -0.3922 -0.2722
11855TIP3    H156980   1.984   3.968   3.272  1.7964  0.9601  0.5532
11855TIP3    H256981   1.974   4.033   3.409 -2.4018 -1.1035  1.3916
11856TIP3   OH256982   6.462   5.732   1.457  0.2206  0.2375 -0.5082
11856TIP3    H156983   6.481   5.694   1.371 -1.4149 -1.9030 -0.0058
11856TIP3    H256984   6.512   5.679   1.518 -1.5950 -0.7852  0.1615
11857TIP3   OH256985   6.200   0.537   6.157 -0.1107 -0.2385 -0.2853
11857TIP3    H156986   6.144   0.603   6.197  1.0130  0.0151  0.9259
11857TIP3    H256987   6.222   0.477   6.228  0.2106 -1.0040 -1.0051
11858TIP3   OH256988   5.658   4.827  16.999  0.2233  0.2421  0.2176
11858TIP3    H156989   5.601   4.760  17.035 -0.2807 -0.3368 -1.5390
11858TIP3    H256990   5.615   4.910  17.021  0.4593 -0.0153  1.7465
11859TIP3   OH256991   1.947   5.382  15.545  0.1704  0.1474 -0.4996
11859TIP3    H156992   2.037   5.399  15.572  0.8644 -0.7434 -2.1428
11859TIP3    H256993   1.895   5.399  15.624  1.6858  1.2759  0.3063
11860TIP3   OH256994   2.992   5.351  16.178 -0.0261  0.1359  0.6376
11860TIP3    H156995   3.001   5.416  16.247  0.4696  0.2980  0.4245
11860TIP3    H256996   3.014   5.398  16.098 -2.7532  0.5746  0.0362
11861TIP3   OH256997   1.757   0.291  17.067 -0.3423 -0.0522 -0.9552
11861TIP3    H156998   1.708   0.323  17.142  0.8273 -0.2284 -0.0926
11861TIP3    H256999   1.690   0.274  17.000 -1.4519 -0.3205  0.1899
11862TIP3   OH257000   3.335   2.116   3.076 -0.5349 -0.0908  0.1169
11862TIP3    H157001   3.319   2.208   3.055 -0.2425 -0.0078  0.2476
11862TIP3    H257002   3.264   2.092   3.135 -0.1845  0.2741  0.6998
11863TIP3   OH257003   5.706   0.543   5.511 -0.3055 -0.0040 -0.2077
11863TIP3    H157004   5.743   0.620   5.556  0.4994 -0.0435 -0.7893
11863TIP3    H257005   5.712   0.473   5.575  2.2547 -0.4394 -0.8226
11864TIP3   OH257006   5.176   5.155  12.199  0.2726 -0.4546  0.0893
11864TIP3    H157007   5.099   5.113  12.159 -0.9677  1.3420  0.4878
11864TIP3    H257008   5.236   5.168  12.125 -0.0568 -1.2766 -0.3489
11865TIP3   OH257009   5.631   2.740   5.992 -0.2170  0.0223 -0.4188
11865TIP3    H157010   5.539   2.714   5.995  0.0430 -0.8444  1.5446
11865TIP3    H257011   5.680   2.661   6.015  1.0969  0.3038 -2.0308
11866TIP3   OH257012   0.600   5.289   5.550 -0.2500  0.1769 -0.0103
11866TIP3    H157013   0.664   5.345   5.505  0.7265 -1.2988 -0.5280
11866TIP3    H257014   0.634   5.280   5.639 -0.5128  0.5600  0.1303
11867TIP3   OH257015   2.523   5.498   4.389 -0.5216 -0.2000 -0.3478
11867TIP3    H157016   2.471   5.425   4.423 -1.5058  0.9923  0.7752
11867TIP3    H257017   2.480   5.576   4.423  1.5033  0.8683 -0.1118
11868TIP3   OH257018   2.747   3.504  15.048  0.0759  0.2830  0.2032
11868TIP3    H157019   2.804   3.568  15.006  0.6449 -0.8251 -0.7709
11868TIP3    H257020   2.796   3.475  15.125 -0.1152  0.8855  0.5578
11869TIP3   OH257021   0.251   3.107  14.363  0.1320  0.0797  0.0168
11869TIP3    H157022   0.262   3.194  14.402  0.3619 -0.2993  0.8153
11869TIP3    H257023   0.339   3.082  14.336  0.0508  0.1320 -0.2975
11870TIP3   OH257024   3.208   4.746  10.598  0.1732 -1.0843 -0.2275
11870TIP3    H157025   3.115   4.743  10.576 -0.7861 -0.0921  3.0645
11870TIP3    H257026   3.229   4.657  10.625 -1.0053 -0.5642  2.7528
11871TIP3   OH257027   4.774   0.035  13.675  0.4383 -0.2008  0.1191
11871TIP3    H157028   4.795  -0.032  13.609  0.5581 -0.3265  0.2836
11871TIP3    H257029   4.719  -0.012  13.739  0.1919 -0.0398  0.0279
11872TIP3   OH257030   1.335   3.257   0.411  0.3225 -0.2321  0.1726
11872TIP3    H157031   1.318   3.209   0.492 -0.2689  2.4521  1.7465
11872TIP3    H257032   1.429   3.244   0.394  0.3242 -1.3185  0.9277
11873TIP3   OH257033   1.833   6.705  12.170  0.2352 -0.3936 -0.1099
11873TIP3    H157034   1.790   6.763  12.106  0.3723  1.2946  1.2677
11873TIP3    H257035   1.803   6.617  12.146 -2.4598  0.5103 -0.4179
11874TIP3   OH257036   3.437   5.359  16.009 -0.6634  0.1663 -0.0230
11874TIP3    H157037   3.508   5.299  16.032 -1.7528 -1.1771 -0.0401
11874TIP3    H257038   3.392   5.376  16.092 -0.9764  0.1308 -0.1830
11875TIP3   OH257039   1.413   4.534   3.046 -0.6413  0.8223  0.7366
11875TIP3    H157040   1.424   4.471   3.118 -0.2299 -0.5247 -0.4596
11875TIP3    H257041   1.497   4.578   3.039  1.2333 -2.6675 -2.1382
11876TIP3   OH257042   3.108   6.757   0.740 -0.4443 -0.2029 -0.2301
11876TIP3    H157043   3.162   6.809   0.681 -1.0967  0.5651 -0.1704
11876TIP3    H257044   3.031   6.811   0.756 -0.1421 -0.2409  1.5757
11877TIP3   OH257045   5.268   6.598   1.897  0.1770  0.3515 -0.4203
11877TIP3    H157046   5.178   6.629   1.887  0.2992  0.5975 -0.7846
11877TIP3    H257047   5.296   6.631   1.982  0.2989  1.2488 -0.7937
11878TIP3   OH257048   2.856   5.510   5.220 -0.2336  0.1876 -0.3396
11878TIP3    H157049   2.938   5.481   5.260 -1.2134 -1.9910  0.2087
11878TIP3    H257050   2.878   5.594   5.179  1.7044  0.7289  1.6354
11879TIP3   OH257051   2.195   6.178   2.033 -0.2679  0.6226 -0.6163
11879TIP3    H157052   2.199   6.272   2.053 -1.3972  0.4634  0.4419
11879TIP3    H257053   2.287   6.152   2.026  0.0931  1.6012  0.1154
11880TIP3   OH257054   3.988   6.721  13.889 -0.2880  0.1729  0.1743
11880TIP3    H157055   3.912   6.670  13.919  1.4247 -1.0861  2.7740
11880TIP3    H257056   4.024   6.760  13.969  0.0769  3.3470 -1.3925
11881TIP3   OH257057   5.448   3.154  14.066  0.9148 -0.6199 -0.1738
11881TIP3    H157058   5.461   3.178  14.158 -1.0568  0.0609 -0.0158
11881TIP3    H257059   5.467   3.234  14.017  0.5498 -0.5497 -0.2091
11882TIP3   OH257060   4.292   1.855   0.826 -0.1380  0.2966  0.3093
11882TIP3    H157061   4.323   1.882   0.740 -0.5705  2.3760  0.7586
11882TIP3    H257062   4.296   1.759   0.824 -1.1402  0.2248 -2.3869
11883TIP3   OH257063   0.207   2.624   2.728  0.5421  0.4736  0.2259
11883TIP3    H157064   0.285   2.636   2.674  1.8290 -0.0257  1.8830
11883TIP3    H257065   0.178   2.713   2.748  1.5132  0.6856  0.7186
11884TIP3   OH257066   4.133   6.718   3.730  0.2814 -0.1816 -0.7310
11884TIP3    H157067   4.082   6.798   3.743  0.3129 -0.0044 -1.6446
11884TIP3    H257068   4.215   6.735   3.777  0.0102  0.0412 -0.3303
11885TIP3   OH257069   3.828   0.901   5.386 -0.1972  0.0067  0.0355
11885TIP3    H157070   3.903   0.841   5.389 -0.5447 -0.4367 -0.0845
11885TIP3    H257071   3.811   0.912   5.292 -0.2087  0.1985  0.0603
11886TIP3   OH257072   4.660   1.496   0.737 -0.7676 -0.3897  0.1843
11886TIP3    H157073   4.738   1.456   0.774 -0.0276  1.2005  0.4569
11886TIP3    H257074   4.661   1.472   0.645  1.1843  1.2042 -0.2816
11887TIP3   OH257075   5.574   1.462  14.772 -0.5316 -0.1120  0.2254
11887TIP3    H157076   5.493   1.455  14.823 -0.0921 -2.4522  0.7401
11887TIP3    H257077   5.624   1.384  14.797  1.7946  1.1505 -0.2540
11888TIP3   OH257078   0.111   4.145  14.720  0.4432 -0.2159  0.2383
11888TIP3    H157079   0.073   4.103  14.643 -0.0873 -1.3171  1.0669
11888TIP3    H257080   0.044   4.206  14.751  0.3738 -0.2850  0.2239
11889TIP3   OH257081   1.781   1.753   4.677  0.7652 -0.4469  0.2881
11889TIP3    H157082   1.868   1.721   4.699  0.8968 -0.1020  0.2717
11889TIP3    H257083   1.795   1.843   4.647  0.5166 -0.6947 -0.5952
11890TIP3   OH257084   5.047   6.102   5.250  0.1521  0.1863 -0.7270
11890TIP3    H157085   4.973   6.092   5.189 -0.3975 -0.1999 -0.0169
11890TIP3    H257086   5.049   6.195   5.270  0.0812  0.2524 -1.0157
11891TIP3   OH257087   4.049   6.268  11.267  0.1562  0.7453  0.1023
11891TIP3    H157088   3.982   6.331  11.295 -0.0169 -0.4062  2.5722
11891TIP3    H257089   4.122   6.322  11.238 -0.6178  2.0651  0.5174
11892TIP3   OH257090   4.907   2.581   0.905 -0.3445  0.2974 -0.1085
11892TIP3    H157091   4.954   2.529   0.840 -2.2207  0.6710 -1.8588
11892TIP3    H257092   4.865   2.517   0.963 -0.8190 -0.1129 -0.8948
11893TIP3   OH257093   5.721   2.037  14.726  0.8094 -0.1883 -0.1566
11893TIP3    H157094   5.662   2.062  14.796 -0.1443  0.5367 -1.1916
11893TIP3    H257095   5.758   1.953  14.755  0.9518  0.4006  1.4952
11894TIP3   OH257096   2.689   4.973  10.427 -0.0784 -0.3930  0.5973
11894TIP3    H157097   2.678   5.064  10.454  2.9762 -0.2825  1.8396
11894TIP3    H257098   2.702   4.925  10.509 -1.1018 -1.8991 -0.0753
11895TIP3   OH257099   4.130   2.851  13.264 -0.0109 -0.4144  0.1573
11895TIP3    H157100   4.062   2.802  13.310  1.4884 -1.9985  0.7758
11895TIP3    H257101   4.203   2.790  13.256  1.3769  1.2324 -0.4666
11896TIP3   OH257102   2.890   0.227  14.504  0.0919  0.1282 -1.0071
11896TIP3    H157103   2.852   0.172  14.436 -0.2004 -2.3161  0.9910
11896TIP3    H257104   2.815   0.254  14.558  0.4312  1.1812 -1.0340
11897TIP3   OH257105   4.949   2.209   2.913 -0.2286 -0.1059  0.4317
11897TIP3    H157106   4.911   2.290   2.945 -0.9127  0.0407 -0.6903
11897TIP3    H257107   4.888   2.141   2.943 -0.3322 -0.0685  0.3095
11898TIP3   OH257108   3.437   1.800  16.492  0.2166 -0.3540  0.4363
11898TIP3    H157109   3.515   1.846  16.460 -0.4040 -0.0130 -0.6427
11898TIP3    H257110   3.448   1.710  16.461 -0.9846  0.2472 -1.9940
11899TIP3   OH257111   0.959   6.596   5.676 -0.4564 -0.1788 -0.4949
11899TIP3    H157112   0.951   6.554   5.761  1.9517 -0.4475 -0.3213
11899TIP3    H257113   0.956   6.524   5.613  1.2412 -0.4041 -0.3601
11900TIP3   OH257114   0.709   6.028   1.133 -0.2635 -0.0907 -0.7054
11900TIP3    H157115   0.615   6.043   1.122 -0.3661 -0.7269 -0.6974
11900TIP3    H257116   0.721   6.023   1.228 -0.2789 -0.3931 -0.7205
11901TIP3   OH257117   6.275   4.977  14.080 -0.7294  0.0366  0.4453
11901TIP3    H157118   6.306   5.062  14.112  0.2789 -0.2701  0.3319
11901TIP3    H257119   6.247   4.994  13.990  3.4202 -0.4613 -1.1639
11902TIP3   OH257120   2.770   5.080   4.368  0.0459 -0.2514 -0.0709
11902TIP3    H157121   2.772   5.164   4.415 -1.0021  0.1173 -0.6499
11902TIP3    H257122   2.855   5.075   4.324  0.5647 -0.0344  0.8772
11903TIP3   OH257123   4.617   5.470   3.327 -0.1694 -0.1423  0.0646
11903TIP3    H157124   4.676   5.487   3.254 -0.8481  1.2330 -0.1841
11903TIP3    H257125   4.623   5.548   3.382 -2.1946  0.3150 -0.2795
11904TIP3   OH257126   2.310   3.270  16.012 -0.0490 -0.4297 -0.4460
11904TIP3    H157127   2.331   3.320  15.933 -2.7124  0.3518 -0.7668
11904TIP3    H257128   2.393   3.262  16.058  0.8828  2.6075 -1.3618
11905TIP3   OH257129   6.696   2.150   3.807 -0.1379  0.1789  0.3417
11905TIP3    H157130   6.788   2.133   3.789 -0.1585 -1.2185  1.3661
11905TIP3    H257131   6.665   2.197   3.729  1.3120  0.2536 -0.2290
11906TIP3   OH257132   4.537   1.165  13.018  0.0578 -0.4155 -0.2706
11906TIP3    H157133   4.491   1.145  13.099 -0.1579  1.1474  0.0165
11906TIP3    H257134   4.467   1.179  12.954  0.2199 -1.2559 -0.6464
11907TIP3   OH257135   5.613   3.505  16.678 -0.1962 -0.3449  0.2349
11907TIP3    H157136   5.537   3.523  16.733 -1.7604  1.1237 -2.2427
11907TIP3    H257137   5.686   3.548  16.724 -1.1545 -0.2606  1.7661
11908TIP3   OH257138   4.068   5.672  12.082  0.8459 -0.2645  0.3300
11908TIP3    H157139   4.034   5.691  11.995 -0.1266 -0.2096  0.7147
11908TIP3    H257140   4.050   5.579  12.096  0.1340 -0.0640  0.8348
11909TIP3   OH257141   2.015   1.204  15.142 -0.2956  0.3785  0.4418
11909TIP3    H157142   2.089   1.143  15.130 -0.8623 -0.0948 -0.8820
11909TIP3    H257143   1.956   1.158  15.202 -0.3518 -0.0318  0.0738
11910TIP3   OH257144   4.534   6.018   2.399 -0.0373  0.2678  0.3593
11910TIP3    H157145   4.614   5.967   2.386  0.5296  1.4029 -0.9558
11910TIP3    H257146   4.541   6.052   2.488  0.5157 -0.3474  0.5609
11911TIP3   OH257147   4.983   5.933  13.295  0.1597 -0.2307  0.3181
11911TIP3    H157148   4.952   5.846  13.321  0.2509 -0.3444  0.0519
11911TIP3    H257149   5.058   5.915  13.238  0.5837  0.0361  0.7880
11912TIP3   OH257150   0.919   6.252   0.784 -0.4470  0.6497  0.5286
11912TIP3    H157151   0.905   6.341   0.752 -1.0601  0.6080  0.6569
11912TIP3    H257152   0.971   6.209   0.716 -0.6463  0.9342  0.1940
11913TIP3   OH257153   2.911   6.133   2.837  0.1702 -0.1637  0.1219
11913TIP3    H157154   2.854   6.102   2.907  0.8668  1.6309  1.5584
11913TIP3    H257155   2.874   6.095   2.758 -1.0743 -1.6800  1.3624
11914TIP3   OH257156   6.302   4.726   6.523  0.5472 -0.0857  0.3059
11914TIP3    H157157   6.396   4.722   6.505  0.2124 -2.6751 -1.3141
11914TIP3    H257158   6.274   4.808   6.481  2.1099  0.9814  1.2405
11915TIP3   OH257159   1.419   5.674  17.336  0.2167  0.1486  0.4166
11915TIP3    H157160   1.430   5.698  17.244  2.2659 -1.2701  0.2053
11915TIP3    H257161   1.328   5.648  17.344 -0.2542  1.2718 -0.9459
11916TIP3   OH257162   0.108   6.160  13.131 -0.1700 -0.1583  0.2461
11916TIP3    H157163   0.066   6.222  13.190 -1.5652 -1.3675  0.5936
11916TIP3    H257164   0.042   6.140  13.066  0.8574  0.0317 -0.8961
11917TIP3   OH257165   6.145   1.648   2.836 -0.2166 -0.3224  0.4457
11917TIP3    H157166   6.080   1.707   2.798 -0.6014  0.2779  1.9491
11917TIP3    H257167   6.213   1.707   2.869  0.5851 -0.8812 -0.1729
11918TIP3   OH257168   2.366   2.406   3.843  0.2410  0.1246 -0.1857
11918TIP3    H157169   2.395   2.430   3.755 -1.2791 -1.1401 -1.0645
11918TIP3    H257170   2.380   2.312   3.849 -0.2531  0.0940  0.7019
11919TIP3   OH257171   4.494   4.952   2.669  0.0408  0.0344 -0.5391
11919TIP3    H157172   4.487   5.047   2.680  0.2130  0.3666 -2.8167
11919TIP3    H257173   4.584   4.938   2.640  1.3961 -1.3575  3.5864
11920TIP3   OH257174   1.701   3.186  13.180  0.1460  0.2019 -0.5689
11920TIP3    H157175   1.684   3.151  13.093 -0.2241 -0.0695 -0.3922
11920TIP3    H257176   1.646   3.133  13.238  0.6664  0.1344 -0.1308
11921TIP3   OH257177   0.374   0.330   0.393 -0.2696  0.4597 -0.4286
11921TIP3    H157178   0.351   0.414   0.431 -0.3831  0.4024 -0.3700
11921TIP3    H257179   0.447   0.298   0.446 -0.8014  0.1142  0.1076
11922TIP3   OH257180   3.392   0.916   4.019  0.0470 -0.5110 -0.5342
11922TIP3    H157181   3.458   0.847   4.024 -0.2442 -0.9998 -2.6407
11922TIP3    H257182   3.432   0.984   3.965 -0.2258  0.3626  0.3217
11923TIP3   OH257183   3.498   0.917  17.137  0.2081 -0.0955 -0.1240
11923TIP3    H157184   3.450   0.885  17.061 -0.5108 -1.2388  0.7672
11923TIP3    H257185   3.457   1.002  17.156 -1.5918 -1.0636  0.6429
11924TIP3   OH257186   1.270   4.859  15.122  0.0612  0.0010 -0.1605
11924TIP3    H157187   1.241   4.840  15.033  1.8676 -1.1419 -0.5544
11924TIP3    H257188   1.331   4.931  15.113  0.9748 -0.7371  0.0167
11925TIP3   OH257189   5.630   0.415  14.589 -0.0478  0.2320 -0.4181
11925TIP3    H157190   5.616   0.321  14.582 -0.2129  0.4200 -3.8087
11925TIP3    H257191   5.553   0.448  14.635 -0.0987 -1.1909  0.5849
11926TIP3   OH257192   2.495   3.164   5.134 -0.1507 -0.4044 -0.6920
11926TIP3    H157193   2.427   3.193   5.196  2.5749 -0.4348  2.5738
11926TIP3    H257194   2.518   3.243   5.086  0.6191  0.7742  1.4625
11927TIP3   OH257195   5.156   6.057   5.952  0.0200  0.5261  0.2223
11927TIP3    H157196   5.143   6.058   6.047 -1.1120  0.1048  0.0848
11927TIP3    H257197   5.137   6.147   5.924  1.3765  0.9234  0.4997
11928TIP3   OH257198   4.100   0.513  16.354  0.1244 -0.1923  0.5446
11928TIP3    H157199   4.046   0.529  16.431  2.9631  1.8657  2.3355
11928TIP3    H257200   4.043   0.531  16.280 -2.1171 -0.0067  2.2235
11929TIP3   OH257201   4.585   1.986  14.490  0.2176  0.2252  0.5833
11929TIP3    H157202   4.602   1.973  14.584 -0.5393 -1.3826  0.5303
11929TIP3    H257203   4.494   2.014  14.486 -0.1806 -1.0724  0.2606
11930TIP3   OH257204   0.222   6.675   4.755  0.5412 -0.3149 -0.0797
11930TIP3    H157205   0.273   6.727   4.817 -1.9038  0.1157  1.7128
11930TIP3    H257206   0.249   6.707   4.669  0.1511  3.0278  0.9089
11931TIP3   OH257207   6.147   1.064   1.176  0.6190 -0.1495  1.1657
11931TIP3    H157208   6.163   0.997   1.110 -0.1989  0.9121 -0.1734
11931TIP3    H257209   6.059   1.044   1.209 -1.7406  2.6475 -2.4918
11932TIP3   OH257210   5.642   0.512  15.018 -0.0170 -0.1716  0.2560
11932TIP3    H157211   5.653   0.444  14.951 -2.5335  0.2368 -0.6742
11932TIP3    H257212   5.652   0.465  15.101 -1.3911 -1.6846 -0.3701
11933TIP3   OH257213   4.835   3.158  15.332 -0.1320  0.6335 -0.7272
11933TIP3    H157214   4.899   3.191  15.269  1.7274 -0.1090  0.6734
11933TIP3    H257215   4.885   3.100  15.389 -1.9132  0.5914  0.9039
11934TIP3   OH257216   2.705   0.625  11.904 -0.6787 -1.0279 -0.2550
11934TIP3    H157217   2.656   0.655  11.827 -1.2957  1.3999  0.9612
11934TIP3    H257218   2.640   0.625  11.975  0.8717  2.4435  1.4446
11935TIP3   OH257219   6.020   5.773  11.751 -0.3964  0.3416 -0.4873
11935TIP3    H157220   6.012   5.839  11.682 -0.4234 -0.5900 -1.3933
11935TIP3    H257221   5.941   5.720  11.743 -0.6158  0.4821  0.5643
11936TIP3   OH257222   2.193   3.318  12.030  0.6042  0.0543  0.2269
11936TIP3    H157223   2.152   3.272  12.103 -1.4046 -1.1556 -1.5344
11936TIP3    H257224   2.268   3.263  12.006  0.4969 -0.2445  0.5652
11937TIP3   OH257225   2.221   3.058   0.555 -0.0070 -0.2714  0.7647
11937TIP3    H157226   2.137   3.104   0.551  0.3185  0.2626 -1.3666
11937TIP3    H257227   2.254   3.062   0.465  1.4654 -2.0491  1.1739
11938TIP3   OH257228   4.748   4.583   1.805  0.8618  0.0262  0.3385
11938TIP3    H157229   4.807   4.598   1.731 -0.1446 -2.1766 -1.0129
11938TIP3    H257230   4.664   4.620   1.776  0.2927 -1.4402  0.0607
11939TIP3   OH257231   1.677   4.278   4.961 -0.2050  0.4522 -0.1681
11939TIP3    H157232   1.590   4.266   4.998  0.5995 -0.3489  1.6057
11939TIP3    H257233   1.685   4.209   4.895 -0.4273 -0.3846  0.6563
11940TIP3   OH257234   0.545   0.650  15.598 -0.4891  0.1112 -0.2505
11940TIP3    H157235   0.624   0.655  15.545 -0.3932 -0.1563 -0.1352
11940TIP3    H257236   0.508   0.738  15.595  1.4077  1.0958  2.1684
11941TIP3   OH257237   0.547   4.967   2.567  0.4006  0.0635  0.5168
11941TIP3    H157238   0.622   4.914   2.594  1.3951  2.2095  2.2336
11941TIP3    H257239   0.471   4.916   2.595  1.2326 -1.3032  0.3889
11942TIP3   OH257240   1.448   0.140   5.373 -0.5609  0.0232  0.4416
11942TIP3    H157241   1.409   0.216   5.417 -1.6803  0.3182 -0.9948
11942TIP3    H257242   1.402   0.065   5.411 -1.6653  0.2875 -0.3203
11943TIP3   OH257243   0.125   5.859  11.753 -0.6074  0.2936  0.6864
11943TIP3    H157244   0.180   5.827  11.825  1.1605  0.0674 -0.7033
11943TIP3    H257245   0.158   5.947  11.735  0.3982 -0.4272 -1.1966
11944TIP3   OH257246   4.757   4.405  11.126  0.2222  0.0209  0.4393
11944TIP3    H157247   4.833   4.423  11.070  0.8725 -0.8123  1.0275
11944TIP3    H257248   4.692   4.470  11.100  0.2050 -0.8058 -1.8378
11945TIP3   OH257249   1.454   2.725   2.087  0.1728  0.4605 -0.3789
11945TIP3    H157250   1.502   2.712   2.170  1.5624 -0.2093 -1.2521
11945TIP3    H257251   1.440   2.820   2.083 -0.3513  0.4578  0.8440
11946TIP3   OH257252   2.785   5.263   5.672 -0.1580  0.9588 -0.6084
11946TIP3    H157253   2.785   5.178   5.628  3.1822  0.2173  0.5341
11946TIP3    H257254   2.781   5.242   5.765  1.5090  1.9148 -0.2726
11947TIP3   OH257255   3.763   4.637   5.052 -0.2861 -0.2988 -0.4092
11947TIP3    H157256   3.697   4.705   5.068  0.5710  0.6372 -0.7635
11947TIP3    H257257   3.824   4.677   4.991  2.1259 -0.1269  1.9561
11948TIP3   OH257258   2.467   0.269  14.493  0.5754  0.2184  0.3424
11948TIP3    H157259   2.372   0.271  14.483  0.2439 -2.2182  2.2033
11948TIP3    H257260   2.499   0.228  14.414 -0.1182 -0.7138  0.5337
11949TIP3   OH257261   4.199   5.765   5.931  0.1082 -0.1419 -0.6047
11949TIP3    H157262   4.186   5.675   5.961  1.0075  0.1040  0.6124
11949TIP3    H257263   4.293   5.772   5.916 -0.0940  0.2983 -1.7342
11950TIP3   OH257264   5.622   5.232  11.767 -0.1311  0.2186 -0.1420
11950TIP3    H157265   5.640   5.151  11.718  0.6146  1.1877 -1.5257
11950TIP3    H257266   5.548   5.271  11.722  0.5502  1.1108 -0.5106
11951TIP3   OH257267   3.040   1.725   1.331  0.5372 -0.4235  0.0877
11951TIP3    H157268   3.029   1.804   1.384  2.1502  1.7640 -2.5700
11951TIP3    H257269   2.952   1.701   1.304  0.0711  0.8640  0.4244
11952TIP3   OH257270   1.531   4.582  13.923 -0.0633  0.1834 -0.2126
11952TIP3    H157271   1.596   4.618  13.863  0.5376 -0.2062  0.1917
11952TIP3    H257272   1.543   4.632  14.004 -1.2330  1.0747 -0.5746
11953TIP3   OH257273   6.450   1.133  16.093 -0.0724  0.5890  0.3108
11953TIP3    H157274   6.437   1.225  16.069 -0.5165  1.1828  2.6195
11953TIP3    H257275   6.363   1.104  16.121  0.5631  0.2427  2.0184
11954TIP3   OH257276   5.062   3.947  15.522  0.9660  0.2632  0.1493
11954TIP3    H157277   5.058   3.894  15.602 -1.0355  2.6359  1.8379
11954TIP3    H257278   4.970   3.966  15.503  1.5019  1.0644 -1.8037
11955TIP3   OH257279   5.582   5.789  13.570  0.4058 -0.1852 -0.0349
11955TIP3    H157280   5.490   5.815  13.580  0.7855  0.6666  1.6476
11955TIP3    H257281   5.580   5.693  13.575 -0.4072 -0.1886 -0.2406
11956TIP3   OH257282   2.851   6.606  13.305  0.2537 -0.0227  0.5101
11956TIP3    H157283   2.877   6.529  13.356  0.0625  0.6545  1.6596
11956TIP3    H257284   2.757   6.616  13.322  0.3115  0.5599  0.5089
11957TIP3   OH257285   4.651   0.578  15.798 -0.2266  0.0482  0.3993
11957TIP3    H157286   4.598   0.612  15.870 -1.2470  0.0776 -0.3444
11957TIP3    H257287   4.658   0.484  15.816 -1.0078 -0.0504  0.2119
11958TIP3   OH257288   0.175   1.068   3.628 -0.1400 -0.1414  0.1152
11958TIP3    H157289   0.088   1.102   3.608  0.1584  0.0439 -0.9344
11958TIP3    H257290   0.194   1.100   3.716 -0.8042  0.4668  0.0440
11959TIP3   OH257291   5.070   0.008  17.290 -0.5273 -0.5612 -0.1917
11959TIP3    H157292   5.090  -0.065  17.349  0.5593 -0.2743 -0.1769
11959TIP3    H257293   5.150   0.018  17.237 -0.9616  0.1022 -0.7348
11960TIP3   OH257294   6.331   0.551   2.341 -0.2928 -0.0878 -0.4865
11960TIP3    H157295   6.423   0.577   2.352  0.0611 -0.9663 -1.3036
11960TIP3    H257296   6.281   0.626   2.374  0.6978 -0.2221  1.4337
11961TIP3   OH257297   6.224   1.735   4.649  0.0204 -0.7040 -0.3427
11961TIP3    H157298   6.134   1.708   4.664 -0.0652 -0.4044 -0.3029
11961TIP3    H257299   6.217   1.808   4.587  0.0086  1.0908  1.6425
11962TIP3   OH257300   5.417   2.207   5.494 -0.2377  0.1169 -0.5901
11962TIP3    H157301   5.422   2.135   5.431 -0.8001  0.7701 -1.4019
11962TIP3    H257302   5.371   2.171   5.569  0.2893 -0.6242 -0.6119
11963TIP3   OH257303   1.597   6.197  13.362 -0.5646  0.4419 -0.3592
11963TIP3    H157304   1.566   6.278  13.323 -1.4574  0.6707  0.7797
11963TIP3    H257305   1.526   6.168  13.418  0.8064  0.3900  1.4622
11964TIP3   OH257306   2.136   5.344   0.023  0.2690 -0.0696  0.1285
11964TIP3    H157307   2.175   5.406  -0.039  0.0921  1.3453  1.3894
11964TIP3    H257308   2.053   5.318  -0.018  1.1885 -0.9890 -1.2824
11965TIP3   OH257309   6.199   4.501  13.099  0.2727  0.1801 -0.0267
11965TIP3    H157310   6.105   4.514  13.107  0.1924 -0.0020 -0.6121
11965TIP3    H257311   6.211   4.465  13.011  0.7411 -1.2766  0.6146
11966TIP3   OH257312   5.087   4.354  10.817 -0.0326  0.0211  0.0864
11966TIP3    H157313   5.025   4.380  10.885 -0.2321 -0.8026  0.2188
11966TIP3    H257314   5.063   4.408  10.741 -0.3539  0.3236  0.3997
11967TIP3   OH257315   3.599   1.242   5.874 -0.0453 -0.3307 -0.3874
11967TIP3    H157316   3.623   1.303   5.803  1.3352 -1.6400 -1.1013
11967TIP3    H257317   3.683   1.210   5.906 -0.7380 -2.4437 -0.5717
11968TIP3   OH257318   3.981   6.080  13.010  0.1640  0.0734 -0.3199
11968TIP3    H157319   4.000   6.169  12.978  1.2459  1.6355  3.9799
11968TIP3    H257320   3.887   6.080  13.026 -0.1640 -0.2856 -2.0496
11969TIP3   OH257321   5.432   5.450   0.618 -1.1265  0.4300  0.1693
11969TIP3    H157322   5.503   5.514   0.625 -1.9495  1.4942 -0.9021
11969TIP3    H257323   5.418   5.440   0.524 -1.6577 -0.6181  0.3440
11970TIP3   OH257324   3.035   2.006  11.069  0.4504 -0.2350  0.0670
11970TIP3    H157325   3.062   2.097  11.064  0.4814 -0.1766  1.1213
11970TIP3    H257326   3.116   1.957  11.082  0.4465 -0.4338 -0.5957
11971TIP3   OH257327   6.355   3.813   5.063 -0.3580  0.6772  0.2756
11971TIP3    H157328   6.344   3.742   4.999  1.3653  1.0779 -0.5109
11971TIP3    H257329   6.292   3.880   5.035 -0.7943  0.1741  0.0232
11972TIP3   OH257330   1.939   3.485   6.183  0.2266 -0.0572  0.8663
11972TIP3    H157331   1.851   3.448   6.194  0.7741 -1.5714  0.4372
11972TIP3    H257332   1.995   3.429   6.237  1.0619  0.3051  0.3960
11973TIP3   OH257333   4.517   4.873  15.270  0.2553  0.5955  0.3824
11973TIP3    H157334   4.565   4.899  15.191  1.1173  0.7301  0.9346
11973TIP3    H257335   4.585   4.841  15.329 -0.5426 -0.9493  0.5112
11974TIP3   OH257336   1.655   4.282   3.702 -0.3471  0.4440  0.1064
11974TIP3    H157337   1.567   4.304   3.731 -0.5651  0.3209 -0.4473
11974TIP3    H257338   1.643   4.209   3.641  0.0866  0.6961 -0.2946
11975TIP3   OH257339   3.367   0.674   1.191 -0.5243 -0.2530  0.5736
11975TIP3    H157340   3.324   0.652   1.274 -1.8359 -0.9014 -0.2505
11975TIP3    H257341   3.419   0.752   1.212 -2.0890  0.5635  1.6447
11976TIP3   OH257342   4.314   0.530  16.793 -0.6789  0.2929  0.1553
11976TIP3    H157343   4.353   0.443  16.784  0.3133  0.8006 -0.6757
11976TIP3    H257344   4.322   0.550  16.886  0.6272  0.1650  0.0972
11977TIP3   OH257345   4.068   5.529   2.354 -0.2953  0.0038 -0.2916
11977TIP3    H157346   4.031   5.464   2.414 -0.5532  0.7592  0.3979
11977TIP3    H257347   3.992   5.560   2.303  0.0436 -1.1957 -1.5943
11978TIP3   OH257348   4.508   0.602  11.901 -0.1021  0.0309 -0.1528
11978TIP3    H157349   4.531   0.690  11.874  1.1456 -0.2533 -0.0505
11978TIP3    H257350   4.495   0.554  11.819  3.4618 -0.7757 -0.3732
11979TIP3   OH257351   3.218   6.485   6.342  0.3036 -0.0776  0.5007
11979TIP3    H157352   3.198   6.477   6.249 -0.3509  0.2645  0.6062
11979TIP3    H257353   3.272   6.564   6.348  0.4154 -0.1461  0.3998
11980TIP3   OH257354   1.794   2.036  13.929  0.0683 -0.2376 -0.2595
11980TIP3    H157355   1.777   1.949  13.966  0.7057  0.1468  0.9724
11980TIP3    H257356   1.859   2.075  13.987 -1.4088  1.7137  0.1828
11981TIP3   OH257357   4.341   2.127  11.328 -0.2914  0.0266  0.1905
11981TIP3    H157358   4.258   2.084  11.347 -0.0691 -0.7226 -0.5042
11981TIP3    H257359   4.317   2.200  11.270 -0.2485 -1.4695 -1.7944
11982TIP3   OH257360   5.162   5.897  12.886  0.0390 -0.2248  0.1395
11982TIP3    H157361   5.195   5.910  12.797 -0.0276  0.9291  0.2692
11982TIP3    H257362   5.071   5.924  12.882  0.8612  3.1911  1.2765
11983TIP3   OH257363   2.994   1.539  13.200 -0.0569  0.4496  0.0616
11983TIP3    H157364   2.933   1.612  13.211 -1.2793 -0.3373 -1.2316
11983TIP3    H257365   2.965   1.473  13.263 -0.3937  0.1720 -0.3819
11984TIP3   OH257366   3.631   3.739   4.858  0.2190  0.2390 -0.0226
11984TIP3    H157367   3.712   3.729   4.808  0.2813  2.4512 -0.4570
11984TIP3    H257368   3.639   3.674   4.929  2.3919  0.4334 -0.0178
11985TIP3   OH257369   6.217   6.277   1.974 -0.1662 -0.2620 -0.2178
11985TIP3    H157370   6.190   6.186   1.982  1.3939 -0.6434  1.5176
11985TIP3    H257371   6.310   6.276   1.998 -0.3777  1.9342  0.8965
11986TIP3   OH257372   1.000   5.816  16.645 -0.5201  0.6129  0.0824
11986TIP3    H157373   0.957   5.756  16.584  0.2903 -1.4939  1.4640
11986TIP3    H257374   1.062   5.865  16.591 -2.0364  1.1076 -1.2898
11987TIP3   OH257375   2.594   5.975  16.979  0.3453 -0.2767  0.5338
11987TIP3    H157376   2.572   5.912  16.911  0.8452  0.9569 -0.8156
11987TIP3    H257377   2.689   5.969  16.987  0.4209  0.4418  0.2445
11988TIP3   OH257378   5.115   0.877   3.686 -0.5690  0.1607  0.3941
11988TIP3    H157379   5.141   0.867   3.778 -0.0835 -1.4135  0.1151
11988TIP3    H257380   5.146   0.797   3.644 -0.3286  1.0948 -1.2616
11989TIP3   OH257381   1.827   3.024   3.540 -0.4091  0.2751  0.0795
11989TIP3    H157382   1.827   3.057   3.450 -2.5854 -0.4545 -0.2385
11989TIP3    H257383   1.773   3.087   3.588  0.8074  0.7099  0.9317
11990TIP3   OH257384   5.374   0.420  14.755  0.4655  1.0075  0.6525
11990TIP3    H157385   5.315   0.476  14.805  0.6696  0.6880  1.2588
11990TIP3    H257386   5.375   0.459  14.667  0.8735  2.1609  1.1479
11991TIP3   OH257387   4.275   4.048   2.131 -0.0380 -0.1866  0.7506
11991TIP3    H157388   4.304   4.057   2.221 -0.6838  1.6046  0.8154
11991TIP3    H257389   4.185   4.081   2.130  0.5576  1.6395 -0.8392
11992TIP3   OH257390   4.768   0.029   2.085 -0.2788 -0.1017  0.4755
11992TIP3    H157391   4.740   0.054   1.997 -0.1795  1.5436  0.8877
11992TIP3    H257392   4.826   0.099   2.113  0.6162 -1.1828  1.4256
11993TIP3   OH257393   1.993   6.428  11.679 -0.0562  0.6723  0.3836
11993TIP3    H157394   2.024   6.340  11.658 -1.7973  0.0507  0.2476
11993TIP3    H257395   2.052   6.487  11.632  0.4980 -0.4670 -0.3720
11994TIP3   OH257396   1.901   5.357   2.679  0.0181 -0.0024 -0.0512
11994TIP3    H157397   1.869   5.290   2.740 -1.3249  0.7093  0.0816
11994TIP3    H257398   1.839   5.353   2.606  0.1961  0.7801 -0.2477
11995TIP3   OH257399   0.852   3.838  16.974  0.2861 -0.1060  0.3794
11995TIP3    H157400   0.850   3.859  16.880 -1.8171  1.7308  0.7460
11995TIP3    H257401   0.836   3.744  16.977 -1.1812  0.0377 -1.1023
11996TIP3   OH257402   6.513   2.237  14.469 -0.4151 -0.8321  0.4505
11996TIP3    H157403   6.599   2.275  14.452 -0.7669  0.4754  1.4422
11996TIP3    H257404   6.513   2.217  14.563 -1.5254  0.1473  0.6877
11997TIP3   OH257405   3.284   0.911   5.247  0.1991 -0.0974 -0.5218
11997TIP3    H157406   3.358   0.867   5.288  1.9802  2.7338 -0.4116
11997TIP3    H257407   3.207   0.865   5.281  1.8268 -2.2528  0.4904
11998TIP3   OH257408   5.844   1.629  14.391 -0.0867 -0.1116  0.1966
11998TIP3    H157409   5.771   1.584  14.432  0.0483 -0.8350 -0.3354
11998TIP3    H257410   5.918   1.614  14.450  0.6671 -3.0410 -1.2466
11999TIP3   OH257411   2.182   4.182   0.712  0.1956  0.2257  0.8542
11999TIP3    H157412   2.244   4.215   0.777 -0.2758 -0.2065  1.5446
11999TIP3    H257413   2.134   4.260   0.683  1.8410  0.7661 -0.5973
12000TIP3   OH257414   6.481   0.762   2.994  0.0505 -0.4048 -0.3096
12000TIP3    H157415   6.510   0.811   2.917 -3.1533  1.8282 -0.2740
12000TIP3    H257416   6.477   0.827   3.064 -0.4862 -1.6368  0.8363
12001TIP3   OH257417   3.553   0.410   4.052  0.7825 -0.9234  0.4106
12001TIP3    H157418   3.582   0.397   3.962  0.5713 -0.7815  0.3205
12001TIP3    H257419   3.458   0.397   4.048  0.5127  0.8357  0.2688
12002TIP3   OH257420   4.424   4.361  17.245 -0.5122 -0.1078 -0.2463
12002TIP3    H157421   4.395   4.273  17.221 -0.1423 -0.1336 -0.6136
12002TIP3    H257422   4.404   4.414  17.169 -3.5093  0.7961  1.0334
12003TIP3   OH257423   0.070   3.414   2.653 -0.1404  0.3371  0.3167
12003TIP3    H157424  -0.004   3.475   2.651 -0.5910 -0.2065 -0.2496
12003TIP3    H257425   0.093   3.401   2.561  1.0703  0.9621  0.5111
12004TIP3   OH257426   3.366   3.808   4.833 -0.0332 -0.1916 -0.6224
12004TIP3    H157427   3.373   3.878   4.899 -2.1245  2.0458 -2.5398
12004TIP3    H257428   3.456   3.785   4.812  0.7342  1.7394  0.3151
12005TIP3   OH257429   2.106   3.014  12.245  0.0660  0.1857  0.5350
12005TIP3    H157430   2.163   3.074  12.293  0.2734  0.8516 -0.5189
12005TIP3    H257431   2.165   2.957  12.196 -0.1527  0.0846  0.3848
12006TIP3   OH257432   5.415   3.694  13.182  0.3489  0.3166  0.0288
12006TIP3    H157433   5.331   3.675  13.139  0.7572  1.6905 -1.4907
12006TIP3    H257434   5.474   3.628  13.147  0.6556  1.3672 -1.5626
12007TIP3   OH257435   3.852   3.208   1.323 -0.3436 -0.4073 -0.0841
12007TIP3    H157436   3.905   3.287   1.333 -1.9419  0.4685  2.1595
12007TIP3    H257437   3.841   3.199   1.228 -0.5741  2.3998 -0.4055
12008TIP3   OH257438   5.653   5.309   3.891  0.7623  0.1050  0.1861
12008TIP3    H157439   5.671   5.288   3.799  0.5104 -0.7702  0.3209
12008TIP3    H257440   5.735   5.345   3.924  2.2233 -3.2041  0.6205
12009TIP3   OH257441   5.905   5.676  13.322  0.1134 -0.1615  0.1905
12009TIP3    H157442   5.825   5.696  13.274 -0.0877 -3.1027 -0.9432
12009TIP3    H257443   5.975   5.694  13.260 -0.1045 -3.2069 -1.1025
12010TIP3   OH257444   0.652   1.404  15.106  0.0981  0.2943  0.1113
12010TIP3    H157445   0.672   1.495  15.124 -2.1035  0.4766  2.1194
12010TIP3    H257446   0.621   1.369  15.190 -0.6121 -1.8755 -0.9726
12011TIP3   OH257447   3.072   1.693   5.381  0.5576  0.5042 -0.3405
12011TIP3    H157448   3.153   1.662   5.342  1.3777 -0.6572  2.0930
12011TIP3    H257449   3.094   1.709   5.472 -1.7156  1.1424  0.1561
12012TIP3   OH257450   1.397   1.383  12.858 -0.3874  0.2649  0.4083
12012TIP3    H157451   1.371   1.459  12.806 -0.8982 -0.7263 -0.8700
12012TIP3    H257452   1.433   1.322  12.794 -0.8614 -0.9370  1.2402
12013TIP3   OH257453   4.287   0.888   5.715 -0.6232 -0.4286 -0.0290
12013TIP3    H157454   4.313   0.881   5.806 -0.3909  0.9663  0.0422
12013TIP3    H257455   4.193   0.866   5.715 -0.2767 -2.0225  0.2591
12014TIP3   OH257456   4.991   4.397  16.091  0.4025  0.2673  0.1135
12014TIP3    H157457   4.900   4.381  16.064  0.6896  0.3679 -0.9650
12014TIP3    H257458   4.983   4.449  16.171 -0.4917 -0.5069  0.5412
12015TIP3   OH257459   0.301   3.726   0.445  0.1425  0.6839  0.3184
12015TIP3    H157460   0.391   3.697   0.458  0.1872 -1.1753 -3.0198
12015TIP3    H257461   0.304   3.778   0.364 -1.9818 -1.0460 -0.9710
12016TIP3   OH257462   3.583   6.201   0.729  0.0715  0.0263  0.1493
12016TIP3    H157463   3.503   6.253   0.742  0.0787 -0.0730  0.6036
12016TIP3    H257464   3.635   6.253   0.668  0.1267  0.6136  0.6833
12017TIP3   OH257465   6.029   6.321   5.975 -0.6856  1.1366 -0.0433
12017TIP3    H157466   6.049   6.323   6.069  0.7967 -2.0402 -0.1605
12017TIP3    H257467   6.108   6.284   5.935 -1.9908  0.6401 -2.3063
12018TIP3   OH257468   5.274   0.322  16.690  0.4048 -0.6119  0.5050
12018TIP3    H157469   5.250   0.273  16.611 -0.8868 -0.4638  0.7864
12018TIP3    H257470   5.244   0.267  16.763 -0.8035  0.4393  0.8317
12019TIP3   OH257471   0.181   1.141   0.574 -0.3619 -0.0096 -0.2050
12019TIP3    H157472   0.218   1.133   0.662  3.3330 -0.0833 -1.5876
12019TIP3    H257473   0.125   1.064   0.565  1.9279 -1.9806  0.9987
12020TIP3   OH257474   4.392   1.817  13.458  0.4200 -0.1262 -0.0951
12020TIP3    H157475   4.406   1.825  13.552 -0.1768  2.3350 -0.1368
12020TIP3    H257476   4.361   1.904  13.431  0.8961 -0.6596 -2.6199
12021TIP3   OH257477   3.457   2.542  14.716  0.0908 -0.0559 -0.0084
12021TIP3    H157478   3.397   2.487  14.665  0.5002 -1.5185  1.0277
12021TIP3    H257479   3.542   2.497  14.709  0.7288  1.1411 -0.1673
12022TIP3   OH257480   0.774   4.831  15.545  0.2247 -0.0470  0.0229
12022TIP3    H157481   0.838   4.765  15.572 -0.1985 -0.7811 -0.6992
12022TIP3    H257482   0.742   4.869  15.627  2.8669  1.6556  0.3826
12023TIP3   OH257483   2.825   4.878   3.302  0.2203 -0.0652 -0.8064
12023TIP3    H157484   2.880   4.945   3.342 -0.0273  0.1270 -0.7888
12023TIP3    H257485   2.873   4.851   3.224 -1.6109  3.2071 -3.3245
12024TIP3   OH257486   1.535   1.166  15.841 -0.4086 -0.2980  0.5321
12024TIP3    H157487   1.503   1.173  15.751 -4.0047  0.6955  1.7140
12024TIP3    H257488   1.562   1.255  15.864 -2.1324  0.0855  1.2193
12025TIP3   OH257489   0.490   5.388   4.886  0.5558 -0.0478 -0.0851
12025TIP3    H157490   0.490   5.292   4.886  1.9137 -0.0773 -1.1705
12025TIP3    H257491   0.564   5.412   4.942  1.9678  0.2766 -1.9807
12026TIP3   OH257492   4.835   1.861   2.656 -0.4526  0.1257  0.5717
12026TIP3    H157493   4.765   1.806   2.691 -0.2139  0.4895  1.6668
12026TIP3    H257494   4.805   1.951   2.672 -0.4117  0.3072 -0.3299
12027TIP3   OH257495   3.607   5.817   0.720  0.0577 -0.5551  0.3457
12027TIP3    H157496   3.637   5.762   0.793 -0.1583  0.7754  1.4826
12027TIP3    H257497   3.521   5.783   0.698 -1.2140  0.7941  2.7467
12028TIP3   OH257498   1.155   3.409   5.737  0.4019  0.9516  0.2938
12028TIP3    H157499   1.241   3.439   5.769 -0.1512  2.0375  0.8269
12028TIP3    H257500   1.132   3.473   5.670 -0.3236  1.1142  0.6899
12029TIP3   OH257501   2.803   6.448  15.749 -0.0242  0.0861 -0.4758
12029TIP3    H157502   2.766   6.526  15.708 -0.3940 -1.0621 -2.4977
12029TIP3    H257503   2.890   6.440  15.710  0.3492 -0.0346  0.3752
12030TIP3   OH257504   2.920   4.372  10.324  0.5069  0.2262  0.0637
12030TIP3    H157505   3.001   4.331  10.294  0.6358  0.4835  0.0516
12030TIP3    H257506   2.931   4.465  10.301 -0.2606  0.0876 -0.9787
12031TIP3   OH257507   4.071   5.876  13.781  0.0269  0.0668 -0.9035
12031TIP3    H157508   4.108   5.791  13.802 -0.5216  0.0829  0.1427
12031TIP3    H257509   4.020   5.861  13.701 -0.6957 -0.7511 -0.2956
12032TIP3   OH257510   3.016   1.366   2.511  0.6583  0.2672  0.0124
12032TIP3    H157511   2.995   1.274   2.522  1.2265  0.3491  2.3662
12032TIP3    H257512   2.932   1.409   2.496 -0.0262 -0.2912  1.9711
12033TIP3   OH257513   1.830   0.303   0.299  0.0713  0.1936 -0.1422
12033TIP3    H157514   1.821   0.312   0.394 -0.8007  0.3929 -0.2424
12033TIP3    H257515   1.813   0.391   0.264  3.0025  0.8146 -0.3372
12034TIP3   OH257516   3.422   1.021   3.669 -0.0407 -0.5915  0.6638
12034TIP3    H157517   3.485   0.960   3.630 -0.7091 -0.7351 -0.2350
12034TIP3    H257518   3.337   0.982   3.649 -0.6339  1.7295 -1.9598
12035TIP3   OH257519   0.347   6.725   0.772 -0.2940  0.1919 -0.3752
12035TIP3    H157520   0.300   6.701   0.692  0.5898 -0.3361 -0.7566
12035TIP3    H257521   0.296   6.685   0.843 -0.7504  0.1503 -0.7243
12036TIP3   OH257522   3.673   4.044  15.076 -0.6113 -0.4643  0.1522
12036TIP3    H157523   3.641   4.060  14.988  0.1890 -0.6771 -0.1809
12036TIP3    H257524   3.719   3.960  15.071 -0.3921 -0.3893  0.7218
12037TIP3   OH257525   5.674   2.998  14.089  0.2270 -0.6248 -0.2908
12037TIP3    H157526   5.596   3.039  14.126 -0.0978 -1.9209  0.5508
12037TIP3    H257527   5.739   3.069  14.083 -0.6294  0.2097  0.1236
12038TIP3   OH257528   2.783   3.064   3.524  0.2806  0.2637  0.1602
12038TIP3    H157529   2.872   3.054   3.560 -0.0840 -1.0330  0.7522
12038TIP3    H257530   2.727   3.016   3.585 -1.3396  3.6883  1.6359
12039TIP3   OH257531   2.679   6.545  14.112  0.4673 -0.6303  0.4191
12039TIP3    H157532   2.696   6.500  14.195  3.7919  1.5545  1.1248
12039TIP3    H257533   2.766   6.566  14.078 -0.7963 -0.5248 -3.1701
12040TIP3   OH257534   5.932   5.507  11.993 -0.6006  0.0167 -0.0484
12040TIP3    H157535   5.857   5.555  12.027 -0.3700  0.4844 -0.1917
12040TIP3    H257536   5.897   5.458  11.918 -1.2512 -1.5076  1.1973
12041TIP3   OH257537   2.360   2.280  12.018 -0.6021 -0.0875  0.1728
12041TIP3    H157538   2.381   2.269  12.111 -0.0006 -1.8253 -0.1400
12041TIP3    H257539   2.355   2.191  11.984 -1.7288  0.4962 -1.2825
12042TIP3   OH257540   2.198   2.319  13.243 -0.3073  0.3576 -0.5738
12042TIP3    H157541   2.293   2.319  13.256 -0.5536 -0.3302  1.6221
12042TIP3    H257542   2.183   2.252  13.176  0.8032  1.1354 -1.6347
12043TIP3   OH257543   5.821   2.821   5.820  0.2517  0.0038  0.7028
12043TIP3    H157544   5.818   2.912   5.849 -2.1731  0.7828 -1.5879
12043TIP3    H257545   5.741   2.782   5.854 -0.8359 -0.0362 -1.7066
12044TIP3   OH257546   6.101   0.840   0.520 -0.1856 -0.2599  0.1051
12044TIP3    H157547   6.020   0.846   0.469 -0.4314  1.0624  0.6004
12044TIP3    H257548   6.159   0.788   0.466 -0.9029 -0.0457 -0.9131
12045TIP3   OH257549   4.661   2.301   3.860  0.4964  0.3940 -0.2796
12045TIP3    H157550   4.655   2.329   3.951 -1.4127  1.1208 -0.5876
12045TIP3    H257551   4.670   2.382   3.810  0.7327  0.0532 -0.7962
12046TIP3   OH257552   6.229   0.440  11.880  0.6007 -0.0084 -0.0317
12046TIP3    H157553   6.204   0.527  11.910  1.6049  0.5500 -0.7448
12046TIP3    H257554   6.155   0.384  11.904 -0.1874  1.0853  0.1837
12047TIP3   OH257555   3.467   5.250   0.759  0.0445  0.3353 -0.0453
12047TIP3    H157556   3.401   5.249   0.828  0.5188 -0.5169  0.4041
12047TIP3    H257557   3.421   5.217   0.682  0.2955 -1.6348  0.6081
12048TIP3   OH257558   3.699   6.187  11.312 -0.6674  0.0077  0.7343
12048TIP3    H157559   3.636   6.258  11.323  1.2935  2.4801 -2.3779
12048TIP3    H257560   3.768   6.207  11.375 -0.1269  0.9211 -0.1231
12049TIP3   OH257561   4.251   0.367  14.272 -0.1160  0.3863 -0.6122
12049TIP3    H157562   4.305   0.390  14.347  1.7806  0.2014 -1.8532
12049TIP3    H257563   4.174   0.424  14.279  0.8276  1.5755  0.5467
12050TIP3   OH257564   5.568   1.927  13.785  0.0003  0.4261  0.2984
12050TIP3    H157565   5.552   1.846  13.834  0.5169 -0.0098 -0.2330
12050TIP3    H257566   5.502   1.927  13.716  0.7637 -0.1825 -0.4568
12051TIP3   OH257567   5.981   4.934   4.099 -0.1075  0.0787 -0.2149
12051TIP3    H157568   6.032   4.890   4.032  1.1779  3.2753 -1.5374
12051TIP3    H257569   6.026   4.913   4.181  1.6458  0.4480 -1.0242
12052TIP3   OH257570   2.991   0.270  15.393 -0.0694 -0.0306  0.6832
12052TIP3    H157571   2.954   0.272  15.481  3.0907 -1.2419  2.1553
12052TIP3    H257572   2.965   0.185  15.358 -0.3638 -0.0235  0.8816
12053TIP3   OH257573   5.896   6.222   4.676 -0.5553 -0.1393  0.3446
12053TIP3    H157574   5.842   6.298   4.696  0.0633 -0.0420  1.8086
12053TIP3    H257575   5.842   6.168   4.618 -1.5997  0.6881  0.5266
12054TIP3   OH257576   6.143   4.363   3.244  0.0667 -0.3954  0.2761
12054TIP3    H157577   6.154   4.313   3.163  1.8545  0.1161  0.1697
12054TIP3    H257578   6.049   4.379   3.250  0.0233  1.0722 -2.6509
12055TIP3   OH257579   2.418   2.568  11.459 -0.2132 -0.7214 -0.5013
12055TIP3    H157580   2.386   2.532  11.376 -2.4384  1.1978 -0.5908
12055TIP3    H257581   2.455   2.653  11.436  2.0856 -1.4762  0.1202
12056TIP3   OH257582   5.575   1.820   4.535  0.1174 -0.2319 -0.2170
12056TIP3    H157583   5.626   1.800   4.614  0.3653 -0.3260 -0.3985
12056TIP3    H257584   5.639   1.816   4.464  0.5224  2.6997 -0.1256
12057TIP3   OH257585   3.403   5.834  13.756 -0.5680 -0.5616 -0.1911
12057TIP3    H157586   3.377   5.748  13.724 -0.2181 -0.5804 -0.4290
12057TIP3    H257587   3.399   5.827  13.851  0.0192 -1.0147 -0.1982
12058TIP3   OH257588   2.649   3.184   3.306  0.4518 -0.0256  0.4542
12058TIP3    H157589   2.695   3.134   3.374  3.6193  2.5590  0.4485
12058TIP3    H257590   2.563   3.201   3.344  0.7795 -1.8025  2.1836
12059TIP3   OH257591   1.297   4.965   5.430  0.3759 -0.2704  0.0664
12059TIP3    H157592   1.351   4.957   5.508  0.2187  2.1141  0.4859
12059TIP3    H257593   1.287   4.875   5.398  1.9924 -1.0894  1.7108
12060TIP3   OH257594   1.476   4.875   1.146 -0.3677  0.7006  0.2413
12060TIP3    H157595   1.508   4.918   1.225 -0.9026 -1.5685  1.7992
12060TIP3    H257596   1.383   4.896   1.142 -0.2567  1.1480 -0.0262
12061TIP3   OH257597   1.177   0.038  13.297 -0.4990 -0.0559 -0.1339
12061TIP3    H157598   1.123   0.080  13.363  0.2278  0.4099  0.1832
12061TIP3    H257599   1.265   0.035  13.336 -0.1220 -0.0409 -0.9540
12062TIP3   OH257600   5.701   6.462  16.216  0.1862 -0.2539 -0.5621
12062TIP3    H157601   5.738   6.550  16.218  0.3664 -0.3457  0.3063
12062TIP3    H257602   5.631   6.467  16.151 -0.2967  0.7292  0.0147
12063TIP3   OH257603   0.901   3.980  16.193  0.0994  0.4555  0.1027
12063TIP3    H157604   0.868   3.906  16.142 -0.6301  0.7024  0.2059
12063TIP3    H257605   0.885   4.056  16.137  0.1639  0.6223  0.3099
12064TIP3   OH257606   2.335   3.147   2.843 -0.3054  0.3468  0.2388
12064TIP3    H157607   2.301   3.227   2.802  1.7241  0.5787 -1.1397
12064TIP3    H257608   2.408   3.177   2.897 -0.9655 -0.3440  1.5362
12065TIP3   OH257609   1.811   6.668   3.334  0.1888  0.3991  0.4563
12065TIP3    H157610   1.735   6.625   3.296  0.9729  0.5136 -1.3429
12065TIP3    H257611   1.789   6.761   3.335  1.2958  0.8279 -2.8165
12066TIP3   OH257612   2.925   5.280  17.023 -0.0285  0.3324 -0.1891
12066TIP3    H157613   3.009   5.323  17.007 -0.7018  0.9430 -2.4057
12066TIP3    H257614   2.892   5.321  17.103 -0.2001  3.4139 -1.6816
12067TIP3   OH257615   4.561   5.592   2.973  0.4790  0.3616  0.2252
12067TIP3    H157616   4.542   5.625   2.885  0.4140 -1.3552 -0.4393
12067TIP3    H257617   4.475   5.582   3.014  0.5255  1.4728  0.6299
12068TIP3   OH257618   6.432   6.612   2.500  0.4743 -0.3771 -0.1780
12068TIP3    H157619   6.367   6.579   2.562  0.4997 -0.3964 -0.1619
12068TIP3    H257620   6.404   6.702   2.482  0.1638 -0.5447 -0.5453
12069TIP3   OH257621   4.857   2.886   4.245  0.0367  0.0146  0.1828
12069TIP3    H157622   4.948   2.860   4.262  0.3789  0.9269 -0.1521
12069TIP3    H257623   4.814   2.878   4.330  0.1422 -1.4959  0.1124
12070TIP3   OH257624   0.312   5.944   3.373  0.4508 -0.3974  0.1483
12070TIP3    H157625   0.300   5.945   3.468  0.5174 -3.1617  0.2872
12070TIP3    H257626   0.407   5.935   3.361  0.3812 -0.8051 -0.1375
12071TIP3   OH257627   1.400   3.779   0.885 -0.0540 -0.1591 -0.3421
12071TIP3    H157628   1.446   3.695   0.894  0.5755  0.0084 -1.7099
12071TIP3    H257629   1.308   3.756   0.893  0.1659 -0.7996  0.5183
12072TIP3   OH257630   3.596   3.733  13.158 -0.2104  0.0499 -0.6438
12072TIP3    H157631   3.646   3.684  13.224  0.8294  0.0262 -1.4225
12072TIP3    H257632   3.507   3.737  13.194  0.0095 -1.1537  0.1100
12073TIP3   OH257633   4.864   2.120  16.654  0.0988 -0.0686 -0.2101
12073TIP3    H157634   4.939   2.119  16.595  0.9522  3.7615  0.5257
12073TIP3    H257635   4.902   2.113  16.741 -0.3099  1.7278  0.1574
12074TIP3   OH257636   5.830   2.367  11.335 -0.0940 -0.1023 -0.1635
12074TIP3    H157637   5.797   2.384  11.246  0.3085  0.5119 -0.2054
12074TIP3    H257638   5.754   2.336  11.383 -0.7175  1.1236 -0.3020
12075TIP3   OH257639   3.522   2.807  13.038 -0.2071  0.1895 -0.4782
12075TIP3    H157640   3.437   2.846  13.058  0.7243  1.5049  1.1410
12075TIP3    H257641   3.518   2.788  12.944 -1.8979  1.1879 -0.6432
12076TIP3   OH257642   5.584   1.581   2.295 -0.0271  0.0990  0.0949
12076TIP3    H157643   5.525   1.631   2.239  1.1749 -1.1942 -2.4432
12076TIP3    H257644   5.659   1.639   2.308  0.7128 -0.4272 -1.6205
12077TIP3   OH257645   0.303   3.589  16.649 -0.2683  0.5464 -0.1986
12077TIP3    H157646   0.391   3.554  16.642 -0.7368 -0.3505 -2.2764
12077TIP3    H257647   0.289   3.636  16.566 -1.4761  1.3033  0.4011
12078TIP3   OH257648   4.231   1.465  13.169 -0.4159  1.0643 -0.2371
12078TIP3    H157649   4.177   1.395  13.205  0.5483  0.9304  1.0404
12078TIP3    H257650   4.266   1.428  13.088  0.7272 -0.3102  0.8117
12079TIP3   OH257651   4.823   5.020   5.458 -0.3150 -0.0957 -0.2211
12079TIP3    H157652   4.902   5.014   5.405  1.1207  1.7213  1.5559
12079TIP3    H257653   4.775   5.094   5.421  1.0690  1.6898  1.2991
12080TIP3   OH257654   4.450   1.283   5.061  0.0726  0.6601 -0.0992
12080TIP3    H157655   4.427   1.266   4.970  0.2689  2.2524 -0.4818
12080TIP3    H257656   4.538   1.319   5.057 -0.0788  1.1414  0.6658
12081TIP3   OH257657   0.936   6.653   2.633  0.1807 -0.1921  0.1359
12081TIP3    H157658   0.868   6.643   2.566 -1.0914  1.1762  1.1328
12081TIP3    H257659   0.953   6.747   2.635  1.1149 -0.3622  0.8561
12082TIP3   OH257660   2.564   3.893   3.667  0.7792 -0.2589 -0.4812
12082TIP3    H157661   2.485   3.908   3.719  1.1280  0.6855 -0.1990
12082TIP3    H257662   2.532   3.892   3.576  0.5936  1.6491 -0.4978
12083TIP3   OH257663   0.529   0.889  12.833 -0.5291 -0.2863  0.0933
12083TIP3    H157664   0.572   0.879  12.748  1.0617 -2.7567  1.0761
12083TIP3    H257665   0.565   0.971  12.869  2.8240 -1.7842  0.4712
12084TIP3   OH257666   4.825   4.039   0.796 -0.0748 -0.1753 -0.3090
12084TIP3    H157667   4.805   4.079   0.711 -1.4781 -0.6002 -0.2145
12084TIP3    H257668   4.770   3.960   0.798 -0.9209  0.4076  1.4328
12085TIP3   OH257669   0.373   4.473   1.742 -0.1891 -0.2287 -0.3906
12085TIP3    H157670   0.465   4.500   1.743 -0.1668 -0.2203  1.2432
12085TIP3    H257671   0.330   4.534   1.803 -0.8457 -1.5371  0.4976
12086TIP3   OH257672   5.317   5.661  15.738  0.2017  0.0437  0.8025
12086TIP3    H157673   5.301   5.755  15.727  0.8699  0.0850  0.0714
12086TIP3    H257674   5.326   5.649  15.833  3.5472  1.3510  0.7895
12087TIP3   OH257675   4.941   6.353   3.214  0.1246 -0.4063 -0.1097
12087TIP3    H157676   4.893   6.400   3.146 -2.6324 -2.7584  0.0338
12087TIP3    H257677   4.874   6.321   3.274  2.0964 -2.0878  1.3748
12088TIP3   OH257678   2.386   5.124  17.253 -0.3123  0.1318 -0.1461
12088TIP3    H157679   2.450   5.189  17.223  0.2233 -0.1563  0.3549
12088TIP3    H257680   2.308   5.142  17.202 -0.5415  1.9067  0.7474
12089TIP3   OH257681   0.998   5.341   0.372 -0.1382  0.3002  0.1934
12089TIP3    H157682   0.984   5.287   0.449  0.3691  0.5396  0.4590
12089TIP3    H257683   1.082   5.310   0.337 -0.3785  0.1716 -0.2801
12090TIP3   OH257684   5.542   3.656   1.994  0.2192  0.1254  0.0151
12090TIP3    H157685   5.590   3.636   2.074 -0.8228  1.2827  0.9962
12090TIP3    H257686   5.461   3.606   2.001  1.1100 -1.6491 -1.5191
12091TIP3   OH257687   1.237   4.732  14.204 -0.0998 -0.4097  0.2391
12091TIP3    H157688   1.234   4.658  14.144 -4.4304 -0.0820 -0.2318
12091TIP3    H257689   1.185   4.704  14.279 -0.4095  1.5395  0.8072
12092TIP3   OH257690   2.358   2.949  15.965 -0.5467  0.5907  0.6532
12092TIP3    H157691   2.289   3.014  15.965  0.4395  1.6817  0.4592
12092TIP3    H257692   2.438   2.999  15.944  0.0592 -0.8610 -0.7563
12093TIP3   OH257693   3.623   3.284   4.550  0.6916 -0.0917  0.1758
12093TIP3    H157694   3.634   3.322   4.637  0.8274  2.4913 -0.8760
12093TIP3    H257695   3.555   3.218   4.561 -1.2848  2.0562  1.7655
12094TIP3   OH257696   0.092   2.528  13.738  0.4665  0.4731  0.7130
12094TIP3    H157697   0.027   2.563  13.799  0.9870  0.8634  1.0466
12094TIP3    H257698   0.065   2.437  13.724  0.7515  0.1541  2.0957
12095TIP3   OH257699   6.398   3.428   3.895  0.0512 -0.3572 -0.3414
12095TIP3    H157700   6.444   3.512   3.889 -1.6930  0.5497 -1.9381
12095TIP3    H257701   6.313   3.443   3.854 -0.3537 -2.9089 -0.6401
12096TIP3   OH257702   4.195   4.663  11.004 -1.0943 -0.2022 -0.3798
12096TIP3    H157703   4.191   4.747  10.959 -0.5111  0.2583  0.3851
12096TIP3    H257704   4.269   4.617  10.964  0.2469  0.7295  0.9103
12097TIP3   OH257705   1.702   0.124  10.877 -0.0561  0.0335 -0.1090
12097TIP3    H157706   1.777   0.084  10.834  0.1792  0.5065 -0.1403
12097TIP3    H257707   1.628   0.108  10.818  0.1707  0.2532 -0.4504
12098TIP3   OH257708   3.735   6.522   5.222  0.0981  0.4323 -0.1121
12098TIP3    H157709   3.753   6.532   5.129 -1.3405  0.7308 -0.3839
12098TIP3    H257710   3.817   6.547   5.265  0.8562  0.0669 -1.2867
12099TIP3   OH257711   6.613   2.539  14.948  0.6223 -0.3172  0.1110
12099TIP3    H157712   6.599   2.521  15.040  1.7456  1.3947  0.6746
12099TIP3    H257713   6.702   2.576  14.944 -0.1491  1.5589 -1.3181
12100TIP3   OH257714   2.525   2.780  15.790  0.2388 -0.0214 -0.4837
12100TIP3    H157715   2.450   2.836  15.808 -0.3260 -0.3011 -1.8998
12100TIP3    H257716   2.521   2.713  15.858  0.2173  0.9290  0.4871
12101TIP3   OH257717   5.804   4.214   3.833  0.3567  0.3963 -0.1226
12101TIP3    H157718   5.783   4.212   3.740  1.3864  1.2005 -0.3912
12101TIP3    H257719   5.745   4.280   3.870 -1.8840 -1.7040  0.3300
12102TIP3   OH257720   3.851   3.355   1.710  0.3287  0.2267  0.0687
12102TIP3    H157721   3.932   3.328   1.667  0.1672 -0.3544  0.1240
12102TIP3    H257722   3.788   3.285   1.691 -0.2780  0.8608 -0.3059
12103TIP3   OH257723   5.164   6.468   4.065  0.2305 -0.3934 -0.6098
12103TIP3    H157724   5.246   6.455   4.018  0.8102 -0.0643  0.2721
12103TIP3    H257725   5.153   6.388   4.116 -1.8236 -1.9808 -3.2872
12104TIP3   OH257726   2.232   5.052  11.527  0.0926  0.4093 -0.2355
12104TIP3    H157727   2.322   5.082  11.513 -0.5965  1.8597 -1.9085
12104TIP3    H257728   2.197   5.039  11.439 -0.3684 -3.4492  0.3496
12105TIP3   OH257729   3.363   2.734  14.889 -0.1741  0.8004 -0.1649
12105TIP3    H157730   3.424   2.803  14.913 -0.1853  0.3583  1.2192
12105TIP3    H257731   3.409   2.682  14.823  0.5713  1.0118  0.1841
12106TIP3   OH257732   3.402   4.593   6.623 -0.3260 -0.1030  0.1155
12106TIP3    H157733   3.480   4.537   6.626  0.5128  0.8054 -2.1127
12106TIP3    H257734   3.341   4.546   6.567 -1.5480 -0.9162  2.0363
12107TIP3   OH257735   1.287   4.499  13.307  0.1849  0.3018 -0.1236
12107TIP3    H157736   1.333   4.525  13.227  0.1228  1.5725  0.2328
12107TIP3    H257737   1.353   4.453  13.359  0.1659 -0.7502 -0.9797
12108TIP3   OH257738   4.967   5.123   5.977  0.0225  0.1106  0.7911
12108TIP3    H157739   5.027   5.069   5.925  0.2740 -0.4128  1.6106
12108TIP3    H257740   5.004   5.122   6.065 -0.8166  0.3533  1.1586
12109TIP3   OH257741   4.110   6.529  13.361 -0.1764 -0.2762 -0.0957
12109TIP3    H157742   4.111   6.622  13.339  0.8645 -0.4303 -0.7564
12109TIP3    H257743   4.023   6.514  13.396 -1.1338  0.4845 -2.0065
12110TIP3   OH257744   6.008   6.340  12.147 -0.0391 -0.1792  0.1159
12110TIP3    H157745   6.050   6.341  12.061 -0.1643  0.3782  0.0578
12110TIP3    H257746   6.050   6.268  12.193 -0.0838 -0.5920 -0.4701
12111TIP3   OH257747   2.456   0.804   5.455 -1.1003  0.7940  0.2297
12111TIP3    H157748   2.488   0.894   5.457 -1.3744  0.8874  0.4195
12111TIP3    H257749   2.462   0.779   5.363  1.6239  0.0469  0.5269
12112TIP3   OH257750   6.573   0.805   4.104  0.1343 -0.1635 -0.0005
12112TIP3    H157751   6.634   0.869   4.068  0.8762 -0.1671  1.1988
12112TIP3    H257752   6.488   0.831   4.070  0.3624  1.6972  0.7233
12113TIP3   OH257753   6.747   6.446   0.736  0.0577 -0.8207  0.2871
12113TIP3    H157754   6.838   6.422   0.718  0.7615  1.8305 -0.1431
12113TIP3    H257755   6.712   6.472   0.650  0.2216  2.0376  0.9906
12114TIP3   OH257756   2.084   3.914   6.730 -0.4458  0.3183  0.2420
12114TIP3    H157757   2.123   3.979   6.672  1.2188  0.6394  1.6389
12114TIP3    H257758   2.139   3.916   6.809 -3.0251  0.4776  2.1807
12115TIP3   OH257759   1.836   2.456   6.743 -0.2099 -0.0401 -0.1542
12115TIP3    H157760   1.798   2.411   6.668  0.5983 -2.0062  0.5517
12115TIP3    H257761   1.907   2.399   6.772 -0.7339  0.4589  2.3491
12116TIP3   OH257762   6.065   4.028   5.598 -0.3100 -0.3333 -0.4026
12116TIP3    H157763   6.106   3.978   5.528 -1.1238  0.0603 -1.1748
12116TIP3    H257764   6.113   4.002   5.677  1.3280  0.0203 -1.2368
12117TIP3   OH257765   4.076   3.381   4.570 -0.4549  0.0075  0.1149
12117TIP3    H157766   4.111   3.375   4.481  0.0420 -0.4518  0.3374
12117TIP3    H257767   4.063   3.475   4.584  0.6119  0.1842 -0.0012
12118TIP3   OH257768   2.498   1.612  13.065  0.3147  0.6699  0.1991
12118TIP3    H157769   2.500   1.672  12.991 -2.6174 -1.0460 -1.4801
12118TIP3    H257770   2.525   1.528  13.029 -1.2205 -0.2214  0.9836
12119TIP3   OH257771   0.878   1.777  13.458  0.4523  0.6066 -0.5944
12119TIP3    H157772   0.832   1.790  13.375 -0.7542  0.2325  0.0010
12119TIP3    H257773   0.832   1.706  13.501  0.3946  1.4937  0.8710
12120TIP3   OH257774   1.242   1.201  16.565  0.5329 -0.5234 -1.0783
12120TIP3    H157775   1.157   1.158  16.560 -0.0253  0.3812  0.2179
12120TIP3    H257776   1.299   1.138  16.608  0.2476 -0.7262 -0.9966
12121TIP3   OH257777   6.511   3.195   1.217  0.1823 -0.0654 -0.1953
12121TIP3    H157778   6.420   3.221   1.234 -0.8966 -2.8249 -1.2060
12121TIP3    H257779   6.560   3.233   1.290 -1.5584  2.3642 -0.1515
12122TIP3   OH257780   4.780   5.654  12.898 -0.3476  0.1893 -0.2422
12122TIP3    H157781   4.804   5.733  12.946  0.0410  1.0809 -1.8395
12122TIP3    H257782   4.801   5.674  12.807 -0.9852 -1.4746 -0.7894
12123TIP3   OH257783   4.950   6.152   4.989 -0.2801 -0.5455  0.2467
12123TIP3    H157784   4.899   6.229   4.964  0.1458  0.5147  2.4079
12123TIP3    H257785   4.894   6.077   4.967 -1.3663  0.4290 -0.4215
12124TIP3   OH257786   0.496   4.180   3.223  0.0982 -0.2333 -0.0283
12124TIP3    H157787   0.514   4.098   3.269 -1.6214 -0.6148  0.0489
12124TIP3    H257788   0.545   4.173   3.141  1.2860 -0.5921  0.6886
12125TIP3   OH257789   3.865   2.207  14.953 -0.4572 -0.0373  0.1726
12125TIP3    H157790   3.897   2.294  14.979 -0.0107  0.1379 -0.9246
12125TIP3    H257791   3.889   2.199  14.861 -3.5874  0.0981 -0.7459
12126TIP3   OH257792   3.362   2.796  16.179  0.3236 -0.0950  0.3545
12126TIP3    H157793   3.428   2.863  16.198  0.0126  0.2986  0.0773
12126TIP3    H257794   3.312   2.789  16.260  1.8434 -1.7555  1.2283
12127TIP3   OH257795   5.505   0.260  14.230 -0.2054 -0.4620 -0.6351
12127TIP3    H157796   5.584   0.217  14.196 -1.1761 -0.6048 -2.8995
12127TIP3    H257797   5.538   0.337  14.275  1.3268 -1.4639  0.0424
12128TIP3   OH257798   0.380   0.917  17.270  0.1238 -0.1683 -0.8378
12128TIP3    H157799   0.447   0.930  17.203  0.9189 -0.0023 -0.0342
12128TIP3    H257800   0.318   0.855  17.231  1.2419 -1.0490 -1.2562
12129TIP3   OH257801   4.555   3.945  14.735  0.6057 -0.0457  0.1355
12129TIP3    H157802   4.600   3.997  14.801 -0.8329  0.2986  0.9038
12129TIP3    H257803   4.522   4.010  14.673 -1.2981  0.0497  1.1611
12130TIP3   OH257804   3.130   5.793   1.890 -0.5285 -0.1479  0.7101
12130TIP3    H157805   3.153   5.806   1.798 -2.8915 -1.2007 -0.1248
12130TIP3    H257806   3.173   5.711   1.913 -0.4492 -0.2174  0.3352
12131TIP3   OH257807   3.274   3.726   2.619  0.1807 -0.4790 -0.1766
12131TIP3    H157808   3.261   3.692   2.530  0.7902 -0.9707 -0.0862
12131TIP3    H257809   3.240   3.657   2.676 -0.8657  0.1444 -0.0404
12132TIP3   OH257810   5.581   3.384  13.386  0.2635 -0.5932  0.0776
12132TIP3    H157811   5.504   3.348  13.342 -0.0862  0.2804 -0.0239
12132TIP3    H257812   5.615   3.310  13.437  0.4912 -1.5497 -1.3674
12133TIP3   OH257813   0.616   2.538  14.033  0.0906 -0.2953  0.0804
12133TIP3    H157814   0.554   2.603  14.066 -0.4608 -0.9425  0.3457
12133TIP3    H257815   0.652   2.576  13.953 -1.9258 -0.6075 -1.0345
12134TIP3   OH257816   3.796   2.766   4.860  0.0695 -0.1701  0.6703
12134TIP3    H157817   3.850   2.784   4.937  0.1499 -0.4307  0.6777
12134TIP3    H257818   3.843   2.697   4.813  1.0838  1.3480 -0.6900
12135TIP3   OH257819   3.282   5.926  16.894  0.1584 -0.4912 -0.2916
12135TIP3    H157820   3.225   5.950  16.821 -0.9936  0.5522  0.9002
12135TIP3    H257821   3.237   5.854  16.937  1.2297 -1.6479 -1.0300
12136TIP3   OH257822   4.180   2.877  14.643 -0.2319  0.9775 -0.2123
12136TIP3    H157823   4.271   2.871  14.614 -0.3664 -0.0288 -0.4915
12136TIP3    H257824   4.178   2.950  14.704  0.7255  1.1288 -0.3528
12137TIP3   OH257825   2.062   3.290   5.784  0.4476  0.4318 -0.5718
12137TIP3    H157826   2.030   3.357   5.844 -2.4688 -2.2446  1.1696
12137TIP3    H257827   2.105   3.226   5.841  4.2280  1.1901 -2.3065
12138TIP3   OH257828   1.879   6.518  14.884 -0.2538  0.4273 -0.2957
12138TIP3    H157829   1.822   6.447  14.852 -1.4396  1.0167  0.4440
12138TIP3    H257830   1.930   6.544  14.807 -0.0635 -0.9572 -0.6778
12139TIP3   OH257831   3.138   6.315   3.099 -0.3671 -0.1378  0.0582
12139TIP3    H157832   3.095   6.377   3.158 -0.7143  2.6904 -2.9087
12139TIP3    H257833   3.228   6.311   3.131 -0.5785  1.1919  0.9016
12140TIP3   OH257834   3.619   0.855   0.003 -0.1143  0.0665  0.1047
12140TIP3    H157835   3.555   0.873  -0.066 -1.0577 -0.4436  0.8254
12140TIP3    H257836   3.570   0.806   0.069  0.9160  0.0531  0.8812
12141TIP3   OH257837   5.416   5.267   3.654 -0.6444 -0.0671  0.2280
12141TIP3    H157838   5.414   5.362   3.645 -0.5658 -0.2157 -2.1594
12141TIP3    H257839   5.325   5.240   3.659 -0.7453  0.0749 -0.6144
12142TIP3   OH257840   2.136   2.506  14.407 -0.3183  0.0811 -0.4992
12142TIP3    H157841   2.081   2.574  14.370  0.5517  1.0849  0.0090
12142TIP3    H257842   2.191   2.478  14.333  0.0924  0.7249 -0.4441
12143TIP3   OH257843   0.705   2.203  14.454 -0.0812  0.8451  0.1038
12143TIP3    H157844   0.697   2.264  14.381 -0.7064  0.3917 -0.2257
12143TIP3    H257845   0.624   2.152  14.451  0.3689  0.0841  0.4410
12144TIP3   OH257846   0.102   3.755   3.482 -0.8961 -0.2577 -0.3566
12144TIP3    H157847   0.169   3.816   3.451 -2.0443  0.8685 -0.7039
12144TIP3    H257848   0.142   3.668   3.472 -0.8835  0.0135 -4.5416
12145TIP3   OH257849   0.127   3.733  14.547  0.4796 -0.4507  0.1510
12145TIP3    H157850   0.135   3.810  14.491  2.4366  1.0503  2.2510
12145TIP3    H257851   0.037   3.735  14.579  0.1581  0.2769 -0.7695
12146TIP3   OH257852   2.685   6.297  13.325  0.3434  0.8571  0.1779
12146TIP3    H157853   2.650   6.232  13.265  0.4483 -0.7581  1.7651
12146TIP3    H257854   2.774   6.267  13.344  0.2980  1.2833  1.1590
12147TIP3   OH257855   1.472   2.948  14.836  0.0101 -0.6533  0.0008
12147TIP3    H157856   1.455   3.032  14.878  0.2630 -0.0818 -0.9941
12147TIP3    H257857   1.388   2.902  14.838 -0.9041  0.7722 -1.8864
12148TIP3   OH257858   1.662   1.627   1.528 -0.3366  0.0445 -0.2166
12148TIP3    H157859   1.671   1.535   1.504  2.3795  0.6729 -2.1131
12148TIP3    H257860   1.580   1.655   1.488  0.3195 -0.8520 -2.2744
12149TIP3   OH257861   4.197   5.209  14.507 -0.1257  0.1530 -0.1302
12149TIP3    H157862   4.256   5.134  14.516 -0.6367 -0.3629 -1.0086
12149TIP3    H257863   4.234   5.260  14.435 -0.7399 -0.1739 -0.6867
12150TIP3   OH257864   4.005   0.704  15.522  0.5761  0.2437 -0.0039
12150TIP3    H157865   4.045   0.724  15.607 -0.1388 -1.4825  0.8011
12150TIP3    H257866   4.041   0.770  15.462  1.1502  1.4742  1.6110
12151TIP3   OH257867   2.774   0.592  11.523 -0.2079 -0.9553 -0.7018
12151TIP3    H157868   2.759   0.614  11.431 -1.2130  0.0152 -0.3307
12151TIP3    H257869   2.686   0.571  11.557  0.2845 -2.3797 -0.2161
12152TIP3   OH257870   2.575   5.065  14.295  0.1841  0.5343  0.1330
12152TIP3    H157871   2.583   5.065  14.199  0.4856  0.9169  0.1581
12152TIP3    H257872   2.565   4.972  14.317  0.5596  0.4013 -0.2312
12153TIP3   OH257873   5.126   0.006   3.743 -0.1888  0.1741 -0.8237
12153TIP3    H157874   5.206   0.031   3.790 -0.2316 -1.6464  0.3261
12153TIP3    H257875   5.151   0.007   3.651  0.9541  0.3802 -0.5328
12154TIP3   OH257876   5.195   5.872  13.147 -0.0253 -0.5344 -0.2378
12154TIP3    H157877   5.203   5.869  13.052  0.4834 -2.2573 -0.1620
12154TIP3    H257878   5.271   5.924  13.176 -0.6634  0.7606 -0.7884
12155TIP3   OH257879   3.192   3.536  15.493 -0.3644 -0.0772  0.2324
12155TIP3    H157880   3.201   3.521  15.399  0.8853 -0.0784  0.3400
12155TIP3    H257881   3.113   3.488  15.517 -0.3905 -0.5436 -0.7205
12156TIP3   OH257882   6.240   2.254   1.579  0.2173  0.2711 -0.7687
12156TIP3    H157883   6.229   2.347   1.599 -1.4035 -0.0669  0.0997
12156TIP3    H257884   6.170   2.211   1.628  2.1122 -1.6340  0.4126
12157TIP3   OH257885   1.319   5.036   3.116 -0.3930 -0.0341 -0.6012
12157TIP3    H157886   1.292   5.051   3.206  2.2803  0.0260  0.2715
12157TIP3    H257887   1.297   4.945   3.099 -0.1357 -0.2943  0.4171
12158TIP3   OH257888   5.460   1.330   4.956 -0.2197 -0.1937 -0.7527
12158TIP3    H157889   5.369   1.331   4.985 -0.0790  0.0603 -0.3256
12158TIP3    H257890   5.509   1.372   5.026  0.0621  0.8141 -1.5337
12159TIP3   OH257891   4.058   6.303  13.998  0.1273 -0.0464  0.1252
12159TIP3    H157892   4.104   6.246  13.936  0.1397  0.3453 -0.2276
12159TIP3    H257893   4.124   6.327  14.062  0.5719  0.9548 -0.6812
12160TIP3   OH257894   4.191   0.133   0.733  0.1727  0.1136 -0.2420
12160TIP3    H157895   4.218   0.115   0.643 -1.7733  1.6502 -1.2159
12160TIP3    H257896   4.170   0.047   0.769  0.1115 -0.4494 -1.5658
12161TIP3   OH257897   5.798   4.315   1.169 -0.2345  0.4432 -0.3355
12161TIP3    H157898   5.794   4.379   1.240 -2.2627 -0.9010  0.8567
12161TIP3    H257899   5.716   4.328   1.121 -1.3768 -2.0999  0.7750
12162TIP3   OH257900   4.514   4.852  14.349  0.6222 -0.1180  0.2262
12162TIP3    H157901   4.541   4.767  14.317 -1.6166 -0.1625 -1.8854
12162TIP3    H257902   4.578   4.913  14.313  1.6850 -0.7665  0.9526
12163TIP3   OH257903   2.006   0.870   3.516  0.1859 -0.7293  0.0027
12163TIP3    H157904   2.070   0.931   3.480 -2.7165  1.8814 -1.3142
12163TIP3    H257905   1.952   0.846   3.440 -1.4303 -1.3722  1.3013
12164TIP3   OH257906   2.382   5.664   3.840  0.0752 -0.0534 -0.2360
12164TIP3    H157907   2.448   5.697   3.901 -1.1449 -0.7505  1.5539
12164TIP3    H257908   2.322   5.738   3.829  0.7236  0.3464 -1.3094
12165TIP3   OH257909   1.170   2.473   0.649  0.1197  0.1494 -0.2130
12165TIP3    H157910   1.088   2.426   0.662  0.3531  0.1102  1.2092
12165TIP3    H257911   1.145   2.553   0.603 -0.2525 -1.4205 -2.9642
12166TIP3   OH257912   3.067   2.181  16.323 -0.2095 -0.5282  0.1021
12166TIP3    H157913   3.018   2.102  16.302 -0.6067  0.2655 -2.3585
12166TIP3    H257914   3.034   2.246  16.261  0.7209  1.3315  1.4626
12167TIP3   OH257915   1.904   6.753  12.416  0.6887  0.7370  0.5719
12167TIP3    H157916   1.826   6.766  12.469  1.0669  0.1946  1.2785
12167TIP3    H257917   1.872   6.731  12.329  0.0370 -0.7850  1.1661
12168TIP3   OH257918   0.263   2.871   2.115  0.6223  0.0749  0.0086
12168TIP3    H157919   0.225   2.922   2.186 -0.0801 -0.7010  0.2096
12168TIP3    H257920   0.264   2.781   2.148  0.9148 -0.1955 -0.7084
12169TIP3   OH257921   1.999   3.042  11.958 -0.9904 -0.5071  0.1098
12169TIP3    H157922   1.956   2.966  11.995 -0.4592 -0.4864  0.7781
12169TIP3    H257923   1.990   3.110  12.025  0.5863 -0.6743  0.5241
12170TIP3   OH257924   4.983   1.696  11.712  0.1487  0.2907 -0.2710
12170TIP3    H157925   5.033   1.631  11.663  1.0986 -0.8837  2.1059
12170TIP3    H257926   5.047   1.761  11.739 -0.7343  2.1304 -2.3102
12171TIP3   OH257927   2.020   6.435  14.211  0.9792  0.1729 -0.1144
12171TIP3    H157928   2.051   6.479  14.132  0.5822  1.5050  0.4579
12171TIP3    H257929   1.938   6.479  14.232 -0.1202 -1.6874 -0.2396
12172TIP3   OH257930   3.040   4.819  17.214 -0.4688 -0.7859 -0.0226
12172TIP3    H157931   3.092   4.752  17.170  1.9786  0.6127  0.5050
12172TIP3    H257932   2.966   4.834  17.156  0.7974 -1.4852 -1.9333
12173TIP3   OH257933   0.070   6.026   0.802  0.2238 -0.3647  0.1681
12173TIP3    H157934   0.058   6.077   0.882 -2.9996 -1.0854  0.2858
12173TIP3    H257935   0.074   6.092   0.732 -0.0971  0.1768  0.6481
12174TIP3   OH257936   2.465   0.134   5.712 -0.2965 -0.4221  0.1214
12174TIP3    H157937   2.555   0.135   5.744 -0.6886  2.2180  1.4517
12174TIP3    H257938   2.472   0.106   5.621  2.1912  1.9014 -0.5263
12175TIP3   OH257939   3.433   2.308   5.755  0.3465  0.1036  0.4399
12175TIP3    H157940   3.507   2.249   5.769  0.9708  1.2868  2.6484
12175TIP3    H257941   3.433   2.365   5.833 -0.0946  3.1439 -1.6046
12176TIP3   OH257942   6.488   1.510  11.358 -0.3751 -0.5942  0.4972
12176TIP3    H157943   6.407   1.519  11.308 -0.8732 -0.0285  1.3726
12176TIP3    H257944   6.544   1.580  11.326 -0.4512 -0.6293  0.2884
12177TIP3   OH257945   3.252   2.801  16.433  0.9755 -0.4385 -0.4090
12177TIP3    H157946   3.206   2.872  16.479  0.7222 -0.0505 -1.2392
12177TIP3    H257947   3.187   2.731  16.425  0.9083 -0.3671 -0.4923
12178TIP3   OH257948   5.005   0.742   3.969  0.1818 -0.1503  0.0989
12178TIP3    H157949   5.090   0.702   3.949  0.4364  0.8622 -0.9183
12178TIP3    H257950   5.021   0.794   4.047 -0.3211 -2.4955  1.8860
12179TIP3   OH257951   0.260   6.035  13.397 -0.0652  0.0213 -0.2124
12179TIP3    H157952   0.307   5.960  13.433  0.1215 -0.4407 -1.3619
12179TIP3    H257953   0.175   5.999  13.371 -0.2204  0.3544 -0.1590
12180TIP3   OH257954   4.992   2.626   4.373  0.2494 -0.1578  0.0354
12180TIP3    H157955   5.012   2.694   4.438 -0.2958  0.7272 -0.7003
12180TIP3    H257956   5.073   2.577   4.364  0.1619 -0.6825  1.8283
12181TIP3   OH257957   5.218   3.090  12.714  0.6504  0.0829  0.2883
12181TIP3    H157958   5.245   3.138  12.792  2.4920  0.0045 -0.2528
12181TIP3    H257959   5.239   2.999  12.733 -0.9022 -0.2700  0.5004
12182TIP3   OH257960   5.724   3.023   2.231  0.1959 -0.0178  0.0333
12182TIP3    H157961   5.753   3.082   2.162 -0.5226  0.2445 -0.0578
12182TIP3    H257962   5.651   2.974   2.192  1.8903 -2.2940 -0.5127
12183TIP3   OH257963   0.528   4.582   6.360 -0.0854  0.0585  0.6047
12183TIP3    H157964   0.516   4.674   6.336 -0.9626  0.2284  1.6474
12183TIP3    H257965   0.454   4.562   6.416 -0.3578 -1.5375 -0.2633
12184TIP3   OH257966   4.574   0.716  10.718 -0.4829  0.1065 -0.2204
12184TIP3    H157967   4.550   0.648  10.782 -2.2421  0.5857 -0.3368
12184TIP3    H257968   4.655   0.684  10.679 -0.9546 -1.6425  0.1493
12185TIP3   OH257969   3.981   3.389   5.656  0.2177  0.8449  0.3342
12185TIP3    H157970   3.969   3.476   5.617 -0.7595  0.3073 -0.6227
12185TIP3    H257971   3.914   3.383   5.724  0.8907  1.1860  1.0303
12186TIP3   OH257972   3.694   4.724   0.291  0.6633 -0.3651  0.3369
12186TIP3    H157973   3.788   4.742   0.299  1.0331 -2.0235  0.0410
12186TIP3    H257974   3.666   4.701   0.379  0.1847  1.4881  0.7186
12187TIP3   OH257975   2.445   3.107  15.573  0.6479 -0.2368  0.1466
12187TIP3    H157976   2.438   3.050  15.496 -0.1441 -3.2503  2.2652
12187TIP3    H257977   2.539   3.109  15.592  0.8406  0.4460 -0.7843
12188TIP3   OH257978   2.399   4.826   4.819 -0.5454  0.1526 -0.5280
12188TIP3    H157979   2.397   4.759   4.751  1.6615  1.3376 -1.8882
12188TIP3    H257980   2.492   4.849   4.827 -0.5481 -0.5816  3.6212
12189TIP3   OH257981   3.108   2.106   4.220  0.1541 -0.0645  0.0380
12189TIP3    H157982   3.186   2.116   4.165 -0.1882 -1.2291 -0.6981
12189TIP3    H257983   3.036   2.095   4.159 -1.0182  3.1037  0.6419
12190TIP3   OH257984   2.658   0.385  12.849 -0.0027 -0.3243 -0.0309
12190TIP3    H157985   2.720   0.428  12.906 -0.9843  0.4929  0.4438
12190TIP3    H257986   2.644   0.446  12.777 -1.1978  0.0691  0.5098
12191TIP3   OH257987   0.348   0.449  13.232  0.1150 -0.1381  0.1872
12191TIP3    H157988   0.299   0.524  13.266 -0.0212  0.1180 -0.5625
12191TIP3    H257989   0.417   0.487  13.177  0.0870 -0.5546 -0.1463
12192TIP3   OH257990   1.890   3.075   3.233 -0.2198 -0.6553 -0.1267
12192TIP3    H157991   1.873   3.164   3.266  1.2011 -0.4668  0.1969
12192TIP3    H257992   1.955   3.088   3.164 -1.5210 -1.2728 -1.5109
12193TIP3   OH257993   1.512   2.124   4.630 -0.1607 -0.2113  0.0929
12193TIP3    H157994   1.491   2.075   4.709  0.9967  0.6305  0.9753
12193TIP3    H257995   1.441   2.187   4.621 -1.0531 -1.2639 -0.3899
12194TIP3   OH257996   1.577   4.259   5.884 -1.0769 -0.1372  0.2296
12194TIP3    H157997   1.605   4.263   5.975  4.4233 -3.7080 -0.8538
12194TIP3    H257998   1.639   4.315   5.837 -0.4466 -2.2602 -1.6716
12195TIP3   OH257999   6.076   4.309   1.712  0.4787 -0.1694 -0.4612
12195TIP3    H158000   6.047   4.264   1.633  2.6662  0.4296 -1.6886
12195TIP3    H258001   6.171   4.314   1.703  0.5872  1.8309  1.1638
12196TIP3   OH258002   3.177   6.082  14.469 -0.3420  0.0099 -0.3714
12196TIP3    H158003   3.203   6.067  14.378  2.6465 -2.6723  0.7363
12196TIP3    H258004   3.251   6.130  14.507 -1.4906  0.9918  0.6992
12197TIP3   OH258005   5.317   6.585  12.349 -0.1466 -0.0594 -0.0484
12197TIP3    H158006   5.341   6.622  12.264  0.9808 -2.8645 -1.0584
12197TIP3    H258007   5.395   6.596  12.403  0.3936 -1.4023 -0.5322
12198TIP3   OH258008   4.881   3.451   1.104  0.0640 -0.0684 -0.5254
12198TIP3    H158009   4.908   3.533   1.063 -0.3900  0.0324 -0.6243
12198TIP3    H258010   4.941   3.385   1.067 -0.7593 -0.0962 -1.8699
12199TIP3   OH258011   5.052   1.998  14.315 -0.0530  0.4123  0.6141
12199TIP3    H158012   5.134   2.019  14.360 -0.3536  1.9197  0.5068
12199TIP3    H258013   5.031   1.910  14.344  1.2724  0.2443  1.1443
12200TIP3   OH258014   0.743   5.222   0.206  0.4130 -0.0940 -0.6157
12200TIP3    H158015   0.745   5.135   0.246  0.8168  0.0389 -0.3478
12200TIP3    H258016   0.775   5.281   0.274 -1.2179  0.4818 -0.2809
12201TIP3   OH258017   4.739   2.059   1.774 -0.2717 -0.1064  0.4213
12201TIP3    H158018   4.781   2.127   1.826 -0.5612 -1.1038  2.0254
12201TIP3    H258019   4.663   2.101   1.734 -0.1318  0.6476  0.9380
12202TIP3   OH258020   2.850   0.509   3.833 -0.5072 -0.1771 -0.3011
12202TIP3    H158021   2.862   0.584   3.776 -1.3319 -0.0872 -0.3604
12202TIP3    H258022   2.760   0.482   3.820 -0.3267 -0.9619 -0.0111
12203TIP3   OH258023   6.643   2.597   1.082 -0.2512 -0.2446 -0.2164
12203TIP3    H158024   6.631   2.539   1.158 -2.2873 -0.9994 -1.0469
12203TIP3    H258025   6.679   2.540   1.014  1.5554  0.4273  0.1063
12204TIP3   OH258026   1.238   6.715   5.400  0.0979 -0.0750 -0.2699
12204TIP3    H158027   1.315   6.658   5.401  1.0902  1.0368 -2.7599
12204TIP3    H258028   1.164   6.656   5.410  1.1905 -1.4163  0.2372
12205TIP3   OH258029   3.055   4.970  11.783  0.2176 -0.4269 -0.5562
12205TIP3    H158030   3.064   4.890  11.731  2.1046  0.0456 -1.0431
12205TIP3    H258031   3.000   5.027  11.729 -0.6506 -1.1535 -0.4722
12206TIP3   OH258032   1.842   4.800   2.732 -0.1540  0.1710 -0.0717
12206TIP3    H158033   1.816   4.874   2.678  0.4214  1.1596  0.9728
12206TIP3    H258034   1.892   4.744   2.673 -0.5819  0.6131 -0.8711
12207TIP3   OH258035   5.366   5.013  10.470 -0.0767 -0.2335  0.1054
12207TIP3    H158036   5.445   4.974  10.507  0.4728  0.0411 -0.7738
12207TIP3    H258037   5.374   5.107  10.488  0.1086 -0.1206 -0.5399
12208TIP3   OH258038   1.188   0.977  11.234 -0.5371  0.4692 -0.0836
12208TIP3    H158039   1.197   1.068  11.209  0.9488  0.3088 -0.1878
12208TIP3    H258040   1.167   0.931  11.152 -0.7637  0.6370 -0.1211
12209TIP3   OH258041   2.756   2.111   2.576 -0.4203  0.0081 -0.3406
12209TIP3    H158042   2.809   2.105   2.496  1.6847 -0.0612  0.9806
12209TIP3    H258043   2.820   2.118   2.647 -2.2056 -0.3699  1.4072
12210TIP3   OH258044   2.066   3.713   3.094 -0.1090  0.3952  0.1819
12210TIP3    H158045   1.981   3.685   3.127  0.7625  0.1177  2.3472
12210TIP3    H258046   2.066   3.808   3.105 -0.3146  0.4536 -0.2949
12211TIP3   OH258047   3.421   5.096   4.780 -0.3378  0.8883 -0.4648
12211TIP3    H158048   3.336   5.111   4.822 -0.9717 -0.1964 -1.2996
12211TIP3    H258049   3.442   5.005   4.803  0.9649  1.3643  0.3350
12212TIP3   OH258050   2.126   5.105   3.881  0.2870 -0.2333 -0.4531
12212TIP3    H158051   2.128   5.135   3.972  0.2638  1.1764 -0.8908
12212TIP3    H258052   2.208   5.139   3.844  1.3161 -2.5301 -0.4721
12213TIP3   OH258053   4.179   2.064  14.992  0.0777 -0.2339 -0.1802
12213TIP3    H158054   4.123   2.045  15.067 -0.3946  0.5050 -0.3407
12213TIP3    H258055   4.164   2.156  14.973  2.5047  0.4140  0.7200
12214TIP3   OH258056   4.527   2.291  16.723  0.7907  0.3889  0.7595
12214TIP3    H158057   4.454   2.334  16.678  0.0988  0.1948  1.6727
12214TIP3    H258058   4.606   2.327  16.681  0.1850  0.8844  0.0223
12215TIP3   OH258059   1.625   3.687  16.735  0.3569  0.2938 -0.2554
12215TIP3    H158060   1.689   3.681  16.664 -0.1030 -0.5579 -0.6079
12215TIP3    H258061   1.594   3.597  16.748 -1.1660  0.7661 -0.4565
12216TIP3   OH258062   4.572   0.388   0.553  0.8621  0.2064 -0.4597
12216TIP3    H158063   4.642   0.337   0.512  0.5853 -0.7398  0.2070
12216TIP3    H258064   4.594   0.388   0.646  1.6483  2.5774 -0.5685
12217TIP3   OH258065   4.289   0.358   3.756 -0.5060  0.8932  0.4582
12217TIP3    H158066   4.220   0.301   3.791  0.0025 -0.9233 -1.2556
12217TIP3    H258067   4.251   0.396   3.677  0.8381 -1.4735 -1.4976
12218TIP3   OH258068   6.087   0.602   1.337 -0.0515  0.8644  0.0180
12218TIP3    H158069   6.033   0.681   1.341 -3.0769 -0.9601 -1.4285
12218TIP3    H258070   6.114   0.586   1.428  1.8358  4.1678  0.2079
12219TIP3   OH258071   2.230   1.397  17.151 -0.2442 -0.5288  0.5751
12219TIP3    H158072   2.285   1.442  17.088 -0.9278 -1.7363 -0.9698
12219TIP3    H258073   2.141   1.409  17.118 -1.2296  2.6918  3.8235
12220TIP3   OH258074   2.439   4.199   2.791  0.0538  0.0600  0.1630
12220TIP3    H158075   2.513   4.154   2.750 -0.4488 -2.4941  1.8356
12220TIP3    H258076   2.381   4.221   2.719  2.1988  1.8860 -1.1744
12221TIP3   OH258077   1.347   0.883  10.598 -0.1562  0.1710 -0.2348
12221TIP3    H158078   1.265   0.858  10.640 -0.0603 -0.0654 -0.1890
12221TIP3    H258079   1.373   0.806  10.547 -0.3305  0.4910 -0.8220
12222TIP3   OH258080   1.057   4.700   4.976  0.6020 -0.2703 -0.6592
12222TIP3    H158081   0.992   4.645   4.931  2.3545 -0.9838 -2.4864
12222TIP3    H258082   1.055   4.783   4.927 -1.3933  1.1087  1.5305
12223TIP3   OH258083   6.209   2.544   3.071 -0.1076  0.2743 -0.2597
12223TIP3    H158084   6.156   2.570   3.146  1.7468  3.0232  0.2281
12223TIP3    H258085   6.153   2.560   2.995 -1.9483 -2.3967  0.3955
12224TIP3   OH258086   2.294   2.517   2.937  0.3375 -0.3069 -0.2871
12224TIP3    H158087   2.245   2.438   2.917 -0.0318 -0.2937  0.5629
12224TIP3    H258088   2.227   2.581   2.962  0.8401 -0.9549  3.2602
12225TIP3   OH258089   5.415   4.130  12.051 -0.5020 -0.1685 -0.3044
12225TIP3    H158090   5.366   4.123  11.969 -0.0309  0.0657 -0.6082
12225TIP3    H258091   5.393   4.217  12.084  0.0576  0.1170 -0.6706
12226TIP3   OH258092   4.655   0.474  16.080 -0.1958 -0.6192 -0.4867
12226TIP3    H158093   4.661   0.569  16.072 -1.5148 -0.4651  0.1283
12226TIP3    H258094   4.653   0.458  16.174 -1.1182 -1.1617 -0.5900
12227TIP3   OH258095   3.432   5.798   4.004 -0.4674 -0.2658  0.9629
12227TIP3    H158096   3.518   5.840   4.005 -0.7958  0.4173  1.6729
12227TIP3    H258097   3.408   5.793   3.912  0.6423 -1.1246  0.7016
12228TIP3   OH258098   3.664   0.619   4.214 -0.1532  0.2783  0.0875
12228TIP3    H158099   3.583   0.646   4.258 -0.6019  0.0559 -0.5744
12228TIP3    H258100   3.634   0.573   4.136  0.6058 -0.9448  0.4888
12229TIP3   OH258101   4.246   6.470   3.455  0.1310 -0.1445  0.6401
12229TIP3    H158102   4.186   6.412   3.408 -0.3973  0.2203  0.8568
12229TIP3    H258103   4.228   6.557   3.421  0.7109 -0.0601  0.5336
12230TIP3   OH258104   4.597   6.017  16.937  0.1683 -0.1254 -0.1483
12230TIP3    H158105   4.642   6.035  16.855  0.0643 -2.0378 -0.6784
12230TIP3    H258106   4.640   5.938  16.971  0.8488  1.1398  2.1485
12231TIP3   OH258107   4.736   3.829  13.569 -0.4076 -0.4300 -0.5018
12231TIP3    H158108   4.801   3.812  13.501  0.2528  1.0881 -0.2923
12231TIP3    H258109   4.651   3.811  13.527 -0.0642  1.1077 -1.9574
12232TIP3   OH258110   2.427   0.828   3.396 -0.0499  0.0600  0.2498
12232TIP3    H158111   2.420   0.848   3.490 -0.6383  1.0030  0.0066
12232TIP3    H258112   2.454   0.910   3.356 -1.5954  0.1710 -0.6394
12233TIP3   OH258113   1.724   0.625  15.946 -0.3001  0.3571  0.6119
12233TIP3    H158114   1.804   0.604  15.994 -1.0326 -0.1599  1.6427
12233TIP3    H258115   1.721   0.560  15.876 -1.6818 -2.1176  2.7768
12234TIP3   OH258116   4.309   5.566   2.186 -0.2922  0.3883  0.1515
12234TIP3    H158117   4.284   5.476   2.210 -1.3373  0.9071  1.1018
12234TIP3    H258118   4.287   5.618   2.263  1.7148  1.2608  0.1717
12235TIP3   OH258119   1.719   3.415   4.357 -0.8193 -0.1488 -0.6112
12235TIP3    H158120   1.721   3.333   4.407  3.5717 -2.5264 -3.9493
12235TIP3    H258121   1.775   3.475   4.406 -1.2758 -0.3316  0.1505
12236TIP3   OH258122   4.146   3.146   3.545  0.2035 -0.1984 -0.1393
12236TIP3    H158123   4.098   3.218   3.505 -0.1994 -0.1643  0.3841
12236TIP3    H258124   4.081   3.077   3.559  0.6245 -0.7470 -0.8128
12237TIP3   OH258125   1.880   0.777   4.600 -0.3602  0.2960  0.2676
12237TIP3    H158126   1.841   0.864   4.615 -0.9213 -0.0404  0.8473
12237TIP3    H258127   1.813   0.716   4.632  0.8263 -0.2953  1.7362
12238TIP3   OH258128   5.098   0.625   4.501  0.5603  0.2149  0.5324
12238TIP3    H158129   5.044   0.580   4.436  0.0142  1.9209 -0.2698
12238TIP3    H258130   5.057   0.604   4.585  1.5940 -2.4665  0.4387
12239TIP3   OH258131   4.086   6.528   1.968  0.4448  0.0698  0.5807
12239TIP3    H158132   4.140   6.558   2.041 -1.5924  0.7487  1.9011
12239TIP3    H258133   4.148   6.490   1.906  2.7522  3.2453  0.7155
12240TIP3   OH258134   1.618   3.493  16.322 -0.1587  0.3586  0.0635
12240TIP3    H158135   1.585   3.435  16.252  2.7453 -0.8671 -0.4524
12240TIP3    H258136   1.671   3.558  16.276 -0.9242  1.6303  0.9174
12241TIP3   OH258137   3.865   1.923   6.192  0.0754 -0.4533  0.5585
12241TIP3    H158138   3.954   1.953   6.211 -0.9692  1.2112  3.3369
12241TIP3    H258139   3.849   1.852   6.254 -0.6602 -0.5020  0.3278
12242TIP3   OH258140   4.370   0.642  11.568  0.2870 -0.0685 -0.1094
12242TIP3    H158141   4.385   0.553  11.602 -2.0789 -1.4953 -2.3905
12242TIP3    H258142   4.279   0.660  11.592  0.9361  2.0965  0.9063
12243TIP3   OH258143   3.210   2.016   4.883  0.2296  0.3220  0.3724
12243TIP3    H158144   3.121   2.013   4.918  0.1714  2.3971  0.5320
12243TIP3    H258145   3.251   2.090   4.928  1.8646 -0.2450 -0.1123
12244TIP3   OH258146   0.182   0.980  16.282  0.1008  0.1389 -0.0109
12244TIP3    H158147   0.112   1.020  16.230  1.0370  1.0914 -0.5886
12244TIP3    H258148   0.262   1.016  16.245  0.9012 -0.9331  0.6392
12245TIP3   OH258149   3.993   5.415   4.917 -0.3483  0.0558 -0.2420
12245TIP3    H158150   3.925   5.469   4.957 -0.6694  0.6665 -1.5419
12245TIP3    H258151   4.055   5.478   4.880 -0.3092 -0.4544 -1.0832
12246TIP3   OH258152   1.622   5.998   0.936 -0.5788  0.1119 -0.0896
12246TIP3    H158153   1.574   6.053   0.997  0.9122  1.1046  0.2575
12246TIP3    H258154   1.590   5.910   0.952 -0.5818  0.4100  1.7994
12247TIP3   OH258155   2.585   4.631   4.369  0.3386  0.1639 -0.2384
12247TIP3    H158156   2.666   4.679   4.357  0.6975 -0.1300  0.8468
12247TIP3    H258157   2.532   4.687   4.425 -1.2157  1.4389 -2.8220
12248TIP3   OH258158   2.689   6.621   0.730  0.1752 -0.3061 -0.1437
12248TIP3    H158159   2.683   6.579   0.644  0.2755 -1.1006  0.2225
12248TIP3    H258160   2.738   6.558   0.784 -0.5984 -0.2028  0.7108
12249TIP3   OH258161   0.848   1.038  12.132 -0.2550 -0.3219  0.4067
12249TIP3    H158162   0.899   0.965  12.164  1.1714 -0.7650 -2.5180
12249TIP3    H258163   0.873   1.046  12.040 -1.4419  2.9234  0.2246
12250TIP3   OH258164   2.817   0.725  10.975  0.0534  0.3639  0.0295
12250TIP3    H158165   2.751   0.660  10.949  0.6586 -0.7799  1.2476
12250TIP3    H258166   2.814   0.791  10.905 -1.9062  0.0082 -0.2927
12251TIP3   OH258167   1.596   0.099   1.918 -0.1896 -0.9335  0.3183
12251TIP3    H158168   1.550   0.031   1.869 -2.5114  1.2958 -0.8671
12251TIP3    H258169   1.526   0.149   1.960  1.2669  1.5616 -0.0249
12252TIP3   OH258170   4.705   3.246  12.238  0.2227 -0.1410 -0.5783
12252TIP3    H158171   4.679   3.203  12.156 -1.0642 -1.5304  0.5027
12252TIP3    H258172   4.751   3.178  12.287 -1.2574 -0.1449  0.8821
12253TIP3   OH258173   3.368   4.668  13.662 -0.2719 -0.4633  0.0896
12253TIP3    H158174   3.300   4.607  13.691 -1.4793  0.7878 -0.0369
12253TIP3    H258175   3.423   4.681  13.740 -1.6689  0.4479  0.9708
12254TIP3   OH258176   0.054   6.727   6.417  0.2470 -0.0971  0.4170
12254TIP3    H158177   0.116   6.772   6.359 -1.8599 -0.6813 -2.5277
12254TIP3    H258178   0.079   6.635   6.411 -0.3632 -0.2352 -0.1393
12255TIP3   OH258179   6.510   4.558  15.119 -0.4232  0.5500  0.3939
12255TIP3    H158180   6.459   4.486  15.082 -1.7119  2.4824 -1.8258
12255TIP3    H258181   6.594   4.518  15.144 -1.2472 -1.7648 -0.3110
12256TIP3   OH258182   3.937   3.754  16.049 -0.1226 -0.7075 -0.0030
12256TIP3    H158183   3.934   3.667  16.009 -0.7640 -0.7770  0.1953
12256TIP3    H258184   4.003   3.747  16.118  0.7480 -0.6827 -0.8064
12257TIP3   OH258185   2.573   1.745  16.249 -0.0716  0.0377  0.0575
12257TIP3    H158186   2.649   1.751  16.306 -1.4007  0.9460  1.8516
12257TIP3    H258187   2.516   1.681  16.292 -1.3492  1.1699  0.1149
12258TIP3   OH258188   6.004   5.824  12.401 -0.2760  0.0104 -0.6807
12258TIP3    H158189   6.017   5.778  12.318  1.2011  2.3266 -1.8414
12258TIP3    H258190   5.928   5.879  12.386  0.0613  0.5191 -0.5431
12259TIP3   OH258191   2.049   5.240   5.228 -0.4696  0.1455  0.5559
12259TIP3    H158192   2.024   5.152   5.197 -1.2144  0.7172 -0.5596
12259TIP3    H258193   2.018   5.243   5.318 -0.5280 -0.7056  0.5778
12260TIP3   OH258194   5.781   0.718   0.402 -0.0639 -0.0819  0.4152
12260TIP3    H158195   5.714   0.732   0.334 -0.8581  0.2541  1.2479
12260TIP3    H258196   5.736   0.738   0.484  1.1477  0.4207  0.9725
12261TIP3   OH258197   1.532   2.810   1.199  0.1860  0.2787  0.2109
12261TIP3    H158198   1.464   2.824   1.132 -0.7293 -0.7686  0.8797
12261TIP3    H258199   1.491   2.750   1.261  1.9721 -0.9149  0.2910
12262TIP3   OH258200   3.593   2.475   5.431  0.4256 -0.4577 -0.0420
12262TIP3    H158201   3.643   2.541   5.383  0.9549  0.5199  1.7540
12262TIP3    H258202   3.628   2.479   5.521 -1.9008 -0.7432  0.9427
12263TIP3   OH258203   0.967   6.323  13.206 -0.0965  0.5188  0.2896
12263TIP3    H158204   1.048   6.298  13.161 -0.1144  0.3309  0.3631
12263TIP3    H258205   0.979   6.293  13.296 -0.0912  0.8320  0.3949
12264TIP3   OH258206   5.808   2.545   0.668  0.0354  0.2711 -0.2087
12264TIP3    H158207   5.731   2.586   0.630  0.6393  2.8077  1.0946
12264TIP3    H258208   5.881   2.598   0.637  0.8688  0.1870  1.4871
12265TIP3   OH258209   1.106   4.604  11.135 -0.3199  0.6030  0.7248
12265TIP3    H158210   1.025   4.629  11.089 -0.4623  1.6610  1.5047
12265TIP3    H258211   1.176   4.639  11.081 -0.4470  0.9041  0.7496
12266TIP3   OH258212   4.084   4.777   5.136  0.1363 -0.4825 -0.0201
12266TIP3    H158213   4.130   4.808   5.214 -1.6241  1.3568  0.4011
12266TIP3    H258214   3.993   4.803   5.151 -0.1488  0.7285 -3.0395
12267TIP3   OH258215   4.893   3.679  12.840 -0.2683 -0.7891  0.2168
12267TIP3    H158216   4.820   3.731  12.805 -0.5311 -1.8637 -0.8725
12267TIP3    H258217   4.946   3.657  12.764  0.6826 -0.8578  0.8757
12268TIP3   OH258218   6.289   3.911   5.783  0.2894  0.3174 -0.3831
12268TIP3    H158219   6.365   3.930   5.728  1.2690  0.3109  0.8927
12268TIP3    H258220   6.277   3.817   5.777  0.3089  0.3335 -0.6750
12269TIP3   OH258221   3.371   1.490   4.198 -0.4542 -0.2926 -0.1306
12269TIP3    H158222   3.446   1.524   4.149 -0.9441 -0.5751 -1.0877
12269TIP3    H258223   3.349   1.561   4.259  0.3183 -0.0410 -0.1288
12270TIP3   OH258224   5.258   3.554   2.577  0.0526  0.2267  0.7724
12270TIP3    H158225   5.348   3.586   2.567  0.2383 -0.8214 -1.2027
12270TIP3    H258226   5.261   3.462   2.550 -2.1213  0.9210 -2.4307
12271TIP3   OH258227   1.216   6.499  11.145  0.2466  0.0395 -0.0814
12271TIP3    H158228   1.128   6.497  11.182  0.1150  0.3094 -0.3712
12271TIP3    H258229   1.224   6.418  11.096  0.0967  0.0964 -0.1979
12272TIP3   OH258230   0.816   6.743  14.441 -0.7778 -0.2238 -0.4239
12272TIP3    H158231   0.873   6.702  14.506  1.0168  3.1139  0.3230
12272TIP3    H258232   0.728   6.729  14.474 -0.0483 -0.7636  1.3913
12273TIP3   OH258233   1.550   4.359  13.362 -0.4098  0.0689  0.6294
12273TIP3    H158234   1.560   4.354  13.267  0.6105  0.7597  0.6798
12273TIP3    H258235   1.640   4.366  13.395 -0.8183  1.5283  1.5222
12274TIP3   OH258236   6.300   2.051  16.015 -0.6096 -0.3252 -0.2691
12274TIP3    H158237   6.310   1.963  16.051 -0.7244  0.0991  0.8700
12274TIP3    H258238   6.262   2.038  15.928 -0.7096 -1.3924 -0.0791
12275TIP3   OH258239   1.308   0.990  16.201 -0.2323 -0.1858 -0.0975
12275TIP3    H158240   1.321   1.082  16.223  0.8791 -0.0178 -1.3983
12275TIP3    H258241   1.222   0.969  16.240 -1.9853  2.2218 -2.2984
12276TIP3   OH258242   1.069   0.377   4.246 -0.2567 -0.0065 -0.5860
12276TIP3    H158243   1.146   0.398   4.297  0.6413 -1.3159 -1.3559
12276TIP3    H258244   1.001   0.435   4.281  1.1059  1.3500 -0.0568
12277TIP3   OH258245   3.952   3.856  12.500 -0.2750 -0.1386 -0.2410
12277TIP3    H158246   4.023   3.833  12.560 -2.1379  0.2500  2.2798
12277TIP3    H258247   3.953   3.952  12.496 -0.0057 -0.1705 -1.0579
12278TIP3   OH258248   3.166   5.265   4.375 -0.0587 -0.3176 -0.1684
12278TIP3    H158249   3.232   5.204   4.410 -1.0932 -1.2825  0.1574
12278TIP3    H258250   3.198   5.351   4.400 -0.7892 -0.9170  3.3816
12279TIP3   OH258251   0.062   5.413   0.583 -0.0388 -0.1343  0.0048
12279TIP3    H158252   0.024   5.501   0.584 -3.0425 -1.2928 -0.6492
12279TIP3    H258253   0.094   5.402   0.494  2.9672  1.1770  0.7908
12280TIP3   OH258254   0.587   6.555   0.715  0.4857  0.1398  0.4564
12280TIP3    H158255   0.499   6.592   0.708 -0.2393 -1.7452 -1.1677
12280TIP3    H258256   0.586   6.509   0.799  0.5701  1.6350  1.3078
12281TIP3   OH258257   4.830   0.298   3.545  0.8261 -0.2120  0.6414
12281TIP3    H158258   4.863   0.378   3.585  0.6634  0.3950 -0.4270
12281TIP3    H258259   4.905   0.239   3.542  0.9333 -0.1306  1.4697
12282TIP3   OH258260   5.147   6.199  12.770 -0.0285 -0.0645 -0.1714
12282TIP3    H158261   5.177   6.114  12.738 -0.7752 -0.3682 -0.0974
12282TIP3    H258262   5.075   6.222  12.711  0.3394  0.6445 -0.3545
12283TIP3   OH258263   1.971   4.214  14.012  0.3023 -0.3208  0.1428
12283TIP3    H158264   1.926   4.257  13.940 -1.2619 -1.9157  0.0889
12283TIP3    H258265   1.921   4.239  14.090 -0.3195 -1.5780  0.1695
12284TIP3   OH258266   4.433   4.702  17.271 -0.1959 -0.0001 -0.9530
12284TIP3    H158267   4.413   4.795  17.274  0.7762  0.1923  0.6918
12284TIP3    H258268   4.481   4.690  17.189  1.2240  1.2830 -0.3387
12285TIP3   OH258269   3.488   6.659  14.653  0.1747  0.0689 -1.2256
12285TIP3    H158270   3.499   6.749  14.683 -0.0002  0.2942 -1.8304
12285TIP3    H258271   3.577   6.623  14.650  0.1140 -0.3603  0.7479
12286TIP3   OH258272   3.509   4.928  15.801 -0.3366 -0.3025 -0.2350
12286TIP3    H158273   3.543   4.915  15.889 -1.4707 -0.4955  0.1927
12286TIP3    H258274   3.479   4.841  15.774  0.8519 -0.4475 -1.2030
12287TIP3   OH258275   5.037   0.263  10.585  0.0928  0.5828 -0.4661
12287TIP3    H158276   5.041   0.328  10.514  0.9403  1.7289  0.5882
12287TIP3    H258277   4.944   0.261  10.610  0.1453  1.8912 -0.0853
12288TIP3   OH258278   6.681   0.970  12.276  0.3396  0.2573 -0.0973
12288TIP3    H158279   6.649   0.984  12.366  2.9305  0.0292  0.9293
12288TIP3    H258280   6.612   0.916  12.236 -1.5664  1.5250  1.2608
12289TIP3   OH258281   3.790   4.533   3.811  0.1886  0.3526 -0.7507
12289TIP3    H158282   3.771   4.442   3.835 -1.8403  0.3661 -2.0978
12289TIP3    H258283   3.827   4.527   3.723 -0.0364  0.8380 -0.8797
12290TIP3   OH258284   1.347   1.594   0.342 -0.0181  0.3397 -0.0490
12290TIP3    H158285   1.332   1.683   0.375  0.3866  0.2325  0.4290
12290TIP3    H258286   1.424   1.563   0.390  1.2889  0.5883 -1.8518
12291TIP3   OH258287   1.423   6.052   3.928  0.2132 -0.2870  0.1806
12291TIP3    H158288   1.465   6.072   4.012 -1.3179  1.9754  0.4946
12291TIP3    H258289   1.378   5.969   3.942  0.6456 -0.3441  1.3223
12292TIP3   OH258290   1.951   2.383  12.350 -0.6564 -0.2130 -0.3082
12292TIP3    H158291   1.981   2.438  12.423  0.0731 -0.5914 -0.3068
12292TIP3    H258292   1.952   2.294  12.386  0.8900 -0.5569 -1.1082
12293TIP3   OH258293   4.627   4.609   4.562  0.3457 -0.0403 -0.0667
12293TIP3    H158294   4.563   4.543   4.587  0.6613 -0.3017  0.0516
12293TIP3    H258295   4.632   4.603   4.466  1.9606 -1.6915  0.0633
12294TIP3   OH258296   3.627   1.801   1.922  0.2853  0.0219 -0.0581
12294TIP3    H158297   3.678   1.740   1.870  0.7988 -0.3412  0.8624
12294TIP3    H258298   3.556   1.829   1.863  1.5397  0.5662 -1.3530
12295TIP3   OH258299   3.482   4.578  11.617 -0.4184 -0.3115  0.4228
12295TIP3    H158300   3.398   4.625  11.610 -0.2924  0.2969  2.5071
12295TIP3    H258301   3.548   4.643  11.593 -0.2309  0.7654  3.4637
12296TIP3   OH258302   2.112   2.586  16.129  0.0478 -0.1132  0.2073
12296TIP3    H158303   2.184   2.600  16.068 -0.1950 -0.0887 -0.0750
12296TIP3    H258304   2.145   2.619  16.213  0.6042 -0.7188  0.2273
12297TIP3   OH258305   1.792   6.711   3.894  0.2542 -0.3129  0.1268
12297TIP3    H158306   1.872   6.687   3.941 -0.4295  0.0755  1.5367
12297TIP3    H258307   1.753   6.628   3.868  0.2809 -0.5622  0.8814
12298TIP3   OH258308   2.153   2.038   2.736  1.0329  0.4930  0.2302
12298TIP3    H158309   2.073   2.063   2.782  0.5477 -1.2016  0.3812
12298TIP3    H258310   2.149   2.086   2.653 -0.6938 -0.3375 -0.2201
12299TIP3   OH258311   3.244   6.009   1.065  0.0670 -0.0328  0.5292
12299TIP3    H158312   3.188   6.051   1.000 -1.0350  1.7741  2.5299
12299TIP3    H258313   3.229   5.915   1.052 -2.1566  0.3597 -0.0875
12300TIP3   OH258314   6.329   5.511  14.802 -0.3374  0.2972 -0.4066
12300TIP3    H158315   6.410   5.527  14.851 -0.4072 -0.0693 -0.1659
12300TIP3    H258316   6.314   5.417  14.812 -1.0436  0.4447 -0.0644
12301TIP3   OH258317   5.951   1.735   6.466  0.4064 -0.1464 -0.3950
12301TIP3    H158318   5.958   1.647   6.501  0.5933 -0.4748 -1.2208
12301TIP3    H258319   6.041   1.764   6.456  0.3373  0.8260  1.4956
12302TIP3   OH258320   0.730   2.332   0.161 -0.2449  0.4432  0.1026
12302TIP3    H158321   0.824   2.349   0.162 -0.2446  0.9618 -2.4190
12302TIP3    H258322   0.723   2.239   0.138 -0.3721  0.2126  1.0236
12303TIP3   OH258323   0.877   4.001  10.666  0.1418 -0.0255  0.0434
12303TIP3    H158324   0.785   4.012  10.691  0.0860  1.3782 -0.6670
12303TIP3    H258325   0.915   4.088  10.674  1.3665 -0.5469  0.1042
12304TIP3   OH258326   0.272   0.262   1.530  0.2987  0.1265  0.5196
12304TIP3    H158327   0.343   0.202   1.552  0.6758  0.7214  0.9312
12304TIP3    H258328   0.227   0.219   1.457  0.2857 -0.8747  1.0982
12305TIP3   OH258329   6.449   2.188  16.247  0.0878  0.5787 -0.4870
12305TIP3    H158330   6.436   2.114  16.188  1.6783  0.5239 -0.8044
12305TIP3    H258331   6.392   2.169  16.322 -2.3337  0.8799 -2.1131
12306TIP3   OH258332   4.949   2.177   1.944  0.2594  0.5242  0.0259
12306TIP3    H158333   4.988   2.257   1.909  0.4882  0.6030  0.4427
12306TIP3    H258334   4.974   2.177   2.037  1.3713 -0.6915 -0.2471
12307TIP3   OH258335   0.625   3.068   0.453 -0.0917 -0.0050 -0.8051
12307TIP3    H158336   0.537   3.039   0.431 -0.2236  0.0700 -0.3711
12307TIP3    H258337   0.634   3.051   0.547  0.3004  0.1306 -0.8151
12308TIP3   OH258338   0.906   5.060  11.655 -0.1515 -0.6499  0.1874
12308TIP3    H158339   0.973   5.109  11.608  0.3248  0.3610  1.8377
12308TIP3    H258340   0.846   5.127  11.687 -1.2987 -1.4451 -0.2330
12309TIP3   OH258341   6.069   0.721   2.237  0.2363  0.0496 -0.1504
12309TIP3    H158342   6.144   0.688   2.188  1.5376 -0.2580  1.9166
12309TIP3    H258343   6.030   0.643   2.277  0.7573  0.5081  1.3227
12310TIP3   OH258344   1.513   5.921   3.388  0.4723  0.3517 -0.7103
12310TIP3    H158345   1.582   5.893   3.327  0.3601 -1.2026 -0.1658
12310TIP3    H258346   1.432   5.909   3.339  0.2339 -2.5494  0.2123
12311TIP3   OH258347   1.434   1.301  15.320 -0.0012 -0.9063  0.9300
12311TIP3    H158348   1.375   1.375  15.332  0.1009 -0.5510 -0.5615
12311TIP3    H258349   1.511   1.338  15.276  0.6832 -1.6369  1.4728
12312TIP3   OH258350   6.164   0.887   4.084 -0.1870 -0.8948 -0.3511
12312TIP3    H158351   6.115   0.934   4.016 -1.8088 -1.9624  0.0409
12312TIP3    H258352   6.249   0.869   4.043  0.4947  2.1837 -0.5751
12313TIP3   OH258353   6.549   3.919  13.803 -0.1874  0.3092 -0.1593
12313TIP3    H158354   6.639   3.931  13.833  0.1475 -1.6576 -0.2563
12313TIP3    H258355   6.547   3.961  13.717  1.3087 -1.5495 -1.1797
12314TIP3   OH258356   0.921   4.785  11.747 -0.0962 -0.1117 -0.2419
12314TIP3    H158357   0.834   4.756  11.719  0.1379  0.3234 -1.4611
12314TIP3    H258358   0.924   4.877  11.723  0.1959  0.2422  1.0882
12315TIP3   OH258359   3.134   2.395   3.831 -0.1279  0.1410 -0.6906
12315TIP3    H158360   3.099   2.325   3.776  1.6608 -1.5242  0.1591
12315TIP3    H258361   3.226   2.371   3.845  0.8286  3.1632 -1.0830
12316TIP3   OH258362   4.159   6.188   0.779  0.2531  0.3329  0.0274
12316TIP3    H158363   4.122   6.181   0.691  1.7887  0.1671 -0.6326
12316TIP3    H258364   4.146   6.102   0.818  2.5589 -0.7078 -1.3068
12317TIP3   OH258365   6.523   2.201  11.007  0.3493 -0.8423 -0.0247
12317TIP3    H158366   6.449   2.224  10.952 -0.0112 -1.0807  0.3589
12317TIP3    H258367   6.484   2.168  11.088  0.8746 -0.0515  0.5593
12318TIP3   OH258368   5.064   2.180  12.371  0.2910 -0.4143 -0.0151
12318TIP3    H158369   5.135   2.152  12.314  0.3297 -0.4343  0.0426
12318TIP3    H258370   4.989   2.190  12.313  0.5104  0.2693 -0.1904
12319TIP3   OH258371   3.803   4.321   3.386 -0.0682 -0.4534 -0.3940
12319TIP3    H158372   3.828   4.402   3.341  1.0317 -1.5934 -1.9099
12319TIP3    H258373   3.874   4.304   3.447  0.2149 -0.8128 -0.8185
12320TIP3   OH258374   1.541   0.795  13.363 -0.8244  0.4966  0.2956
12320TIP3    H158375   1.528   0.745  13.444 -0.6854  0.8233  0.5203
12320TIP3    H258376   1.630   0.774  13.336 -1.7217 -1.7251 -1.2360
12321TIP3   OH258377   0.120   5.819  15.822 -0.8168  0.4536 -0.2987
12321TIP3    H158378   0.207   5.846  15.853 -1.8079  0.7203  2.5338
12321TIP3    H258379   0.061   5.886  15.856 -2.5121 -1.4898  0.7324
12322TIP3   OH258380   5.265   3.805  13.388  0.7462  0.1602  0.5938
12322TIP3    H158381   5.316   3.775  13.312 -1.7438 -0.0004 -1.1494
12322TIP3    H258382   5.268   3.732  13.449  0.2238 -1.0379 -0.7532
12323TIP3   OH258383   1.736   6.030  16.201 -0.2776  0.1243 -0.2642
12323TIP3    H158384   1.814   6.034  16.144 -0.4370 -0.3350 -0.5190
12323TIP3    H258385   1.743   6.108  16.256  0.8135 -0.3550  0.3020
12324TIP3   OH258386   2.981   3.212   5.310 -0.3747  0.7692  0.4335
12324TIP3    H158387   3.012   3.161   5.385 -0.7672  0.8390  0.6472
12324TIP3    H258388   2.911   3.159   5.272  0.8529 -0.0019 -0.8367
12325TIP3   OH258389   1.584   4.082   4.133 -0.4415 -0.2912  0.1858
12325TIP3    H158390   1.489   4.086   4.135 -0.4090  1.8493  0.0352
12325TIP3    H258391   1.611   4.118   4.218  0.2394 -0.8378  0.2085
12326TIP3   OH258392   5.907   3.629   6.850 -0.0311 -0.2716 -0.0451
12326TIP3    H158393   5.987   3.612   6.899 -0.2252 -0.5096  0.1966
12326TIP3    H258394   5.930   3.613   6.758  0.5544  0.9781 -0.1265
12327TIP3   OH258395   6.335   2.363   4.120  0.3323  0.0813  0.2214
12327TIP3    H158396   6.390   2.287   4.139  0.8868  0.6491  0.9822
12327TIP3    H258397   6.320   2.403   4.206 -1.8823 -0.4470  0.1327
12328TIP3   OH258398   1.701   3.838  12.081  0.1267  0.0144 -0.0091
12328TIP3    H158399   1.681   3.811  12.171 -0.5862  0.5398 -0.0015
12328TIP3    H258400   1.785   3.884  12.088 -0.0287  0.2364  0.4226
12329TIP3   OH258401   1.513   3.004  16.773  0.3170 -0.1282  0.0698
12329TIP3    H158402   1.550   3.024  16.687 -0.2491  2.1959  0.2971
12329TIP3    H258403   1.443   3.068  16.785  0.3323 -0.4296  2.2209
12330TIP3   OH258404   1.943   4.364  17.186  0.1122  0.1148 -0.2038
12330TIP3    H158405   1.879   4.420  17.230  0.0239 -0.0560 -0.1148
12330TIP3    H258406   1.934   4.279  17.229  2.3937  0.7637  1.8269
12331TIP3   OH258407   1.687   6.119  13.067  0.4068  0.5272  0.2555
12331TIP3    H158408   1.678   6.025  13.082 -0.6680  0.7564  1.1834
12331TIP3    H258409   1.708   6.127  12.973  1.2851 -0.6545  0.3346
12332TIP3   OH258410   0.165   4.734  15.351 -0.5157  0.1980  0.5107
12332TIP3    H158411   0.099   4.802  15.343  0.9228  1.9166  2.2097
12332TIP3    H258412   0.143   4.687  15.431 -0.8496 -0.6483 -0.0531
12333TIP3   OH258413   1.715   6.350   4.388  0.1656  0.4167  0.1231
12333TIP3    H158414   1.692   6.422   4.329 -0.2139  0.1615 -0.0448
12333TIP3    H258415   1.667   6.370   4.469 -1.4701 -0.6152 -0.5416
12334TIP3   OH258416   1.314   1.761  11.328 -0.1218 -0.6001 -0.5588
12334TIP3    H158417   1.402   1.726  11.314  0.6970  1.8357 -2.0431
12334TIP3    H258418   1.300   1.822  11.255 -1.7723  1.4658  1.3447
12335TIP3   OH258419   3.209   4.570  12.224 -0.0557 -0.4883  0.1840
12335TIP3    H158420   3.269   4.629  12.178  2.2778 -4.4260 -2.4488
12335TIP3    H258421   3.123   4.608  12.208  1.2571  2.4087 -0.8729
12336TIP3   OH258422   0.714   5.950   1.997 -0.3226  0.1218  0.1943
12336TIP3    H158423   0.690   5.934   1.906 -0.7678 -0.1797  0.3655
12336TIP3    H258424   0.698   5.867   2.042 -1.2569  0.6083  0.7921
12337TIP3   OH258425   5.282   0.553  14.531 -0.0992  0.1897  0.5053
12337TIP3    H158426   5.314   0.545  14.441  1.5259  1.5151  0.9239
12337TIP3    H258427   5.266   0.646  14.543 -1.9076 -0.1675  1.0967
12338TIP3   OH258428   6.551   1.354   4.719 -0.3627 -0.2205  0.4819
12338TIP3    H158429   6.567   1.411   4.643  2.0268  0.4980  1.4463
12338TIP3    H258430   6.599   1.274   4.699  0.6970  0.1616  1.4166
12339TIP3   OH258431   2.518   4.752   5.837  0.1958 -0.1236  0.3956
12339TIP3    H158432   2.478   4.696   5.770 -4.3963  0.7100  2.0679
12339TIP3    H258433   2.535   4.834   5.792  1.3526 -0.9133 -0.6804
12340TIP3   OH258434   5.173   3.511   3.063 -0.0190  0.0702 -0.1208
12340TIP3    H158435   5.263   3.545   3.056 -0.3590  1.0354  0.0763
12340TIP3    H258436   5.118   3.581   3.029 -0.6046 -1.2269 -2.0144
12341TIP3   OH258437   3.285   6.652  15.517 -0.2583  0.2231 -0.5081
12341TIP3    H158438   3.270   6.659  15.423 -0.9357  1.2284 -0.3302
12341TIP3    H258439   3.364   6.704  15.533 -0.1182  0.0170 -0.5160
12342TIP3   OH258440   4.495   2.427  11.398  0.1335  0.1268 -0.2641
12342TIP3    H158441   4.462   2.467  11.317  1.6250 -0.9688 -1.4867
12342TIP3    H258442   4.587   2.455  11.402 -0.2559  1.2895  1.8331
12343TIP3   OH258443   2.423   4.007  11.495 -0.2882 -0.1364 -0.2570
12343TIP3    H158444   2.383   3.945  11.556 -1.7193 -0.5565 -1.5681
12343TIP3    H258445   2.459   3.952  11.425  0.8132  0.3691 -0.1072
12344TIP3   OH258446   5.965   2.333   5.325 -0.0652 -0.6997 -0.1153
12344TIP3    H158447   5.908   2.257   5.311 -1.6937  0.0947  1.6442
12344TIP3    H258448   5.944   2.391   5.252  0.2797 -1.4170 -0.7975
12345TIP3   OH258449   4.194   6.147   1.465  0.3841 -0.0726  0.4377
12345TIP3    H158450   4.103   6.131   1.437  0.3209 -0.4245  0.8305
12345TIP3    H258451   4.208   6.085   1.537  0.5616  0.7625  1.1361
12346TIP3   OH258452   4.285   4.935  14.824 -0.0150  0.0142 -0.1093
12346TIP3    H158453   4.329   4.923  14.740  1.7252  0.2732  0.7300
12346TIP3    H258454   4.300   5.026  14.846 -0.1799 -0.1398  0.6515
12347TIP3   OH258455   5.724   3.957  13.109 -0.3839  0.0865  0.1401
12347TIP3    H158456   5.720   4.052  13.099 -2.4608  0.1608  1.2064
12347TIP3    H258457   5.817   3.939  13.127  0.1638  1.8013 -0.7494
12348TIP3   OH258458   6.751   2.759   0.572 -0.5255 -0.1352  0.2396
12348TIP3    H158459   6.821   2.705   0.610 -1.0711  0.1732  1.7191
12348TIP3    H258460   6.688   2.696   0.537  0.6333 -0.4215 -1.4608
12349TIP3   OH258461   6.415   4.934  17.011  0.4428  0.0450 -0.2623
12349TIP3    H158462   6.321   4.944  17.002  0.2677  1.3266  2.2406
12349TIP3    H258463   6.432   4.841  16.994 -1.4193 -0.4481  0.4395
12350TIP3   OH258464   1.191   2.338   3.948 -0.3779 -0.4842  0.1201
12350TIP3    H158465   1.229   2.378   4.027  0.1708  0.4351 -0.5894
12350TIP3    H258466   1.249   2.365   3.877  0.4234 -3.1441 -0.3359
12351TIP3   OH258467   4.277   3.822   1.969 -0.0510  0.0587 -0.7649
12351TIP3    H158468   4.295   3.896   2.028 -1.3265 -0.4013  0.2665
12351TIP3    H258469   4.330   3.839   1.892 -0.5397  2.2393 -0.6891
12352TIP3   OH258470   0.893   3.238  15.055  0.1977  0.1792  0.0668
12352TIP3    H158471   0.950   3.198  15.120  0.2248 -0.2774 -0.2325
12352TIP3    H258472   0.804   3.215  15.082  0.2214 -0.2188 -0.1941
12353TIP3   OH258473   2.640   5.960  11.820  0.4209 -0.2379 -0.4140
12353TIP3    H158474   2.615   6.052  11.815  1.0065 -0.0073  0.5482
12353TIP3    H258475   2.628   5.926  11.732 -2.2057  0.1305 -0.2866
12354TIP3   OH258476   2.177   4.132   5.949  0.1950  1.4080  0.1127
12354TIP3    H158477   2.098   4.137   6.003  0.5981 -0.8403  1.0144
12354TIP3    H258478   2.170   4.048   5.904  0.7559  2.4211 -2.0042
12355TIP3   OH258479   1.506   4.936   6.114 -0.3291 -0.3181 -0.0339
12355TIP3    H158480   1.482   5.029   6.116 -2.2326 -0.7581  2.0491
12355TIP3    H258481   1.468   4.902   6.033  0.8527  0.7930 -1.0888
12356TIP3   OH258482   3.040   3.069   1.791 -0.4858 -0.3186 -0.1791
12356TIP3    H158483   2.948   3.063   1.766 -0.3083  2.7239 -1.9527
12356TIP3    H258484   3.087   3.029   1.718 -0.3098  0.3937 -0.4573
12357TIP3   OH258485   6.622   3.565   2.978  0.0576  0.0967 -0.3386
12357TIP3    H158486   6.619   3.599   2.889 -0.5069 -1.7232 -1.0565
12357TIP3    H258487   6.588   3.476   2.972  3.8959 -1.7122  0.9312
12358TIP3   OH258488   3.469   5.356   4.858  0.3390 -0.3937 -0.6340
12358TIP3    H158489   3.443   5.266   4.835  2.0830 -1.1857  0.2970
12358TIP3    H258490   3.442   5.366   4.949 -0.1994  0.1838 -0.8528
12359TIP3   OH258491   4.266   5.777   1.008  0.0181  0.0342  0.4633
12359TIP3    H158492   4.294   5.717   0.939  0.1661  0.0038  0.5500
12359TIP3    H258493   4.245   5.720   1.082  1.8796  0.1804  1.1628
12360TIP3   OH258494   2.247   5.562   5.207  0.4877 -0.1695 -0.2730
12360TIP3    H158495   2.211   5.542   5.293 -2.0977  1.4959 -0.8542
12360TIP3    H258496   2.224   5.486   5.153 -0.8560  0.1715 -0.2297
12361TIP3   OH258497   0.526   4.114  14.783  0.4664  1.0112 -1.0095
12361TIP3    H158498   0.518   4.025  14.749  0.1753  0.7762 -0.3569
12361TIP3    H258499   0.450   4.160  14.747 -0.3858  0.5007  0.0843
12362TIP3   OH258500   6.486   1.851   2.544 -0.4540  0.4462 -0.4118
12362TIP3    H158501   6.504   1.766   2.584 -1.2619  0.1011 -0.7684
12362TIP3    H258502   6.417   1.889   2.597 -0.9140  0.3672 -0.9442
12363TIP3   OH258503   5.306   5.128   0.837  0.0475  0.3568 -0.2838
12363TIP3    H158504   5.300   5.033   0.837 -0.0568  0.3291  1.3926
12363TIP3    H258505   5.374   5.148   0.902 -0.6018  1.4351  0.1012
12364TIP3   OH258506   2.321   1.399   4.959 -0.0975  0.1247  0.1136
12364TIP3    H158507   2.376   1.348   4.901 -1.0548  0.9811 -1.6151
12364TIP3    H258508   2.369   1.481   4.973 -0.0230  0.0601  0.2321
12365TIP3   OH258509   3.561   1.940  13.171  0.2705 -0.3609 -0.3612
12365TIP3    H158510   3.526   1.868  13.224 -1.8808  0.6031 -0.3458
12365TIP3    H258511   3.630   1.900  13.119  1.0382 -1.8021  1.6240
12366TIP3   OH258512   2.003   6.079   2.562  0.5303 -0.5774  0.2563
12366TIP3    H158513   2.005   6.097   2.656 -1.5756 -0.4684  0.3324
12366TIP3    H258514   1.919   6.037   2.548  1.4380 -1.9366 -1.3861
12367TIP3   OH258515   1.961   1.243  15.695  0.0911  0.2257  0.2394
12367TIP3    H158516   1.897   1.277  15.757 -0.9835 -1.1792 -0.0578
12367TIP3    H258517   2.041   1.233  15.746 -0.8216 -1.0488  1.4555
12368TIP3   OH258518   3.721   4.018  12.084  0.7094 -0.3458 -0.0856
12368TIP3    H158519   3.684   3.965  12.013  0.7615 -0.6935  0.1465
12368TIP3    H258520   3.779   3.958  12.131  1.4669  0.1612 -0.3625
12369TIP3   OH258521   2.727   3.562  11.923 -0.4951  0.0781 -0.0527
12369TIP3    H158522   2.756   3.529  11.838  0.9374 -2.1958  1.2071
12369TIP3    H258523   2.633   3.547  11.923 -0.4336 -0.4416 -1.0242
12370TIP3   OH258524   2.343   6.228  14.636  0.0177 -0.2847  0.0280
12370TIP3    H158525   2.265   6.191  14.596 -0.4033 -1.5359  1.8676
12370TIP3    H258526   2.403   6.154  14.645  0.9150  0.3955 -0.2137
12371TIP3   OH258527   0.442   3.858  12.942  0.2836 -0.2700  0.2666
12371TIP3    H158528   0.489   3.938  12.918  1.6692 -1.2664 -0.4897
12371TIP3    H258529   0.417   3.819  12.858 -0.8058 -0.4138  0.6345
12372TIP3   OH258530   1.299   5.410   5.966  0.4198  0.4039  0.0024
12372TIP3    H158531   1.212   5.425   6.001 -0.2506 -0.4466 -1.2533
12372TIP3    H258532   1.330   5.331   6.009  0.7267  0.8990  0.7064
12373TIP3   OH258533   4.428   6.614  11.824  0.0433 -0.1678  0.0088
12373TIP3    H158534   4.442   6.696  11.872  0.3164  1.1520 -2.1594
12373TIP3    H258535   4.514   6.591  11.790 -0.4229  0.0266 -1.3953
12374TIP3   OH258536   0.671   2.473  16.464  1.0658 -0.0060 -0.7696
12374TIP3    H158537   0.646   2.451  16.374  0.3240  1.4099 -0.9336
12374TIP3    H258538   0.591   2.508  16.503  1.7357  0.6940  0.0045
12375TIP3   OH258539   3.367   2.787   4.358 -0.0435  0.5324  0.3558
12375TIP3    H158540   3.366   2.858   4.294  0.3793  0.8480  0.6900
12375TIP3    H258541   3.275   2.775   4.381 -0.1029  1.1453  0.4762
12376TIP3   OH258542   5.837   5.410  11.755  0.4078 -0.3526  0.1783
12376TIP3    H158543   5.763   5.352  11.771  0.9195 -1.5510 -1.5402
12376TIP3    H258544   5.797   5.487  11.713  0.1698 -1.3739 -1.5826
12377TIP3   OH258545   1.719   1.145   3.363 -0.2796  0.0471  0.3750
12377TIP3    H158546   1.792   1.158   3.302 -0.7917  0.1960 -0.2171
12377TIP3    H258547   1.741   1.198   3.439  0.0894  0.3308  0.0746
12378TIP3   OH258548   3.312   3.212   5.701 -0.0339 -0.2191 -0.3335
12378TIP3    H158549   3.334   3.158   5.776 -0.1904 -1.4148 -1.1258
12378TIP3    H258550   3.396   3.244   5.669  0.0812 -0.2085 -0.0211
12379TIP3   OH258551   2.148   6.047  16.386  0.2399 -0.1944  0.2408
12379TIP3    H158552   2.170   6.087  16.471  0.1032  0.7770 -0.1667
12379TIP3    H258553   2.085   6.107  16.347 -0.9095 -1.4457  0.1189
12380TIP3   OH258554   0.089   0.408   0.789 -0.2522  0.4942  0.4999
12380TIP3    H158555   0.110   0.427   0.697 -1.8418  1.1168  0.2290
12380TIP3    H258556   0.073   0.314   0.790 -1.3961  0.6467 -0.1630
12381TIP3   OH258557   3.490   1.278   1.812 -0.4296 -0.1316 -0.4479
12381TIP3    H158558   3.529   1.194   1.838 -0.4486 -0.0767 -0.2448
12381TIP3    H258559   3.396   1.264   1.821 -0.3857  0.3957  1.0668
12382TIP3   OH258560   1.404   1.567   5.469 -0.6368 -0.8704  0.3996
12382TIP3    H158561   1.435   1.624   5.399  1.7019  0.3311  2.2619
12382TIP3    H258562   1.438   1.481   5.446  0.7639 -0.3401  0.4037
12383TIP3   OH258563   4.092   3.062   3.164  1.1488 -0.6922  0.1121
12383TIP3    H158564   4.109   3.030   3.075 -0.1175  0.0154 -0.4118
12383TIP3    H258565   4.074   3.156   3.153 -0.9950 -0.9649  0.8133
12384TIP3   OH258566   0.867   1.969   0.126  0.1631  0.0732  0.3802
12384TIP3    H158567   0.798   2.024   0.089 -1.0446 -0.2948  1.9652
12384TIP3    H258568   0.878   1.898   0.064 -0.6836  0.3018 -0.0408
12385TIP3   OH258569   1.900   3.736   0.819 -0.1334  0.5068  0.1386
12385TIP3    H158570   1.918   3.829   0.808  0.7765  0.2070 -1.1422
12385TIP3    H258571   1.968   3.692   0.768 -2.3168 -0.7845 -1.8599
12386TIP3   OH258572   0.517   2.717   6.318 -0.1438 -0.0549 -0.7269
12386TIP3    H158573   0.536   2.729   6.410  0.6229 -1.1386 -0.7254
12386TIP3    H258574   0.432   2.671   6.317  0.7067 -1.7056 -0.4715
12387TIP3   OH258575   3.154   2.045   3.305  0.1420  0.4006 -0.3143
12387TIP3    H158576   3.177   2.134   3.329  1.0582  0.0601  0.1020
12387TIP3    H258577   3.058   2.045   3.301  0.0881  1.1556  0.6796
12388TIP3   OH258578   3.152   4.667   2.803  0.0124  0.6405 -0.4675
12388TIP3    H158579   3.133   4.734   2.737  0.7469  2.4309  1.0346
12388TIP3    H258580   3.203   4.713   2.869  0.4633 -1.4209  0.6986
12389TIP3   OH258581   4.327   3.524   2.725  0.6578 -0.0912 -0.1412
12389TIP3    H158582   4.356   3.462   2.659 -1.2393 -2.1114  0.8128
12389TIP3    H258583   4.285   3.594   2.675  1.5055 -0.2836 -1.1611
12390TIP3   OH258584   0.063   4.821   5.953  0.3364  0.8642 -0.1856
12390TIP3    H158585   0.012   4.747   5.987  0.4553  0.3962 -1.0166
12390TIP3    H258586   0.019   4.845   5.872  0.9640  0.9836 -0.4925
12391TIP3   OH258587   2.295   2.197   0.840  0.4890 -0.6035 -0.0842
12391TIP3    H158588   2.353   2.136   0.794 -0.2618  1.0840 -3.6391
12391TIP3    H258589   2.207   2.165   0.822  0.1499  0.5386 -0.5702
12392TIP3   OH258590   2.588   3.287  16.544  0.3736 -0.5595  0.5644
12392TIP3    H158591   2.566   3.362  16.599 -0.0699 -0.0283 -0.3109
12392TIP3    H258592   2.604   3.215  16.605  0.0886  0.0634  1.3821
12393TIP3   OH258593   3.375   3.401  11.558  0.2215 -0.3093 -0.0855
12393TIP3    H158594   3.299   3.379  11.611  0.1159  0.6656  0.1854
12393TIP3    H258595   3.430   3.322  11.562 -0.8892 -1.1425 -0.5371
12394TIP3   OH258596   2.867   6.665   2.849  0.4528 -0.4266 -0.6661
12394TIP3    H158597   2.804   6.706   2.908  0.4304 -0.3167 -0.7656
12394TIP3    H258598   2.819   6.593   2.808  0.5323 -0.6412 -0.3893
12395TIP3   OH258599   1.982   4.059  12.960 -0.2079  0.1359 -0.2586
12395TIP3    H158600   1.903   4.017  12.994  0.4523 -2.9666 -2.1301
12395TIP3    H258601   1.960   4.080  12.869  1.5574 -2.5056 -1.4110
12396TIP3   OH258602   2.893   3.659  16.928 -0.3127  0.3730  0.2404
12396TIP3    H158603   2.885   3.734  16.986 -0.1995  0.4136  0.2046
12396TIP3    H258604   2.950   3.689  16.857  0.6327 -0.0881  0.7902
12397TIP3   OH258605   3.491   6.399   1.652  0.2726 -0.4583  0.0420
12397TIP3    H158606   3.559   6.419   1.716  0.3677 -0.6439  0.0002
12397TIP3    H258607   3.415   6.371   1.704 -0.4428  1.6354  0.1949
12398TIP3   OH258608   3.984   4.938  16.498 -0.0469 -0.0129 -0.3340
12398TIP3    H158609   3.967   4.947  16.592  0.5824  0.0936 -0.2294
12398TIP3    H258610   4.019   5.023  16.471 -1.4707  0.4040 -0.9440
12399TIP3   OH258611   4.782   2.484  12.336  0.4201 -0.4856  0.1875
12399TIP3    H158612   4.777   2.573  12.369  0.4465  0.1357 -1.4058
12399TIP3    H258613   4.764   2.429  12.412 -1.2487  0.9177  0.8616
12400TIP3   OH258614   3.576   3.073   0.085  0.0892  0.5485  0.2215
12400TIP3    H158615   3.613   3.156   0.114 -0.0643  0.5463  0.4180
12400TIP3    H258616   3.549   3.029   0.165  0.4703  0.1653  0.1445
12401TIP3   OH258617   5.842   6.561   1.423  0.0509 -0.5228 -0.3182
12401TIP3    H158618   5.792   6.641   1.408  0.0673 -0.6818 -1.2571
12401TIP3    H258619   5.909   6.587   1.487 -1.6086 -0.4754  1.5084
12402TIP3   OH258620   1.220   4.383  13.801  0.0525 -0.5269  0.0985
12402TIP3    H158621   1.147   4.394  13.740 -1.8411  1.4358  2.5252
12402TIP3    H258622   1.290   4.437  13.764 -1.0920  0.7147 -0.3443
12403TIP3   OH258623   4.374   1.000  14.084 -0.0148 -0.1874 -0.1099
12403TIP3    H158624   4.461   0.962  14.072 -0.6512 -1.2999 -1.6474
12403TIP3    H258625   4.316   0.945  14.031 -2.2121 -1.3801  3.1878
12404TIP3   OH258626   5.962   3.622  14.313 -0.1437 -0.0270 -0.3123
12404TIP3    H158627   5.973   3.629  14.408 -1.2574  1.8511 -0.2722
12404TIP3    H258628   5.944   3.711  14.285 -1.4166 -0.7984 -2.0821
12405TIP3   OH258629   6.381   4.442   0.938 -0.6577 -0.1781  0.1625
12405TIP3    H158630   6.383   4.430   0.843  1.1528 -1.7591  0.3294
12405TIP3    H258631   6.413   4.531   0.952  1.9009 -0.8817 -0.6779
12406TIP3   OH258632   1.247   0.951  14.808  0.1628 -0.3553  0.5437
12406TIP3    H158633   1.284   0.944  14.720  0.1457 -1.0344  0.5904
12406TIP3    H258634   1.265   1.041  14.834  1.2234 -0.4932  0.3199
12407TIP3   OH258635   3.911   1.215   5.243 -0.7905 -0.3932 -0.0323
12407TIP3    H158636   3.861   1.187   5.167  0.3333 -0.1753 -0.8671
12407TIP3    H258637   3.970   1.142   5.261 -0.2040  0.0516 -0.1285
12408TIP3   OH258638   3.239   0.706  17.321  0.0728  0.1834  0.3138
12408TIP3    H158639   3.312   0.699  17.383 -1.3634 -1.1247  1.9758
12408TIP3    H258640   3.197   0.620  17.325 -0.1577  0.0844 -2.4584
12409TIP3   OH258641   2.859   4.358  15.133  0.0840  0.7816 -0.2632
12409TIP3    H158642   2.948   4.332  15.157  0.6324  1.5543 -1.3701
12409TIP3    H258643   2.837   4.427  15.196 -0.1098 -0.0419  0.5976
12410TIP3   OH258644   5.661   6.353   0.734  0.3292  0.0200  0.3180
12410TIP3    H158645   5.626   6.441   0.741  0.1381 -0.0462  0.2026
12410TIP3    H258646   5.713   6.354   0.654 -1.3434 -0.5288 -0.8501
12411TIP3   OH258647   4.223   0.224   5.964  0.3974 -0.1791  0.2030
12411TIP3    H158648   4.144   0.259   5.922  0.5730 -0.4509 -0.3697
12411TIP3    H258649   4.205   0.230   6.058 -1.5498 -2.8976  0.1367
12412TIP3   OH258650   2.337   1.243   3.242 -0.3087  0.1673  0.4533
12412TIP3    H158651   2.311   1.334   3.234 -1.3723 -0.0610  1.1374
12412TIP3    H258652   2.302   1.201   3.163  1.7915  0.6681 -0.8247
12413TIP3   OH258653   1.129   4.554   1.489 -0.0946 -0.8057 -0.5777
12413TIP3    H158654   1.035   4.562   1.506 -0.3098 -0.3267 -1.8498
12413TIP3    H258655   1.144   4.461   1.477 -0.3772 -0.8975 -0.2285
12414TIP3   OH258656   5.213   2.450  13.978  0.5606  0.0690  0.0128
12414TIP3    H158657   5.213   2.514  13.907 -1.0498 -0.1443 -0.2153
12414TIP3    H258658   5.194   2.501  14.057  0.2861  0.0189 -0.0203
12415TIP3   OH258659   1.412   6.442   0.404 -0.0780  0.1507  0.6314
12415TIP3    H158660   1.319   6.421   0.403 -0.6467  2.3963  1.1157
12415TIP3    H258661   1.428   6.485   0.320  0.2027  0.9670  1.0972
12416TIP3   OH258662   1.898   0.781  14.163 -0.2319 -0.2172 -0.1452
12416TIP3    H158663   1.858   0.758  14.246  1.2069 -0.3819  0.5356
12416TIP3    H258664   1.891   0.877  14.158  3.3789  0.3637  2.2604
12417TIP3   OH258665   6.122   6.105  15.428  0.5477  0.2018  0.2466
12417TIP3    H158666   6.134   6.032  15.488 -3.2703  0.0125  1.0623
12417TIP3    H258667   6.179   6.174  15.461  0.2928 -0.6943  2.7069
12418TIP3   OH258668   2.589   0.678  16.051 -0.7886 -0.2211 -0.4893
12418TIP3    H158669   2.521   0.625  16.092 -0.8486 -1.8050 -2.4744
12418TIP3    H258670   2.550   0.707  15.968  0.1326  0.8924 -0.5589
12419TIP3   OH258671   0.129   4.455   4.862 -0.0146  0.1860  0.7115
12419TIP3    H158672   0.157   4.540   4.896  0.5122  1.0514 -1.6811
12419TIP3    H258673   0.034   4.465   4.850 -0.0167  0.2979  0.8136
12420TIP3   OH258674   0.980   2.400  11.782  0.3775 -0.6663  0.2291
12420TIP3    H158675   0.889   2.374  11.766  0.6027 -2.2168  1.2440
12420TIP3    H258676   1.024   2.319  11.806  1.5293  0.4090  2.0122
12421TIP3   OH258677   3.275   1.555   5.862  0.4153 -0.1885 -0.3559
12421TIP3    H158678   3.302   1.476   5.815 -2.0196 -1.2396 -0.1919
12421TIP3    H258679   3.213   1.598   5.803 -1.0411 -0.3776  0.9658
12422TIP3   OH258680   2.425   6.720  11.605  0.2793 -0.8595 -0.0645
12422TIP3    H158681   2.430   6.752  11.515  0.5050  0.0522  0.2627
12422TIP3    H258682   2.506   6.671  11.618  0.1881 -1.1044 -0.3903
12423TIP3   OH258683   2.560   2.829  16.132  0.2245 -0.3875  0.0295
12423TIP3    H158684   2.612   2.857  16.208  2.2892  0.7457 -1.6868
12423TIP3    H258685   2.520   2.910  16.099  1.0289 -0.4921 -1.2626
12424TIP3   OH258686   2.246   0.342   3.903  0.0017 -0.5638 -0.4443
12424TIP3    H158687   2.196   0.260   3.895  0.1517 -0.6541 -0.4552
12424TIP3    H258688   2.238   0.383   3.816 -3.1305  1.2184  0.5086
12425TIP3   OH258689   6.191   5.126   1.041 -0.2951 -0.3392  0.9378
12425TIP3    H158690   6.113   5.178   1.020 -0.8564 -1.3098  0.5362
12425TIP3    H258691   6.265   5.180   1.012 -0.7988  0.6672  1.4744
12426TIP3   OH258692   0.382   0.267   4.300  0.1611 -0.1016  0.1250
12426TIP3    H158693   0.431   0.199   4.254 -1.4779 -1.0105 -0.3596
12426TIP3    H258694   0.448   0.314   4.351  1.5585 -1.0746 -0.7187
12427TIP3   OH258695   3.340   0.647  15.828 -0.6244  0.2275 -0.5018
12427TIP3    H158696   3.435   0.655  15.829 -0.5182 -0.6921  1.7565
12427TIP3    H258697   3.323   0.559  15.860 -2.2629  0.3095 -1.0367
12428TIP3   OH258698   0.807   6.258  14.815  0.1867 -0.3271  0.2494
12428TIP3    H158699   0.783   6.223  14.901  2.1776 -2.0336  0.1792
12428TIP3    H258700   0.815   6.181  14.759  0.4489  0.6236 -1.0727
12429TIP3   OH258701   2.124   0.804   1.076  0.2405  0.2352  0.4616
12429TIP3    H158702   2.060   0.828   1.144  0.0548 -0.4824  0.5447
12429TIP3    H258703   2.098   0.857   1.000 -0.2662  0.1774  0.5879
12430TIP3   OH258704   0.254   3.775   5.581  0.5188 -0.1862  0.4196
12430TIP3    H158705   0.159   3.788   5.584  0.2912 -1.7762  0.6032
12430TIP3    H258706   0.290   3.856   5.617 -0.8610 -0.7588  3.3222
12431TIP3   OH258707   4.850   2.665  12.783  0.4646 -0.1535  0.0299
12431TIP3    H158708   4.757   2.687  12.781  0.4334 -0.3160 -0.8780
12431TIP3    H258709   4.852   2.573  12.810  0.1562 -0.9896 -2.5226
12432TIP3   OH258710   4.072   1.110   2.809  0.1768 -0.0115 -0.6868
12432TIP3    H158711   4.021   1.164   2.748  0.9444  0.2738 -1.0922
12432TIP3    H258712   4.020   1.030   2.820  0.3343 -0.3671 -2.2773
12433TIP3   OH258713   6.747   1.534   3.582  0.1658  0.5764 -0.2946
12433TIP3    H158714   6.679   1.505   3.520  0.7677  1.0359 -1.1901
12433TIP3    H258715   6.776   1.453   3.625 -1.5566  0.4672  0.7670
12434TIP3   OH258716   6.580   3.613  14.524  0.6899 -0.1118 -0.5186
12434TIP3    H158717   6.632   3.664  14.462 -0.2699 -0.2241 -1.4473
12434TIP3    H258718   6.570   3.528  14.482  0.4360 -0.3495  0.0171
12435TIP3   OH258719   1.479   1.554   4.356  0.3321  0.7254 -0.5768
12435TIP3    H158720   1.486   1.640   4.397  0.5508  0.7195 -0.6043
12435TIP3    H258721   1.387   1.530   4.368  1.2216 -1.4125  4.1725
12436TIP3   OH258722   6.092   5.626   2.537 -1.0106  0.2845 -0.2342
12436TIP3    H158723   6.047   5.662   2.460  0.6226  0.4383 -1.1677
12436TIP3    H258724   6.109   5.535   2.514 -0.1820  0.4295 -0.2395
12437TIP3   OH258725   2.065   1.353   0.429 -0.4052 -0.3375 -0.3784
12437TIP3    H158726   2.023   1.437   0.445 -0.7615 -0.5293 -0.2894
12437TIP3    H258727   2.157   1.374   0.414 -0.2877 -0.0179  0.6844
12438TIP3   OH258728   4.331   6.190  16.717 -0.0596 -0.7820 -0.3424
12438TIP3    H158729   4.252   6.241  16.734  0.6030 -0.2905  1.5711
12438TIP3    H258730   4.317   6.108  16.765  0.3628 -0.9081 -0.4324
12439TIP3   OH258731   3.493   1.031  13.861  0.3580 -0.3842 -0.5621
12439TIP3    H158732   3.548   0.971  13.911 -0.3473  0.7820  1.7836
12439TIP3    H258733   3.407   1.025  13.902  0.2482  2.1468 -0.2605
12440TIP3   OH258734   0.826   5.593   2.093  0.2110  0.1098 -0.5654
12440TIP3    H158735   0.897   5.654   2.074  1.2268 -0.2702  1.7144
12440TIP3    H258736   0.747   5.648   2.095  1.0407  1.3134  1.0115
12441TIP3   OH258737   3.371   5.729  15.706  0.2168  0.3340 -0.7870
12441TIP3    H158738   3.314   5.665  15.749 -0.1313  0.2650 -1.3355
12441TIP3    H258739   3.360   5.809  15.757 -0.5541  0.3846 -1.0131
12442TIP3   OH258740   6.609   0.928  12.711  0.5951 -0.2172  0.4587
12442TIP3    H158741   6.541   0.881  12.760  0.6285 -0.5693  0.1743
12442TIP3    H258742   6.648   0.987  12.775 -2.1423  2.4191 -0.0517
12443TIP3   OH258743   5.260   3.820  15.088  0.5854  0.7495  0.2642
12443TIP3    H158744   5.246   3.833  15.182  0.0038  2.1279  0.0108
12443TIP3    H258745   5.272   3.908  15.053  0.1664  0.3049 -1.0556
12444TIP3   OH258746   4.678   4.006   1.255 -0.0968  0.1754  0.3812
12444TIP3    H158747   4.747   4.025   1.192  1.1074 -1.4480  1.1119
12444TIP3    H258748   4.598   4.038   1.214  0.9266  1.0650 -1.0136
12445TIP3   OH258749   5.084   5.891  15.993 -0.2040 -0.3218 -0.0565
12445TIP3    H158750   5.143   5.956  15.954  0.8026 -0.8699  0.4883
12445TIP3    H258751   5.018   5.874  15.926 -0.2141  0.9100 -0.3785
12446TIP3   OH258752   3.775   5.822  16.656 -0.5040  0.0547  0.1665
12446TIP3    H158753   3.681   5.833  16.668 -0.5545  0.1215 -0.2887
12446TIP3    H258754   3.801   5.762  16.727 -0.6636  1.0532  1.0967
12447TIP3   OH258755   3.425   1.967  14.620 -0.7483 -0.0791 -0.8645
12447TIP3    H158756   3.346   1.969  14.675  0.8570 -0.2596  1.6134
12447TIP3    H258757   3.407   1.899  14.555 -3.1097  0.8056 -1.2591
12448TIP3   OH258758   4.099   0.370  14.554 -0.5357  0.3297 -0.5051
12448TIP3    H158759   4.186   0.376  14.594 -0.5799 -2.4319  0.2174
12448TIP3    H258760   4.050   0.443  14.593  1.2181  1.5457 -0.4318
12449TIP3   OH258761   4.366   1.576   0.768  0.2425 -0.4929  0.2852
12449TIP3    H158762   4.458   1.564   0.745 -0.2927 -1.2022 -1.6229
12449TIP3    H258763   4.362   1.557   0.862  2.0007 -0.5887  0.3678
12450TIP3   OH258764   0.741   3.609   3.543  0.2137  0.2029  0.2953
12450TIP3    H158765   0.682   3.649   3.607 -0.1178 -0.0571  0.1544
12450TIP3    H258766   0.683   3.572   3.477  0.5632  0.8522 -0.3932
12451TIP3   OH258767   5.093   2.724  14.868  0.0810 -0.2366  0.2005
12451TIP3    H158768   5.121   2.664  14.937 -1.5746 -0.1055  1.0249
12451TIP3    H258769   5.101   2.811  14.906  1.9183  0.0855 -0.7981
12452TIP3   OH258770   6.426   4.435   2.073  0.3250  0.0334 -0.3301
12452TIP3    H158771   6.476   4.508   2.037  1.2248 -0.3119  0.1920
12452TIP3    H258772   6.373   4.475   2.142 -1.0220  0.6023 -1.6428
12453TIP3   OH258773   6.585   1.653   3.290  0.1204  0.2054  0.1901
12453TIP3    H158774   6.635   1.604   3.225 -0.6914 -2.0596  1.1631
12453TIP3    H258775   6.502   1.673   3.247  0.7638  1.5041 -0.4873
12454TIP3   OH258776   6.166   0.479   5.900 -0.0696  0.0306 -0.2007
12454TIP3    H158777   6.251   0.456   5.863  0.0953  1.4425 -0.7534
12454TIP3    H258778   6.180   0.478   5.994  0.4753 -0.0466 -0.2786
12455TIP3   OH258779   2.666   3.082  17.040 -0.1372  0.5576 -0.2424
12455TIP3    H158780   2.609   3.122  17.106 -0.3172  0.7852 -0.5360
12455TIP3    H258781   2.715   3.015  17.089 -1.9465 -0.9182 -0.3393
12456TIP3   OH258782   4.457   1.509   2.805  0.7914 -0.4396  0.6746
12456TIP3    H158783   4.364   1.527   2.798 -0.0895 -4.4273 -0.5569
12456TIP3    H258784   4.494   1.544   2.724  0.0675 -0.1119  0.4800
12457TIP3   OH258785   2.426   5.913   3.536 -0.0903  0.2067  0.5575
12457TIP3    H158786   2.516   5.931   3.563  0.7390 -3.4215  0.7275
12457TIP3    H258787   2.434   5.878   3.447 -1.0159 -1.9562  1.2588
12458TIP3   OH258788   5.629   2.101  16.582  0.0493  0.1314 -0.2128
12458TIP3    H158789   5.686   2.178  16.583  0.9986 -0.5192 -1.1313
12458TIP3    H258790   5.541   2.135  16.571  0.5363  1.0567 -1.3975
12459TIP3   OH258791   4.362   1.991   2.902  0.0818 -0.4192 -0.1927
12459TIP3    H158792   4.308   1.919   2.933 -0.5999 -0.0372 -0.4684
12459TIP3    H258793   4.312   2.030   2.830 -0.0150  0.8951  0.5422
12460TIP3   OH258794   0.331   6.310  16.853  0.7839 -0.1352 -0.2537
12460TIP3    H158795   0.393   6.319  16.780  0.2079 -0.1605 -0.7596
12460TIP3    H258796   0.345   6.221  16.885  1.7530  0.2190  0.3407
12461TIP3   OH258797   5.978   5.406  17.283 -0.1355 -0.7824 -0.2163
12461TIP3    H158798   5.987   5.499  17.305  1.4410 -0.7233 -0.9439
12461TIP3    H258799   5.885   5.395  17.263 -0.1060  0.9981 -1.6157
12462TIP3   OH258800   0.218   2.588   3.477 -0.4239 -0.0742 -0.2678
12462TIP3    H158801   0.299   2.538   3.481 -0.3056  0.1069 -0.3686
12462TIP3    H258802   0.161   2.538   3.418 -0.4168 -0.2458 -0.1293
12463TIP3   OH258803   1.065   6.139   6.581  0.8997 -0.3239  0.0567
12463TIP3    H158804   1.132   6.204   6.563  0.2037  0.0045 -1.5809
12463TIP3    H258805   1.114   6.060   6.606  1.7799  0.5072  1.0627
12464TIP3   OH258806   5.348   6.017  13.971  0.0753 -0.0415 -0.4837
12464TIP3    H158807   5.381   6.001  13.883  1.0314 -0.0597 -0.1437
12464TIP3    H258808   5.308   6.104  13.967 -0.6873 -0.4154 -1.1390
12465TIP3   OH258809   3.282   3.061  17.009  0.5265 -0.3995  0.1987
12465TIP3    H158810   3.345   3.132  17.020  1.4396 -1.3438  1.2517
12465TIP3    H258811   3.333   2.981  17.023 -0.6317 -1.2444 -0.2450
12466TIP3   OH258812   1.201   5.331   0.882 -0.5048 -0.5569 -0.0590
12466TIP3    H158813   1.281   5.279   0.886 -0.4268 -0.3477  1.6616
12466TIP3    H258814   1.215   5.403   0.942 -1.5250  0.1764 -0.6518
12467TIP3   OH258815   0.181   2.351   2.753  0.2981 -0.1795 -0.6050
12467TIP3    H158816   0.198   2.444   2.744  0.7560 -0.4267 -2.7071
12467TIP3    H258817   0.251   2.308   2.704 -0.3963 -1.6045 -0.4056
12468TIP3   OH258818   1.141   3.438   6.762 -0.5929 -0.2149  0.1717
12468TIP3    H158819   1.147   3.497   6.687  0.9261  0.0882  0.4971
12468TIP3    H258820   1.209   3.469   6.822  0.3597 -2.3927  0.2996
12469TIP3   OH258821   5.412   1.389   2.838  0.0079 -0.0418 -0.3225
12469TIP3    H158822   5.337   1.414   2.784 -1.8275 -1.0056  1.6309
12469TIP3    H258823   5.445   1.308   2.798  0.1644  0.5084 -1.3249
12470TIP3   OH258824   6.527   2.564  11.661 -0.6708 -0.0736  0.8155
12470TIP3    H158825   6.547   2.583  11.753  0.0223 -0.1644  0.6913
12470TIP3    H258826   6.496   2.474  11.661  2.6694 -1.3899  0.5766
12471TIP3   OH258827   5.544   5.444   3.412 -0.3303 -0.3140 -0.1508
12471TIP3    H158828   5.502   5.409   3.490 -1.8299 -0.4657 -0.9737
12471TIP3    H258829   5.566   5.367   3.360  1.0844 -0.2368  0.3062
12472TIP3   OH258830   0.132   5.454  14.904  0.7433  0.3355 -0.2803
12472TIP3    H158831   0.162   5.444  14.995  2.2407  0.9972 -0.6744
12472TIP3    H258832   0.097   5.542  14.899  0.3235  0.1698 -0.2527
12473TIP3   OH258833   3.700   0.835  16.737  0.9383  0.0676  0.2637
12473TIP3    H158834   3.614   0.875  16.723  1.2535  0.4667 -0.6140
12473TIP3    H258835   3.762   0.904  16.713  1.5366  0.2700  2.2585
12474TIP3   OH258836   0.117   5.499  16.104  0.4680  0.2149 -0.0876
12474TIP3    H158837   0.180   5.477  16.172  2.4355 -0.8892 -2.1611
12474TIP3    H258838   0.061   5.422  16.097 -0.1928  0.6022  0.6993
12475TIP3   OH258839   5.845   2.265  16.573 -0.3316  0.3734  0.4555
12475TIP3    H158840   5.883   2.353  16.584  1.8608 -0.2973 -1.2325
12475TIP3    H258841   5.883   2.214  16.644  1.6372 -0.1581 -0.9103
12476TIP3   OH258842   1.182   5.930   4.237  0.1346  0.1048  0.5257
12476TIP3    H158843   1.111   5.988   4.264 -1.3740 -1.6124  0.3674
12476TIP3    H258844   1.183   5.936   4.141 -0.4110 -0.5684  0.4759
12477TIP3   OH258845   1.058   4.589   2.324 -0.0630 -0.6282  0.3484
12477TIP3    H158846   1.021   4.663   2.275  1.1249  0.1053  0.5235
12477TIP3    H258847   0.985   4.527   2.333 -1.0564  0.4806  0.1277
12478TIP3   OH258848   3.317   3.018   5.382 -0.2575 -0.5204  0.0681
12478TIP3    H158849   3.236   3.047   5.425 -0.0991  0.5277 -0.2904
12478TIP3    H258850   3.377   3.000   5.454 -0.6993 -0.9718  0.3294
12479TIP3   OH258851   2.645   2.627   4.518  0.4472 -0.0889 -0.1852
12479TIP3    H158852   2.638   2.659   4.428 -0.5929  0.8664  0.2074
12479TIP3    H258853   2.700   2.549   4.511  1.2783  0.5722 -1.4863
12480TIP3   OH258854   0.989   2.802   1.127  0.1447 -0.0936 -0.1634
12480TIP3    H158855   1.043   2.787   1.204  0.4298 -2.3568 -0.7427
12480TIP3    H258856   0.899   2.802   1.160  0.3449  1.7085  0.5116
12481TIP3   OH258857   3.261   1.265  11.723  0.1410  0.1347  0.1260
12481TIP3    H158858   3.192   1.230  11.666 -0.6361  0.9521  0.5405
12481TIP3    H258859   3.324   1.304  11.662 -0.9744  1.5290 -0.1836
12482TIP3   OH258860   3.938   1.198  13.904  0.1262 -0.4456  0.1991
12482TIP3    H158861   3.865   1.171  13.848  0.5699 -0.7682 -0.2397
12482TIP3    H258862   3.914   1.169  13.992 -0.4488 -0.1994  0.1247
12483TIP3   OH258863   0.994   0.502   1.087 -0.3621  0.0350 -0.1961
12483TIP3    H158864   0.974   0.592   1.113 -0.4818  0.3479 -1.3221
12483TIP3    H258865   0.920   0.451   1.119 -1.0374  0.5803 -0.8460
12484TIP3   OH258866   3.220   3.682  14.514  0.0343  0.6283  0.1641
12484TIP3    H158867   3.263   3.767  14.514 -0.8692  1.1227  1.5540
12484TIP3    H258868   3.251   3.639  14.434  0.2925  2.3548 -0.7000
12485TIP3   OH258869   2.392   5.194  12.068  0.4178 -0.2336  0.1388
12485TIP3    H158870   2.366   5.172  12.157  0.1916  0.4549  0.2495
12485TIP3    H258871   2.365   5.118  12.015 -2.1691  0.5669  0.1764
12486TIP3   OH258872   5.629   3.508  16.408 -0.4428 -0.4390  0.0454
12486TIP3    H158873   5.681   3.431  16.384  0.8123  0.5725 -0.6130
12486TIP3    H258874   5.618   3.501  16.503  1.9255 -0.0959  0.3931
12487TIP3   OH258875   4.178   4.264  12.835  0.1464 -0.6513 -0.2353
12487TIP3    H158876   4.096   4.312  12.842  0.3035 -0.1509 -1.5576
12487TIP3    H258877   4.153   4.178  12.800  0.1913 -0.4810 -0.6865
12488TIP3   OH258878   4.176   3.126  12.304  0.0779  0.2263 -0.5108
12488TIP3    H158879   4.140   3.099  12.220 -0.5833  2.6103 -1.0938
12488TIP3    H258880   4.257   3.173  12.281  1.3583 -1.4060  0.4479
12489TIP3   OH258881   3.397   4.827   6.434  0.0753  0.3733 -0.1695
12489TIP3    H158882   3.409   4.770   6.511 -0.5463 -0.5020 -0.7012
12489TIP3    H258883   3.341   4.898   6.466  0.1891  0.2608  0.2974
12490TIP3   OH258884   0.922   3.221  11.612 -0.1128 -0.4116  0.4760
12490TIP3    H158885   0.880   3.167  11.679 -0.4268  1.0128  1.4588
12490TIP3    H258886   0.937   3.305  11.654 -1.5960  1.0209 -1.6455
12491TIP3   OH258887   2.026   2.311  16.162 -0.7025  0.2362  0.9703
12491TIP3    H158888   1.974   2.338  16.086 -1.0739 -1.2837  0.6436
12491TIP3    H258889   2.062   2.392  16.197 -3.6093  1.4389  1.4748
12492TIP3   OH258890   1.144   3.173  13.993  0.2324  0.2126 -0.0592
12492TIP3    H158891   1.203   3.166  13.919  2.4071 -0.9724  1.6738
12492TIP3    H258892   1.110   3.085  14.006  2.0689 -0.2742  1.9684
12493TIP3   OH258893   2.140   3.934   5.179  0.0040 -0.0520 -0.4638
12493TIP3    H158894   2.206   3.905   5.242  0.1476 -1.4307 -1.2011
12493TIP3    H258895   2.148   3.872   5.106 -1.3257  0.4525 -1.0707
12494TIP3   OH258896   5.910   4.612   2.117  0.4706 -1.0275 -0.1062
12494TIP3    H158897   5.891   4.589   2.208 -0.8657 -0.4086 -0.2058
12494TIP3    H258898   5.978   4.551   2.091 -2.1056 -4.2321 -0.0104
12495TIP3   OH258899   2.168   3.269   3.623 -1.0363 -1.0386 -0.1697
12495TIP3    H158900   2.247   3.217   3.605 -0.3475 -0.3698  0.8106
12495TIP3    H258901   2.109   3.208   3.668 -1.1934 -1.6031 -1.0909
12496TIP3   OH258902   5.263   4.766  16.253  0.3005  0.2355 -0.9356
12496TIP3    H158903   5.329   4.774  16.323  0.2132 -0.0343 -0.8217
12496TIP3    H258904   5.214   4.687  16.275  0.1107  0.2880 -1.1689
12497TIP3   OH258905   3.904   4.945  12.306  0.0711  0.1654 -0.3196
12497TIP3    H158906   3.960   5.023  12.298  0.6659 -0.3272 -1.2200
12497TIP3    H258907   3.932   4.904  12.388 -1.0183  1.4668  0.7469
12498TIP3   OH258908   0.961   0.213  11.400 -0.7540 -0.3828 -0.0788
12498TIP3    H158909   1.000   0.258  11.474  0.4372  0.1841 -0.9981
12498TIP3    H258910   1.029   0.150  11.373 -1.3633 -0.9176 -0.3932
12499TIP3   OH258911   3.646   4.902   6.340 -0.0606  0.3018 -0.4952
12499TIP3    H158912   3.657   4.966   6.410  0.4265 -0.0143 -0.2762
12499TIP3    H258913   3.560   4.863   6.356  1.0423 -1.5561  1.4510
12500TIP3   OH258914   3.951   2.863  16.618 -0.1800 -0.3085  0.3187
12500TIP3    H158915   3.900   2.783  16.604 -1.4425  0.7023 -1.3430
12500TIP3    H258916   3.979   2.888  16.530  0.0008  1.1948  0.7811
12501TIP3   OH258917   1.269   6.075  10.551  0.0217 -0.0801  0.5164
12501TIP3    H158918   1.341   6.023  10.516  0.5223  0.0255  1.3649
12501TIP3    H258919   1.207   6.011  10.584  0.2252 -0.1527  0.7579
12502TIP3   OH258920   4.620   2.008  16.718 -0.2274 -0.2425 -0.4798
12502TIP3    H158921   4.562   2.083  16.708  0.4457  0.5080  0.8401
12502TIP3    H258922   4.706   2.040  16.689  0.2757 -0.1284  0.9956
12503TIP3   OH258923   4.459   1.361  16.348  0.2897  0.0885  0.1976
12503TIP3    H158924   4.505   1.400  16.422  1.8380 -1.0181 -0.1446
12503TIP3    H258925   4.406   1.432  16.313 -0.0797  0.7705  2.0378
12504TIP3   OH258926   3.679   1.233  13.793 -0.2530 -0.6022 -0.3357
12504TIP3    H158927   3.716   1.223  13.706 -0.6865 -0.0856 -0.5901
12504TIP3    H258928   3.613   1.164  13.799  0.3647 -1.1773 -0.0875
12505TIP3   OH258929   5.347   1.800  14.853  0.4622  0.0917  0.0401
12505TIP3    H158930   5.282   1.812  14.923  0.8885 -0.9715  0.6472
12505TIP3    H258931   5.295   1.801  14.772 -0.1192  0.7209  0.4087
12506TIP3   OH258932   3.443   4.726   2.260  0.1422 -0.4347  0.1129
12506TIP3    H158933   3.413   4.643   2.223 -0.4201  0.1730 -0.8083
12506TIP3    H258934   3.537   4.714   2.270  0.0291 -1.2958  0.2931
12507TIP3   OH258935   3.831   1.995   4.843 -0.1191  0.5745 -0.6328
12507TIP3    H158936   3.765   1.936   4.879 -0.6796  1.0443 -0.8911
12507TIP3    H258937   3.913   1.945   4.851 -0.1885  0.6806  1.3621
12508TIP3   OH258938   0.205   0.537  12.490 -0.2379  0.2773  0.5161
12508TIP3    H158939   0.197   0.447  12.456 -0.3241  0.3773  0.2679
12508TIP3    H258940   0.116   0.560  12.517 -0.2428  0.3392  0.4481
12509TIP3   OH258941   3.412   1.622  15.728 -0.0182  0.3460  0.7513
12509TIP3    H158942   3.437   1.530  15.730 -0.1075  0.3298  1.1451
12509TIP3    H258943   3.320   1.623  15.751 -0.1627  0.4871  0.1842
12510TIP3   OH258944   1.561   2.644   5.122  0.1204  0.3615  0.5508
12510TIP3    H158945   1.573   2.621   5.215  0.8331  0.5702  0.5161
12510TIP3    H258946   1.524   2.733   5.124  0.3329  0.4487  0.6335
12511TIP3   OH258947   1.601   6.537   3.795  0.0864  0.0978 -0.4494
12511TIP3    H158948   1.543   6.465   3.772 -0.9226  0.6098  0.4294
12511TIP3    H258949   1.548   6.616   3.784  1.3937  0.8143 -2.1531
12512TIP3   OH258950   1.059   3.565   1.253  0.1887 -0.6001  0.5692
12512TIP3    H158951   1.058   3.554   1.348  0.5718  0.1616  0.6723
12512TIP3    H258952   1.115   3.494   1.221 -1.2053 -1.8211  0.7597
12513TIP3   OH258953   2.111   3.691  16.011  0.4218 -0.4528  0.2176
12513TIP3    H158954   2.184   3.741  16.048  0.5312 -0.1357 -0.4086
12513TIP3    H258955   2.152   3.616  15.968  0.5050  0.3660 -1.1871
12514TIP3   OH258956   5.584   5.241   4.762  0.2492 -0.1819  0.7523
12514TIP3    H158957   5.497   5.282   4.770 -0.1262  0.0471 -2.9798
12514TIP3    H258958   5.571   5.170   4.699  2.5542 -0.9388  1.0514
12515TIP3   OH258959   0.880   1.676  16.508 -0.3480  0.5077  0.1950
12515TIP3    H158960   0.939   1.609  16.543 -1.6138 -0.3356  0.7760
12515TIP3    H258961   0.938   1.746  16.480  0.9684 -0.4902  0.3058
12516TIP3   OH258962   2.215   3.725  13.018  0.0019 -0.0564 -0.8312
12516TIP3    H158963   2.229   3.699  12.927  0.0068  0.0647 -0.8648
12516TIP3    H258964   2.230   3.819  13.020  0.9485 -0.2028 -0.5202
12517TIP3   OH258965   0.815   3.556   7.123  0.3726 -0.3437  1.0675
12517TIP3    H158966   0.873   3.502   7.176  0.2387 -0.6406  0.9154
12517TIP3    H258967   0.868   3.631   7.098  1.1908 -1.3380 -0.3526
12518TIP3   OH258968   5.905   3.161   0.676  0.0409 -1.0102 -0.2788
12518TIP3    H158969   5.956   3.238   0.653  0.6870 -1.2154  0.3941
12518TIP3    H258970   5.962   3.087   0.654  0.6333 -1.2216  1.6954
12519TIP3   OH258971   2.767   2.024   4.755 -0.0686 -0.4215  0.3492
12519TIP3    H158972   2.726   1.956   4.808 -0.4877 -0.0741  0.4752
12519TIP3    H258973   2.714   2.102   4.770  0.4585 -0.0379  0.2796
12520TIP3   OH258974   6.769   6.667  15.450  0.1766  0.4649  0.2643
12520TIP3    H158975   6.722   6.734  15.501 -1.1154 -0.9713  1.0433
12520TIP3    H258976   6.816   6.717  15.383  0.0963  2.2349  1.4493
12521TIP3   OH258977   2.809   5.398   3.011 -0.1005 -0.0116 -0.0156
12521TIP3    H158978   2.858   5.474   3.043  0.0397  0.1914 -0.7006
12521TIP3    H258979   2.859   5.323   3.042  0.2674  0.1896 -0.1097
12522TIP3   OH258980   4.917   5.114  14.489  0.2411  0.5404  0.7838
12522TIP3    H158981   5.010   5.102  14.468 -0.2872 -0.5316 -1.2644
12522TIP3    H258982   4.899   5.205  14.466  0.7477  0.7123  1.0513
12523TIP3   OH258983   3.180   0.095  13.670 -0.0877 -0.0624 -0.3140
12523TIP3    H158984   3.167   0.189  13.655  1.6823  0.3383  0.3887
12523TIP3    H258985   3.140   0.053  13.594  0.5633  1.3623 -1.4988
12524TIP3   OH258986   0.673   2.195   3.823  0.0286 -0.0681 -0.2538
12524TIP3    H158987   0.603   2.234   3.771  0.5754  0.5161 -0.5597
12524TIP3    H258988   0.717   2.270   3.864  2.8503 -0.0190 -3.0197
12525TIP3   OH258989   0.999   2.989  12.378  0.1758  0.4409  0.6351
12525TIP3    H158990   0.998   3.042  12.458 -0.3847 -1.0522  1.6625
12525TIP3    H258991   0.948   2.911  12.400  1.3830 -0.7707 -0.6508
12526TIP3   OH258992   3.690   1.317  17.297 -0.6007 -0.3020  0.3631
12526TIP3    H158993   3.680   1.275  17.212  1.2177 -1.8961  0.8896
12526TIP3    H258994   3.720   1.248  17.356  0.0658  1.1756  1.8577
12527TIP3   OH258995   6.654   0.956   3.412 -0.2559 -0.2997  0.3273
12527TIP3    H158996   6.594   1.005   3.356  1.3898 -0.0860 -1.3290
12527TIP3    H258997   6.646   0.865   3.383 -0.0102 -0.3230  0.3304
12528TIP3   OH258998   0.167   0.556   1.721 -0.0588  0.0655 -0.3573
12528TIP3    H158999   0.173   0.606   1.639 -2.3807  1.4851  0.2548
12528TIP3    H259000   0.142   0.621   1.787  0.1096 -1.3537  1.1682
12529TIP3   OH259001   4.590   1.562   2.548 -0.2527  0.1205 -0.5400
12529TIP3    H159002   4.510   1.611   2.530 -1.1179 -1.7715 -2.1677
12529TIP3    H259003   4.657   1.604   2.493 -0.8796 -0.2025 -1.5763
12530TIP3   OH259004   2.493   3.684   1.372 -0.5890  0.1665  0.4203
12530TIP3    H159005   2.530   3.599   1.394  1.8440  0.8127 -0.8077
12530TIP3    H259006   2.433   3.667   1.300  1.9781 -0.3001 -1.7708
12531TIP3   OH259007   5.566   4.951   2.264  0.0387  0.0390 -0.0787
12531TIP3    H159008   5.610   4.934   2.181 -0.4168  0.4461 -0.4121
12531TIP3    H259009   5.506   4.877   2.274  0.8522 -0.5654  0.4243
12532TIP3   OH259010   5.727   4.472   5.127 -0.6729  0.1105  0.5938
12532TIP3    H159011   5.798   4.536   5.136  1.8659 -2.3124 -0.8977
12532TIP3    H259012   5.751   4.401   5.187 -2.8113 -0.0666  1.3335
12533TIP3   OH259013   5.386   2.315   3.126 -0.8905  0.5014 -0.8943
12533TIP3    H159014   5.367   2.255   3.054 -1.8380  0.8458 -0.9567
12533TIP3    H259015   5.312   2.304   3.186  0.2773 -0.3732  0.4497
12534TIP3   OH259016   3.580   0.141   2.856 -0.2775 -0.2388 -0.5438
12534TIP3    H159017   3.593   0.052   2.822 -1.4231 -1.0876  1.0866
12534TIP3    H259018   3.575   0.129   2.951 -2.7776  1.2295 -0.4081
12535TIP3   OH259019   6.200   4.341  13.477 -0.3442 -0.5660 -1.1507
12535TIP3    H159020   6.130   4.396  13.513  1.0885  1.1730 -0.8747
12535TIP3    H259021   6.217   4.277  13.546 -0.5689  0.0101 -0.5480
12536TIP3   OH259022   2.288   1.614   1.920  0.1604 -0.2263 -0.0291
12536TIP3    H159023   2.257   1.676   1.985 -0.8651  0.4857 -1.1543
12536TIP3    H259024   2.359   1.659   1.875  0.6048 -0.5621  0.3342
12537TIP3   OH259025   0.422   0.070   5.378  0.0145 -0.2136 -0.4539
12537TIP3    H159026   0.388  -0.005   5.427  0.3238 -0.4851 -0.6513
12537TIP3    H259027   0.402   0.145   5.433  2.5151 -0.7199  1.3059
12538TIP3   OH259028   0.811   3.004   0.184  0.1786 -0.8494 -0.1712
12538TIP3    H159029   0.858   3.082   0.156  0.1526 -0.8406 -0.1897
12538TIP3    H259030   0.772   3.028   0.268  0.0389 -0.7923 -0.2541
12539TIP3   OH259031   5.870   4.882   2.634 -0.1971  0.2296 -0.3015
12539TIP3    H159032   5.817   4.802   2.632 -1.5219  1.0159  1.0977
12539TIP3    H259033   5.884   4.899   2.727  1.9974  0.4305 -0.6235
12540TIP3   OH259034   4.117   2.340   1.251 -0.4795  0.2240 -0.0617
12540TIP3    H159035   4.090   2.262   1.202 -0.6161  0.3272 -0.1504
12540TIP3    H259036   4.140   2.307   1.337 -1.9785  0.2863  0.3880
12541TIP3   OH259037   0.324   6.595  14.360 -0.1997 -0.2052  0.2428
12541TIP3    H159038   0.336   6.595  14.265 -0.5895  2.5801  0.1048
12541TIP3    H259039   0.403   6.638  14.394 -0.1820 -0.9454  1.1805
12542TIP3   OH259040   4.409   2.417  13.979  0.6395 -0.3661 -0.0787
12542TIP3    H159041   4.449   2.338  13.942  1.4104 -0.0845  0.1397
12542TIP3    H259042   4.428   2.486  13.915 -0.6507 -0.4812 -0.6257
12543TIP3   OH259043   5.611   4.401   0.966  0.3069  0.0942  0.4161
12543TIP3    H159044   5.630   4.365   0.880 -1.9052 -0.0167 -0.0739
12543TIP3    H259045   5.672   4.474   0.975  0.4955  0.1865 -1.2915
12544TIP3   OH259046   0.562   2.391   0.493  0.0055 -0.3525 -0.1292
12544TIP3    H159047   0.509   2.333   0.548  0.0666  1.1702  1.6479
12544TIP3    H259048   0.513   2.399   0.411 -0.8833 -1.4735  0.2690
12545TIP3   OH259049   3.587   3.633   2.265  0.5042 -0.1426 -0.0350
12545TIP3    H159050   3.667   3.681   2.285 -0.1975  1.3734 -0.6854
12545TIP3    H259051   3.522   3.701   2.246  0.3181 -1.2456 -4.5192
12546TIP3   OH259052   6.486   2.492  14.118  0.1464 -0.5248  0.4891
12546TIP3    H159053   6.558   2.495  14.180 -0.2895  0.5501  0.9613
12546TIP3    H259054   6.442   2.409  14.135  3.0104 -2.7625 -1.8591
12547TIP3   OH259055   1.884   1.286  16.011 -0.5090 -0.9001 -0.3886
12547TIP3    H159056   1.794   1.254  16.022 -1.1379  0.7917 -0.3014
12547TIP3    H259057   1.874   1.373  15.974  1.0756 -0.3487  0.3902
12548TIP3   OH259058   3.502   4.801   1.797  0.8131  0.2049  0.1397
12548TIP3    H159059   3.443   4.822   1.724  0.9977  0.6409  0.1139
12548TIP3    H259060   3.472   4.855   1.869  0.7565 -0.0805  0.3337
12549TIP3   OH259061   4.009   3.172   2.337  0.2951  0.2104 -0.2264
12549TIP3    H159062   3.962   3.197   2.258  0.5254  0.6033 -0.2459
12549TIP3    H259063   4.095   3.142   2.305  0.5359  0.7523 -0.1023
12550TIP3   OH259064   3.692   6.513  14.549  0.6499 -0.2473  0.4925
12550TIP3    H159065   3.622   6.467  14.503  0.4761 -2.5467  2.8484
12550TIP3    H259066   3.757   6.446  14.567  1.9114  1.1271  1.3187
12551TIP3   OH259067   5.588   4.074  11.466  0.3126  0.0538  0.3511
12551TIP3    H159068   5.550   4.070  11.378 -0.4313  1.0620  0.6019
12551TIP3    H259069   5.513   4.079  11.524  0.7910  1.4537  0.9028
12552TIP3   OH259070   0.716   0.166  16.140  0.2304  0.3253  0.1830
12552TIP3    H159071   0.658   0.147  16.066  1.6262 -2.4155 -0.3588
12552TIP3    H259072   0.800   0.187  16.100  0.6585  0.1402  0.9577
12553TIP3   OH259073   6.766   2.966   0.314  0.3940 -0.2478 -0.1577
12553TIP3    H159074   6.681   2.999   0.344  1.1758  0.5628  1.2341
12553TIP3    H259075   6.804   2.923   0.390  2.4166  1.8251  0.1257
12554TIP3   OH259076   2.395   5.167  13.564  0.7541  0.0856  0.4467
12554TIP3    H159077   2.310   5.190  13.525  1.8941  4.3524 -0.0304
12554TIP3    H259078   2.374   5.100  13.629 -2.8204  0.3354 -0.2305
12555TIP3   OH259079   4.365   2.993  16.351 -0.2929  0.0852 -0.3540
12555TIP3    H159080   4.424   3.049  16.401  0.8125 -0.3651 -1.1034
12555TIP3    H259081   4.377   3.021  16.260  2.5502 -3.1228 -1.2156
12556TIP3   OH259082   2.672   2.363   2.602 -0.0684 -0.1558  0.5847
12556TIP3    H159083   2.587   2.368   2.557 -0.6707 -0.5448  1.6383
12556TIP3    H259084   2.702   2.274   2.586  1.1083  0.5395 -1.4242
12557TIP3   OH259085   3.260   1.158   6.235  0.1250 -0.3671  1.1517
12557TIP3    H159086   3.294   1.081   6.190 -1.4320 -1.3858  1.6172
12557TIP3    H259087   3.195   1.123   6.297 -1.0343  1.3530  0.9964
12558TIP3   OH259088   5.941   4.494  16.352 -0.3614  0.3337 -0.6663
12558TIP3    H159089   5.908   4.457  16.270 -2.5749 -0.7736  0.6335
12558TIP3    H259090   5.935   4.589  16.339 -0.1002  0.1911 -1.9749
12559TIP3   OH259091   4.038   3.135  14.419  0.4759 -0.2106  0.0108
12559TIP3    H159092   4.113   3.194  14.427 -1.2328  1.8386  3.1308
12559TIP3    H259093   3.974   3.170  14.481 -2.8283 -2.2248 -1.9763
12560TIP3   OH259094   2.126   4.330  16.762  0.6645 -0.2780 -0.0875
12560TIP3    H159095   2.035   4.354  16.747  0.9983  2.0832  1.1846
12560TIP3    H259096   2.164   4.323  16.675 -0.9287 -2.5110 -0.7032
12561TIP3   OH259097   4.913   0.903  16.699 -0.6475 -0.0760 -0.4870
12561TIP3    H159098   4.828   0.935  16.729 -1.5812 -1.3952 -1.5922
12561TIP3    H259099   4.971   0.915  16.774 -1.6665  1.3491  0.1109
12562TIP3   OH259100   2.995   0.124   0.306  0.7314  0.0985  0.3114
12562TIP3    H159101   3.014   0.047   0.359  0.1268  0.1247  0.5773
12562TIP3    H259102   3.006   0.198   0.366  0.3504  0.1490  0.3226
12563TIP3   OH259103   0.669   6.411   5.939  0.7288  0.2741  0.1006
12563TIP3    H159104   0.764   6.417   5.936  0.7824 -0.7402 -0.9087
12563TIP3    H259105   0.638   6.482   5.883  0.8581  0.9712  0.8927
12564TIP3   OH259106   5.922   3.432   1.290  0.3160 -0.4558  0.5212
12564TIP3    H159107   5.846   3.468   1.246  1.6812  0.7501 -0.9310
12564TIP3    H259108   5.994   3.492   1.269  1.5274 -1.1191  2.4818
12565TIP3   OH259109   1.183   5.719   4.670  0.1186  0.0152  0.5014
12565TIP3    H159110   1.089   5.705   4.674  0.0307  0.7391  1.1475
12565TIP3    H259111   1.198   5.802   4.716  1.0670 -0.1012  0.4369
12566TIP3   OH259112   3.797   0.876  13.363 -0.2052 -0.2557  0.3314
12566TIP3    H159113   3.740   0.800  13.347  0.1118 -0.5977  0.8062
12566TIP3    H259114   3.876   0.838  13.402 -0.3839  0.4105  1.3641
12567TIP3   OH259115   6.148   0.780   5.680  0.4537  0.1406 -0.3765
12567TIP3    H159116   6.110   0.779   5.768 -0.9573  1.6034 -0.9091
12567TIP3    H259117   6.108   0.857   5.638  1.2502 -0.4005 -2.2217
12568TIP3   OH259118   0.833   6.249  13.443 -0.0226 -0.4823 -0.0157
12568TIP3    H159119   0.900   6.181  13.451  1.7538  0.8976 -1.9932
12568TIP3    H259120   0.853   6.311  13.513 -0.2525 -0.8648  0.3940
12569TIP3   OH259121   0.527   0.538   5.598 -0.1427 -0.7735 -0.4918
12569TIP3    H159122   0.509   0.632   5.606  0.0269 -0.6967 -0.9755
12569TIP3    H259123   0.622   0.533   5.587  0.0384 -1.1050  0.9772
12570TIP3   OH259124   6.090   5.807   1.035  0.7536 -0.1322 -1.0536
12570TIP3    H159125   6.093   5.739   0.968 -0.6422 -0.2976 -0.9843
12570TIP3    H259126   6.097   5.889   0.987 -0.3297 -0.2468 -1.4376
12571TIP3   OH259127   1.142   0.189   1.513 -0.0285 -0.2558  0.0582
12571TIP3    H159128   1.146   0.126   1.441  1.0514  1.1105 -1.1332
12571TIP3    H259129   1.114   0.271   1.472  2.5222  1.0709  0.7557
12572TIP3   OH259130   6.130   0.025  11.714 -0.1319  0.0606 -0.2404
12572TIP3    H159131   6.140   0.108  11.666  0.6383 -0.9973 -2.0362
12572TIP3    H259132   6.046   0.033  11.758  0.1238  1.9642 -0.0109
12573TIP3   OH259133   4.409   0.908  11.001  0.2311 -0.0461 -0.0184
12573TIP3    H159134   4.371   0.821  11.014 -0.2243 -0.0714 -1.3546
12573TIP3    H259135   4.367   0.963  11.066  0.2304 -0.7376  0.5782
12574TIP3   OH259136   4.141   0.222   1.088 -0.0572 -0.4356  0.3324
12574TIP3    H159137   4.215   0.244   1.031 -0.7811  0.1603 -0.4005
12574TIP3    H259138   4.162   0.135   1.122  1.0229 -0.2358  0.2176
12575TIP3   OH259139   2.096   1.978  14.777  0.3349 -0.2677  0.0928
12575TIP3    H159140   2.152   1.947  14.848 -0.7669 -0.9402  0.6957
12575TIP3    H259141   2.049   2.053  14.813  0.3402 -0.1403 -0.1669
12576TIP3   OH259142   4.925   3.825  13.304 -0.5207  0.2215  0.4735
12576TIP3    H159143   4.864   3.845  13.233 -1.2131  1.8985  1.4766
12576TIP3    H259144   4.935   3.730  13.301  0.5229  0.2785 -2.6900
12577TIP3   OH259145   3.934   0.066   0.491 -0.5564  0.4113 -0.2086
12577TIP3    H159146   4.028   0.062   0.510 -0.9023  0.2638  1.6983
12577TIP3    H259147   3.914  -0.020   0.453 -0.5763 -1.2121  3.0907
12578TIP3   OH259148   1.911   5.724  12.673 -0.0489 -0.3696 -0.7571
12578TIP3    H159149   1.934   5.781  12.599  0.2305 -0.9815 -1.1559
12578TIP3    H259150   1.983   5.736  12.735 -1.3213  1.7753  0.4157
12579TIP3   OH259151   2.603   2.572  15.966  0.3242  0.4301  0.0457
12579TIP3    H159152   2.680   2.528  15.930 -0.0301  1.1316 -1.6541
12579TIP3    H259153   2.637   2.652  16.006  0.6840 -0.1892  1.0066
12580TIP3   OH259154   0.454   4.088   4.207  0.2913  0.1463  0.1615
12580TIP3    H159155   0.392   4.160   4.218  1.2897  1.0242  0.1626
12580TIP3    H259156   0.399   4.010   4.200 -0.8070  0.8992  0.1888
12581TIP3   OH259157   3.837   1.119   6.688  0.0815  0.4013 -0.4474
12581TIP3    H159158   3.898   1.172   6.741  0.2584 -1.5213  1.3871
12581TIP3    H259159   3.751   1.159   6.703  0.0059 -0.5412  2.0107
12582TIP3   OH259160   3.993   2.124   1.139  0.1731  0.0716 -0.3987
12582TIP3    H159161   3.975   2.121   1.045 -1.3710  1.4939 -0.1869
12582TIP3    H259162   3.909   2.108   1.181  0.8921 -0.8186  0.7819
12583TIP3   OH259163   2.924   1.094   2.459  0.0190 -0.0933  0.3853
12583TIP3    H159164   2.937   1.023   2.396 -1.5234  1.2045 -1.5192
12583TIP3    H259165   2.949   1.056   2.543  1.8237 -2.0314 -0.9032
12584TIP3   OH259166   0.335   4.281  13.888 -0.1010  0.2198  0.2570
12584TIP3    H159167   0.343   4.371  13.855 -3.4596  0.9659  1.0861
12584TIP3    H259168   0.274   4.288  13.961  0.1031 -2.6726  0.8246
12585TIP3   OH259169   1.298   1.987  11.129  0.3753 -0.3289  0.0673
12585TIP3    H159170   1.345   1.932  11.065  0.1698 -1.3882  0.8030
12585TIP3    H259171   1.349   2.068  11.132  0.1843 -0.1044 -1.6972
12586TIP3   OH259172   4.702   5.100  14.748  0.7606 -0.3490 -0.2829
12586TIP3    H159173   4.738   5.164  14.686 -0.9740  0.7891 -0.1623
12586TIP3    H259174   4.685   5.150  14.828  0.0789 -1.1293  0.0763
12587TIP3   OH259175   4.271   6.539  15.804 -0.0918 -0.4985 -0.5526
12587TIP3    H159176   4.299   6.470  15.864  2.9954 -0.0722 -1.3423
12587TIP3    H259177   4.262   6.617  15.859  2.8727 -0.0722 -0.5161
12588TIP3   OH259178   6.466   3.223  16.543 -0.4014 -0.4145 -0.8743
12588TIP3    H159179   6.517   3.171  16.481 -1.9909 -0.3625 -2.2863
12588TIP3    H259180   6.481   3.314  16.517 -0.0945 -0.3238 -0.3893
12589TIP3   OH259181   4.026   4.231   3.707 -0.5450 -0.2723 -0.1353
12589TIP3    H159182   4.007   4.316   3.668 -0.4219  0.0779  0.5558
12589TIP3    H259183   4.117   4.238   3.737 -0.4885 -0.6946 -0.1913
12590TIP3   OH259184   1.102   1.374   2.060  0.4781  0.2749  0.1498
12590TIP3    H159185   1.103   1.323   2.140  0.8889 -0.1414 -0.1154
12590TIP3    H259186   1.017   1.355   2.020  1.3873 -1.8133 -0.9487
12591TIP3   OH259187   4.675   4.477  17.333  0.1512 -0.0354  0.0573
12591TIP3    H159188   4.584   4.447  17.325 -0.0874 -1.1192  4.2885
12591TIP3    H259189   4.725   4.415  17.279 -1.4718  0.3161 -2.0029
12592TIP3   OH259190   4.473   0.813   1.368  0.3346 -0.3769 -0.3407
12592TIP3    H159191   4.511   0.787   1.452 -0.0761  0.9023  0.2771
12592TIP3    H259192   4.381   0.787   1.373  0.5327 -1.2219 -0.8293
12593TIP3   OH259193   4.329   4.699   5.930  0.2883 -0.2122  0.1085
12593TIP3    H159194   4.305   4.676   6.019 -0.6859 -1.5902 -0.4631
12593TIP3    H259195   4.251   4.679   5.878  1.1770 -0.4635 -1.1942
12594TIP3   OH259196   0.760   5.488   5.411 -0.1486 -0.3805  0.6325
12594TIP3    H159197   0.850   5.464   5.391  0.2155  0.0211  1.7182
12594TIP3    H259198   0.742   5.564   5.355 -0.8727 -2.2205 -1.8457
12595TIP3   OH259199   6.635   5.453  15.703 -0.9147 -0.2108 -0.2706
12595TIP3    H159200   6.728   5.458  15.725 -0.7254 -0.1113 -1.0844
12595TIP3    H259201   6.633   5.428  15.611 -1.7059 -0.7890 -0.1045
12596TIP3   OH259202   0.791   0.207   5.419 -0.3599 -0.4112 -0.4473
12596TIP3    H159203   0.748   0.184   5.336 -1.2933  0.2174 -0.1484
12596TIP3    H259204   0.854   0.136   5.433 -1.1970 -1.2914 -0.9763
12597TIP3   OH259205   0.034   5.085  13.758 -0.5551 -0.9406 -0.4252
12597TIP3    H159206   0.129   5.075  13.759 -0.6224 -2.3300  2.1641
12597TIP3    H259207   0.000   4.996  13.754 -1.7535 -0.4910 -0.8382
12598TIP3   OH259208   4.197   0.765  14.390 -0.0721  0.0383  0.1366
12598TIP3    H159209   4.134   0.811  14.445 -0.4396  0.3981 -0.5665
12598TIP3    H259210   4.268   0.829  14.376  0.2186 -0.1952  0.5221
12599TIP3   OH259211   4.174   2.330  14.144 -0.8344  0.4636 -0.1923
12599TIP3    H159212   4.251   2.370  14.102  0.7983  0.2253  2.3715
12599TIP3    H259213   4.131   2.403  14.189 -0.1069  0.0474  1.2179
12600TIP3   OH259214   6.131   3.450   4.686  0.3454 -0.0922 -0.4336
12600TIP3    H159215   6.185   3.485   4.614 -0.2204  0.4746 -0.5979
12600TIP3    H259216   6.113   3.360   4.661  1.4758 -0.3852 -0.2234
12601TIP3   OH259217   3.945   4.691   4.847  0.3892 -0.0927  0.5564
12601TIP3    H159218   4.009   4.739   4.795  0.7536 -1.2868 -0.1400
12601TIP3    H259219   3.983   4.604   4.857  1.2191  0.5418  4.3836
12602TIP3   OH259220   2.247   0.504  11.256 -0.7832  0.3095 -0.0110
12602TIP3    H159221   2.174   0.552  11.297  1.0477  3.0067  0.3994
12602TIP3    H259222   2.259   0.548  11.171  0.4784  0.1004  0.0381
12603TIP3   OH259223   0.824   4.448   4.373 -0.4916  0.4048 -0.1368
12603TIP3    H159224   0.875   4.434   4.453  1.0405  3.4625 -0.4394
12603TIP3    H259225   0.748   4.498   4.401 -1.1406 -0.4486 -0.3236
12604TIP3   OH259226   6.120   4.437  11.296  0.6499 -0.0933  0.1054
12604TIP3    H159227   6.201   4.411  11.253  0.8821 -0.1412  0.5641
12604TIP3    H259228   6.051   4.392  11.247  0.6671  1.7565 -1.7404
12605TIP3   OH259229   5.637   5.104  13.725  0.0333 -0.0776 -0.6461
12605TIP3    H159230   5.715   5.112  13.671  0.3288 -2.6230 -0.7355
12605TIP3    H259231   5.657   5.152  13.805  0.9891  0.7467 -1.3603
12606TIP3   OH259232   0.737   3.944  14.503  0.0908  0.3004 -0.5660
12606TIP3    H159233   0.648   3.974  14.484 -0.1179 -1.0029 -1.7938
12606TIP3    H259234   0.766   3.902  14.423  1.9654  0.9662 -0.2963
12607TIP3   OH259235   6.015   4.617  16.661  0.2210 -0.1544 -0.5539
12607TIP3    H159236   6.037   4.536  16.616 -0.6054 -1.6865  1.6146
12607TIP3    H259237   6.088   4.632  16.721 -1.2382 -1.4403  1.6952
12608TIP3   OH259238   0.019   0.281   0.264  0.6122 -0.2687 -0.0599
12608TIP3    H159239   0.091   0.222   0.243  0.9997  0.1104  0.1991
12608TIP3    H259240  -0.036   0.281   0.186  1.5013  0.3485 -0.7011
12609TIP3   OH259241   2.094   6.067  13.918  0.6413 -0.0450 -0.3183
12609TIP3    H159242   2.097   5.976  13.946 -1.4120  0.4489  1.9214
12609TIP3    H259243   2.180   6.102  13.941  1.2795 -1.2951 -0.7642
12610TIP3   OH259244   1.211   0.125  12.829 -0.3997 -0.0488  0.3563
12610TIP3    H159245   1.150   0.056  12.803  0.6935 -1.6214  1.7627
12610TIP3    H259246   1.157   0.190  12.874 -1.5603  0.4539 -1.6248
12611TIP3   OH259247   5.513   3.117   3.628 -0.2065 -0.9061 -0.1089
12611TIP3    H159248   5.557   3.197   3.659 -1.0320 -0.1437 -0.8327
12611TIP3    H259249   5.475   3.078   3.706 -1.5635  0.5452  0.0099
12612TIP3   OH259250   0.848   2.232  11.218  0.3347 -0.0178  0.0650
12612TIP3    H159251   0.898   2.302  11.176 -0.7583  0.3696 -0.6318
12612TIP3    H259252   0.887   2.151  11.185 -0.9432  0.2648 -2.3406
12613TIP3   OH259253   3.764   0.960   2.751  0.1382 -0.0017 -0.0519
12613TIP3    H159254   3.766   1.053   2.730 -0.3059 -0.2927 -1.5141
12613TIP3    H259255   3.798   0.917   2.673 -1.0090 -1.1277  0.0378
12614TIP3   OH259256   6.619   5.850   0.785 -0.3749 -0.4978  0.1491
12614TIP3    H159257   6.605   5.860   0.879  0.4555  0.9874  0.1511
12614TIP3    H259258   6.699   5.900   0.767 -0.1934 -1.2343 -1.2535
12615TIP3   OH259259   6.075   3.677  15.653  0.2089 -0.4005 -0.5996
12615TIP3    H159260   6.028   3.608  15.700 -0.6641 -1.0054 -2.2537
12615TIP3    H259261   6.167   3.657  15.667  0.0324  0.1528  1.7877
12616TIP3   OH259262   5.901   4.171   2.799  0.2316  0.2494 -0.1195
12616TIP3    H159263   5.975   4.123   2.836  0.2238  0.8032  0.6502
12616TIP3    H259264   5.838   4.178   2.871  0.1603  1.2459 -0.2565
12617TIP3   OH259265   0.413   4.679  14.342  0.3918  0.2045  0.8453
12617TIP3    H159266   0.332   4.709  14.302  1.5695 -0.2070 -2.0893
12617TIP3    H259267   0.389   4.598  14.387 -0.8686  0.2413  0.2749
12618TIP3   OH259268   5.091   2.047  15.352  0.2643 -0.5354 -0.1584
12618TIP3    H159269   5.082   2.119  15.414  1.8800  0.0373 -0.5500
12618TIP3    H259270   5.183   2.021  15.358  0.0893 -1.4769 -1.2104
12619TIP3   OH259271   4.440   5.897  15.001 -0.1299  0.0651 -0.1229
12619TIP3    H159272   4.427   5.858  14.914  0.5994 -3.1009  1.0404
12619TIP3    H259273   4.357   5.881  15.047  0.7938 -2.0036  0.9631
12620TIP3   OH259274   0.165   2.503   6.356  0.8120  0.5346  0.2188
12620TIP3    H159275   0.192   2.594   6.365 -2.1189  1.5087  0.1390
12620TIP3    H259276   0.163   2.470   6.446  2.1617  0.4040  0.2267
12621TIP3   OH259277   3.319   5.683  14.724  0.1060 -0.8064  0.7798
12621TIP3    H159278   3.317   5.633  14.642  3.3241 -1.0519  0.7155
12621TIP3    H259279   3.290   5.620  14.790  0.7860 -1.7125  0.2473
12622TIP3   OH259280   0.387   5.587  14.338 -0.5977 -0.1877  0.2490
12622TIP3    H159281   0.297   5.556  14.327 -1.1634  1.4755 -0.2222
12622TIP3    H259282   0.414   5.556  14.424 -1.7332 -0.4412  0.5248
12623TIP3   OH259283   1.665   3.996   3.887 -0.2016  0.5195  0.0467
12623TIP3    H159284   1.738   4.048   3.853  1.9712 -0.2362  3.1338
12623TIP3    H259285   1.641   4.040   3.969  1.9647 -3.2256  2.9984
12624TIP3   OH259286   2.114   5.492  16.356  0.6715 -0.1357  0.0467
12624TIP3    H159287   2.101   5.566  16.417  0.5818 -0.9952  1.0977
12624TIP3    H259288   2.032   5.442  16.362  1.1938 -0.9799  0.2757
12625TIP3   OH259289   6.756   6.589  16.425 -0.2916 -0.0231 -0.1205
12625TIP3    H159290   6.680   6.551  16.470 -1.1717  1.2022 -0.5074
12625TIP3    H259291   6.789   6.656  16.485 -1.1416  1.2454 -0.9973
12626TIP3   OH259292   2.077   5.193  13.798  0.2648 -0.3037 -0.0300
12626TIP3    H159293   2.102   5.267  13.853 -1.6723  0.3902  0.0041
12626TIP3    H259294   2.007   5.228  13.743 -1.1631 -2.2904  0.4579
12627TIP3   OH259295   5.495   5.494  12.359 -0.5943  0.4275 -0.2593
12627TIP3    H159296   5.457   5.496  12.271  1.5969 -0.5392 -1.3107
12627TIP3    H259297   5.519   5.402  12.372 -0.1728  0.7013  1.0205
12628TIP3   OH259298   4.438   6.704  12.846  0.2456  0.4294 -0.1432
12628TIP3    H159299   4.426   6.789  12.889 -0.4507  0.0803  0.3755
12628TIP3    H259300   4.522   6.672  12.878  0.0502  0.4821  0.4394
12629TIP3   OH259301   4.348   1.690   4.230  0.6119 -0.7954  0.6423
12629TIP3    H159302   4.267   1.741   4.238  1.3352  1.2151 -2.8417
12629TIP3    H259303   4.325   1.620   4.169  1.4129 -0.3221 -0.2199
12630TIP3   OH259304   2.757   6.212   2.613  0.0950 -0.5018  0.0311
12630TIP3    H159305   2.693   6.211   2.542  0.4151  3.1167 -0.4686
12630TIP3    H259306   2.842   6.213   2.568  0.3415  0.2720  0.5053
12631TIP3   OH259307   2.726   4.792   0.683 -0.2597  0.1074  0.4174
12631TIP3    H159308   2.645   4.842   0.675 -1.4112 -1.5521  1.0936
12631TIP3    H259309   2.723   4.730   0.611  1.4294  1.2939 -0.7577
12632TIP3   OH259310   6.147   4.817  11.599  0.2226  0.3355  0.2017
12632TIP3    H159311   6.205   4.758  11.647  1.7146  0.4650 -1.3795
12632TIP3    H259312   6.205   4.885  11.565 -0.5758 -0.2925 -2.6309
12633TIP3   OH259313   3.645   2.497   5.710 -0.0367  0.0115  0.4647
12633TIP3    H159314   3.569   2.460   5.756  0.4572  1.1994  2.3362
12633TIP3    H259315   3.649   2.587   5.741  1.1256  0.4709 -0.9593
12634TIP3   OH259316   1.544   4.160   2.628  0.8031  0.0869 -0.1815
12634TIP3    H159317   1.510   4.219   2.694  1.3490 -0.8224  0.9493
12634TIP3    H259318   1.482   4.166   2.555 -1.4303 -1.0216  1.5201
12635TIP3   OH259319   1.193   1.872   2.665 -0.2201 -0.2158  0.1204
12635TIP3    H159320   1.252   1.810   2.708 -0.9501 -0.5418  0.6831
12635TIP3    H259321   1.155   1.823   2.592  0.8480  0.2675 -0.7857
12636TIP3   OH259322   5.612   5.016   0.358  0.5992 -0.7326 -0.0105
12636TIP3    H159323   5.541   5.002   0.421 -0.6706  0.1373 -1.1780
12636TIP3    H259324   5.682   4.957   0.386 -0.2818 -1.0311  1.6484
12637TIP3   OH259325   2.228   5.931   3.940 -0.8341 -0.6201  0.3969
12637TIP3    H159326   2.172   5.863   3.978 -0.8529 -0.2287  1.0858
12637TIP3    H259327   2.268   5.974   4.016  0.4988 -0.9608 -0.0852
12638TIP3   OH259328   1.212   0.533  15.430 -1.2222 -0.9568  0.0618
12638TIP3    H159329   1.191   0.599  15.365  1.9198 -0.3762 -0.5326
12638TIP3    H259330   1.188   0.450  15.389  0.1182 -0.5485 -1.6499
12639TIP3   OH259331   3.334   5.926  12.889 -0.2343 -0.3685  0.5920
12639TIP3    H159332   3.341   5.906  12.982  1.2359 -2.4402  0.0835
12639TIP3    H259333   3.423   5.947  12.862 -0.3449 -1.4315 -0.6821
12640TIP3   OH259334   1.019   2.466   5.194 -0.1165 -0.2636 -0.6046
12640TIP3    H159335   1.060   2.396   5.245 -2.1079 -1.1845 -0.1786
12640TIP3    H259336   0.962   2.511   5.256 -1.7665 -0.7205 -1.7308
12641TIP3   OH259337   6.251   2.619   5.695 -0.6560 -0.6745  0.5969
12641TIP3    H159338   6.190   2.684   5.729  1.2014  0.3503  2.2454
12641TIP3    H259339   6.285   2.657   5.614  0.0181  0.2273  1.2741
12642TIP3   OH259340   4.541   5.132  14.081  0.4452  0.2659 -0.0322
12642TIP3    H159341   4.625   5.174  14.101  0.2720  1.0411 -0.8444
12642TIP3    H259342   4.549   5.107  13.989 -0.3813  0.7737 -0.2514
12643TIP3   OH259343   1.057   1.975  15.343 -0.2519 -0.7806  0.1797
12643TIP3    H159344   1.088   2.012  15.425 -1.5088 -1.3635  0.9331
12643TIP3    H259345   1.044   2.051  15.286  0.0332 -0.3182  0.7206
12644TIP3   OH259346   2.269   6.262  13.951  0.0637  0.5127  0.1438
12644TIP3    H159347   2.232   6.345  13.977  1.1824  1.4985 -1.2156
12644TIP3    H259348   2.360   6.265  13.981  0.2861  0.0593 -0.4438
12645TIP3   OH259349   5.843   2.299   5.907  0.5213 -0.0339 -0.1020
12645TIP3    H159350   5.823   2.387   5.875  0.0686 -0.5368 -1.2222
12645TIP3    H259351   5.913   2.267   5.850  0.3221 -0.6030 -0.0348
12646TIP3   OH259352   1.663   2.138   3.095  0.6314  0.3873  0.2950
12646TIP3    H159353   1.667   2.047   3.067 -0.6040  1.0483 -2.3894
12646TIP3    H259354   1.599   2.138   3.166  0.7732 -0.8597  0.4466
12647TIP3   OH259355   3.758   2.746   3.610 -0.1709 -0.2992  0.3677
12647TIP3    H159356   3.850   2.766   3.592 -0.2305 -0.0349  0.3494
12647TIP3    H259357   3.728   2.699   3.533  0.4004 -1.8964  1.0666
12648TIP3   OH259358   6.171   5.110  12.141 -0.1271 -0.1664 -0.2557
12648TIP3    H159359   6.234   5.060  12.194 -2.5295  0.5830  3.6935
12648TIP3    H259360   6.107   5.045  12.113 -0.6301 -0.1047  0.7028
12649TIP3   OH259361   5.873   6.430  14.740  0.2056  0.3754 -0.3519
12649TIP3    H159362   5.801   6.392  14.791 -0.2158  1.6113  0.0090
12649TIP3    H259363   5.908   6.356  14.689 -0.0465 -0.6613  0.9239
12650TIP3   OH259364   0.904   0.610  13.329  0.2902  0.8230 -0.0989
12650TIP3    H159365   0.891   0.537  13.269  0.1070  0.9593 -0.2291
12650TIP3    H259366   0.862   0.583  13.410  0.6385  0.5907  0.0077
12651TIP3   OH259367   5.689   0.263  16.427 -0.1116 -0.6271 -0.3103
12651TIP3    H159368   5.641   0.203  16.370 -1.6139  0.7398 -0.5603
12651TIP3    H259369   5.777   0.226  16.433 -0.6609 -2.1928 -1.3988
12652TIP3   OH259370   0.060   1.238  10.793 -0.0768 -0.4186  0.6306
12652TIP3    H159371  -0.005   1.182  10.835  0.6256 -0.8473  1.1690
12652TIP3    H259372   0.008   1.301  10.742 -0.8768 -1.4180  0.1880
12653TIP3   OH259373   3.708   0.071  16.995 -0.1027 -0.1337  0.1596
12653TIP3    H159374   3.628   0.123  17.003  0.0681  0.3126 -0.9345
12653TIP3    H259375   3.771   0.114  17.053 -0.2248  0.3718 -0.0801
12654TIP3   OH259376   2.264   6.711  16.245 -0.1790  0.4768 -0.0433
12654TIP3    H159377   2.276   6.631  16.296 -2.8613  0.3484  0.5233
12654TIP3    H259378   2.347   6.723  16.199  0.9618 -1.5414  1.3551
12655TIP3   OH259379   3.437   2.167   3.478  0.4511  0.1604 -0.4771
12655TIP3    H159380   3.347   2.177   3.510  0.6527 -1.2373  0.6050
12655TIP3    H259381   3.467   2.257   3.464 -0.8925  0.6733 -0.2150
12656TIP3   OH259382   1.445   3.578   0.471  0.0517 -0.2853  0.4195
12656TIP3    H159383   1.491   3.584   0.555 -1.4495 -1.2425  1.3420
12656TIP3    H259384   1.353   3.573   0.494 -0.4076 -0.2927 -1.3119
12657TIP3   OH259385   0.120   4.530  12.061  0.2852  0.0895 -0.3760
12657TIP3    H159386   0.184   4.458  12.060 -0.0595 -0.2169 -1.0260
12657TIP3    H259387   0.157   4.594  12.123  1.6648  0.3260 -1.3966
12658TIP3   OH259388   2.373   6.678  15.527  0.3983 -0.8590 -0.0733
12658TIP3    H159389   2.456   6.722  15.548  0.3763 -0.4396 -0.8447
12658TIP3    H259390   2.309   6.749  15.524 -0.1333 -1.2532  1.1525
12659TIP3   OH259391   4.904   4.974  14.133  0.3190 -0.3881  0.3621
12659TIP3    H159392   4.979   4.990  14.190  0.4657 -0.8560  0.2987
12659TIP3    H259393   4.929   5.012  14.048  1.2834 -2.2244 -0.2240
12660TIP3   OH259394   1.854   5.099  13.024 -0.0599  0.4584 -0.7570
12660TIP3    H159395   1.943   5.132  13.013  0.5690  0.1435  2.3862
12660TIP3    H259396   1.861   5.005  13.007 -0.1183  0.6310 -1.8077
12661TIP3   OH259397   2.231   3.777  16.872 -0.5066 -0.2869  0.0733
12661TIP3    H159398   2.170   3.794  16.801 -1.4977 -2.0516  0.4427
12661TIP3    H259399   2.217   3.848  16.934  0.2095  1.1570 -1.3393
12662TIP3   OH259400   2.113   4.349   0.403 -0.6357 -0.4619 -0.4941
12662TIP3    H159401   2.087   4.420   0.344 -1.5350 -1.4269 -1.3110
12662TIP3    H259402   2.098   4.384   0.491  1.3465  1.2338 -0.7735
12663TIP3   OH259403   3.131   1.200  13.093 -0.5863 -0.1149 -0.5065
12663TIP3    H159404   3.036   1.203  13.106 -0.5538 -0.4776 -0.1461
12663TIP3    H259405   3.167   1.254  13.164 -0.5381  0.3345 -0.8704
12664TIP3   OH259406   3.429   4.769  12.132 -0.5653  0.6335  0.3001
12664TIP3    H159407   3.483   4.754  12.209 -0.9763  3.0046  1.1488
12664TIP3    H259408   3.491   4.781  12.060 -0.1584 -0.9178  0.3542
12665TIP3   OH259409   5.506   3.928  12.224  0.1226  0.7084 -0.3506
12665TIP3    H159410   5.529   4.007  12.174  0.5993  0.5876 -0.3261
12665TIP3    H259411   5.551   3.857  12.178 -1.7302  0.1700 -1.4471
12666TIP3   OH259412   0.225   1.009   2.680 -0.1677  0.3057  1.1100
12666TIP3    H159413   0.157   0.982   2.619  0.4784 -1.7469  1.2403
12666TIP3    H259414   0.250   0.929   2.726  3.3872  0.6467  0.0289
12667TIP3   OH259415   4.727   3.185  14.574  0.5304 -0.1194 -0.1975
12667TIP3    H159416   4.818   3.156  14.564  0.4585  0.1527 -2.1943
12667TIP3    H259417   4.728   3.276  14.545 -0.3662 -0.1039 -0.2195
12668TIP3   OH259418   4.695   4.920  15.062 -0.2618  0.2765 -0.8190
12668TIP3    H159419   4.715   4.976  14.987 -1.5088 -0.6485 -1.8716
12668TIP3    H259420   4.781   4.898  15.099  0.4425 -0.1781 -2.6487
12669TIP3   OH259421   1.912   6.014  15.953 -0.1575 -0.1825  0.4086
12669TIP3    H159422   1.901   5.926  15.988  1.3055 -0.6809 -0.3180
12669TIP3    H259423   1.915   6.002  15.858 -0.3239  0.7034  0.2830
12670TIP3   OH259424   5.300   1.013   4.734 -0.0233  0.3151 -0.1092
12670TIP3    H159425   5.289   0.918   4.722  1.5902 -0.0754  0.9993
12670TIP3    H259426   5.386   1.032   4.696  0.0488  1.1516  0.4386
12671TIP3   OH259427   4.704   3.443  14.512 -0.1398  0.2652  0.0032
12671TIP3    H159428   4.630   3.501  14.528 -1.5747 -1.4309 -0.1366
12671TIP3    H259429   4.713   3.442  14.416 -0.5718 -0.2554 -0.0374
12672TIP3   OH259430   2.974   2.215  15.207 -0.3801 -0.3485  0.5656
12672TIP3    H159431   3.062   2.247  15.188 -0.8443  0.7245  0.1312
12672TIP3    H259432   2.920   2.249  15.136 -1.1153 -1.1666  0.7144
12673TIP3   OH259433   3.603   5.194   3.836 -0.2475 -0.1643  0.3983
12673TIP3    H159434   3.637   5.105   3.823 -0.4722 -0.0329 -1.3638
12673TIP3    H259435   3.677   5.244   3.870  0.3578 -0.6408 -0.2126
12674TIP3   OH259436   2.068   0.607   3.549  0.7340  0.3571 -0.1471
12674TIP3    H159437   2.116   0.613   3.466 -0.4042 -3.5591 -1.3304
12674TIP3    H259438   2.014   0.686   3.551  2.2512  1.5518 -2.1061
12675TIP3   OH259439   4.726   3.519   5.900  0.3701  0.1139  0.2562
12675TIP3    H159440   4.707   3.567   5.819  2.0923 -0.6959 -0.6804
12675TIP3    H259441   4.760   3.586   5.960  0.1510  0.5268 -0.0733
12676TIP3   OH259442   0.061   0.805  17.200  0.1231  0.0817  0.3258
12676TIP3    H159443   0.031   0.845  17.282 -1.3197  1.1411 -0.6498
12676TIP3    H259444   0.090   0.879  17.147 -0.1909 -0.4359 -0.5922
12677TIP3   OH259445   0.243   1.124  12.506 -0.0856  0.1975 -0.0703
12677TIP3    H159446   0.219   1.109  12.415  1.0948 -1.1429 -0.1912
12677TIP3    H259447   0.165   1.164  12.545 -1.1113 -0.5154 -1.3131
12678TIP3   OH259448   4.040   1.469  12.960  0.5727  0.4100  0.6701
12678TIP3    H159449   4.013   1.560  12.950  0.4756  0.4232  1.0654
12678TIP3    H259450   3.994   1.438  13.037 -0.5754 -0.4251 -0.3164
12679TIP3   OH259451   5.277   3.973   1.901 -0.1024  0.5771 -0.2117
12679TIP3    H159452   5.328   4.053   1.911  0.9324  0.0527 -1.1523
12679TIP3    H259453   5.328   3.919   1.841 -1.2457 -0.4066 -0.3347
12680TIP3   OH259454   4.896   1.130  15.401 -0.2394  0.6564 -0.0416
12680TIP3    H159455   4.969   1.069  15.402 -0.6153  0.1424 -1.5373
12680TIP3    H259456   4.935   1.215  15.422  0.5585  0.1814  0.4397
12681TIP3   OH259457   0.446   4.887  11.683  0.0050  0.4885 -0.1632
12681TIP3    H159458   0.393   4.871  11.605 -0.1065 -0.4937  0.0911
12681TIP3    H259459   0.461   4.799  11.719  0.4601  0.8925  0.6489
12682TIP3   OH259460   4.302   6.541  11.594 -0.7225  0.0449  0.4784
12682TIP3    H159461   4.335   6.564  11.681  1.0180 -1.5740  0.3199
12682TIP3    H259462   4.376   6.554  11.536 -1.8570  1.0840 -0.7964
12683TIP3   OH259463   4.818   4.892   3.817 -0.5058  0.3850 -0.2195
12683TIP3    H159464   4.874   4.871   3.743  0.0817 -0.9939  0.5883
12683TIP3    H259465   4.775   4.974   3.792  2.5671  2.0451 -0.4685
12684TIP3   OH259466   5.913   6.043   5.217  0.1061 -0.6021  0.5261
12684TIP3    H159467   5.907   5.988   5.139  0.3873  1.7836 -1.2827
12684TIP3    H259468   5.999   6.023   5.255  0.7427 -0.4928 -0.8272
12685TIP3   OH259469   3.519   3.225  15.422 -0.1281  0.1158  0.1818
12685TIP3    H159470   3.426   3.238  15.405 -0.5070 -1.0770  1.1306
12685TIP3    H259471   3.549   3.308  15.458 -1.5168 -0.2546  2.4652
12686TIP3   OH259472   2.924   3.761   6.909 -0.0886 -0.1896 -0.5421
12686TIP3    H159473   2.909   3.701   6.836  1.3426 -1.8955  0.4845
12686TIP3    H259474   2.998   3.724   6.955 -1.6297  0.1717  2.4601
12687TIP3   OH259475   5.542   0.841  15.527  0.2891  0.4900 -0.4120
12687TIP3    H159476   5.464   0.804  15.484  0.7463 -1.1616  0.1247
12687TIP3    H259477   5.614   0.785  15.498  1.2699  1.8777 -0.7407
12688TIP3   OH259478   0.463   4.625   1.371 -0.7243 -0.0129  0.3471
12688TIP3    H159479   0.556   4.646   1.360 -0.4459 -0.7597  1.1269
12688TIP3    H259480   0.420   4.709   1.382 -0.4881  0.5380 -2.1847
12689TIP3   OH259481   0.211   4.701  14.001 -0.4683 -0.2685  0.2618
12689TIP3    H159482   0.303   4.718  14.022  0.1220 -1.5282 -1.1247
12689TIP3    H259483   0.206   4.717  13.907 -1.1335 -2.3251 -0.0843
12690TIP3   OH259484   5.884   0.896   5.588  0.2652 -0.8560 -0.2724
12690TIP3    H159485   5.802   0.855   5.616  0.3926 -0.1659  1.2115
12690TIP3    H259486   5.863   0.990   5.586  0.8105 -0.7421 -0.6296
12691TIP3   OH259487   3.816   3.756  15.406 -0.2701 -0.3180  0.3307
12691TIP3    H159488   3.887   3.810  15.371 -1.1220  0.1219 -0.7715
12691TIP3    H259489   3.859   3.676  15.437  0.5451 -0.6518 -1.5644
12692TIP3   OH259490   5.684   0.826   2.434  0.2863  0.3982 -0.2193
12692TIP3    H159491   5.757   0.869   2.390  1.3597  0.0622  1.1614
12692TIP3    H259492   5.644   0.773   2.365  2.0884 -0.3542 -0.7678
12693TIP3   OH259493   5.555   0.348   6.036  0.0156  0.4756  0.0972
12693TIP3    H159494   5.564   0.390   6.122  0.4447 -0.3486  0.4650
12693TIP3    H259495   5.583   0.414   5.974 -1.4510  1.5101  0.4977
12694TIP3   OH259496   0.950   4.817  12.561 -0.2143  0.0304 -0.3342
12694TIP3    H159497   0.957   4.787  12.470  1.5203  0.8705 -0.5139
12694TIP3    H259498   1.010   4.891  12.567 -0.5281  0.1898  1.4306
12695TIP3   OH259499   5.425   5.109  16.466 -0.1462 -0.7066 -0.3780
12695TIP3    H159500   5.482   5.065  16.403  0.5212 -1.2025  0.5588
12695TIP3    H259501   5.352   5.141  16.413  0.4212 -1.0712 -1.4121
12696TIP3   OH259502   0.143   0.022   3.994 -0.0814 -0.2314  0.2678
12696TIP3    H159503   0.162   0.106   3.952 -1.1219 -0.7907 -1.4150
12696TIP3    H259504   0.066   0.039   4.049  1.1768  0.4600  1.9054
12697TIP3   OH259505   3.152   5.875   5.551  0.2808 -0.4051  0.3366
12697TIP3    H159506   3.074   5.919   5.517  1.3368  0.6583 -0.8350
12697TIP3    H259507   3.205   5.945   5.589 -0.0484 -1.3418  2.6793
12698TIP3   OH259508   6.082   0.648   5.200 -0.3514  0.6131  0.0795
12698TIP3    H159509   5.999   0.681   5.231  0.1538  0.7969  1.2896
12698TIP3    H259510   6.148   0.689   5.257  0.4262 -0.9508  0.3862
12699TIP3   OH259511   0.135   2.866  13.712 -0.2341 -0.0629  0.0662
12699TIP3    H159512   0.105   2.798  13.773  0.3665 -1.3837 -1.0625
12699TIP3    H259513   0.230   2.867  13.721 -0.2019  0.2830 -0.2847
12700TIP3   OH259514   5.183   5.437  13.871  0.4199  0.5135  0.9190
12700TIP3    H159515   5.140   5.386  13.803  1.4629  0.2530  0.4298
12700TIP3    H259516   5.250   5.378  13.907  0.4775  0.9484  1.5528
12701TIP3   OH259517   2.374   4.344  11.864 -0.3777  0.1063 -0.1813
12701TIP3    H159518   2.283   4.368  11.846  0.0501  0.9518 -1.3630
12701TIP3    H259519   2.369   4.254  11.895 -1.6661  0.3321  0.3367
12702TIP3   OH259520   1.577   5.471  16.721 -0.4711 -0.1546 -0.2727
12702TIP3    H159521   1.574   5.379  16.747 -3.0437 -0.0949 -0.0840
12702TIP3    H259522   1.626   5.514  16.791 -0.1152 -1.2184  0.1520
12703TIP3   OH259523   1.095   4.580  12.498  0.2484 -0.3037 -0.5242
12703TIP3    H159524   1.181   4.622  12.495 -0.7610  1.8876 -1.2214
12703TIP3    H259525   1.067   4.590  12.589  0.6138 -0.7560 -0.3629
12704TIP3   OH259526   6.261   2.274   3.034 -0.0825  0.2110 -0.1504
12704TIP3    H159527   6.259   2.368   3.050 -0.9297  0.3612 -1.0600
12704TIP3    H259528   6.243   2.265   2.940  1.3583 -0.7946 -0.3511
12705TIP3   OH259529   3.729   6.449   2.701 -0.2315 -0.7618  0.4659
12705TIP3    H159530   3.671   6.374   2.714 -0.1935 -0.6572  1.2509
12705TIP3    H259531   3.816   6.410   2.688  0.1215 -0.8123  2.7187
12706TIP3   OH259532   3.494   0.938  14.182 -0.3911  0.0048 -0.4942
12706TIP3    H159533   3.458   0.850  14.184 -0.6566  0.1206 -0.1565
12706TIP3    H259534   3.562   0.934  14.115  0.0726 -0.6416  0.0029
12707TIP3   OH259535   6.688   5.592   0.303  0.2252 -0.0012  0.4722
12707TIP3    H159536   6.755   5.526   0.282 -1.8825 -2.2885  0.5102
12707TIP3    H259537   6.633   5.550   0.369 -1.6631  1.5325 -0.0539
12708TIP3   OH259538   1.009   3.398   7.289 -0.2531 -0.0989  0.1234
12708TIP3    H159539   1.016   3.338   7.214 -3.4305 -0.7571  0.2214
12708TIP3    H259540   1.066   3.472   7.265 -0.4096 -0.7193 -2.5297
12709TIP3   OH259541   2.888   1.451  13.494  0.0605  0.2724  0.2313
12709TIP3    H159542   2.821   1.425  13.431 -1.6197  2.7237  0.8431
12709TIP3    H259543   2.889   1.380  13.559 -3.7981  1.1201  1.5173
12710TIP3   OH259544   3.567   4.779   5.172  0.2377  0.0035  0.2343
12710TIP3    H159545   3.493   4.719   5.179  0.5906 -0.3122  1.4599
12710TIP3    H259546   3.555   4.841   5.243  1.3003 -0.2248  0.6382
12711TIP3   OH259547   0.477   4.371   5.356 -0.5359 -0.5827  0.0041
12711TIP3    H159548   0.505   4.373   5.265 -0.9809 -0.3236 -0.1328
12711TIP3    H259549   0.558   4.359   5.406 -0.1863  0.0831 -0.3794
12712TIP3   OH259550   6.663   4.300   2.131  0.0789  0.6730 -0.3369
12712TIP3    H159551   6.651   4.210   2.160  0.3329  0.2988 -1.3460
12712TIP3    H259552   6.574   4.331   2.110  0.1265  0.1700 -1.3435
12713TIP3   OH259553   5.701   3.519  14.045 -0.2959  0.1101  0.1459
12713TIP3    H159554   5.757   3.594  14.023  1.7407 -0.8140  1.9008
12713TIP3    H259555   5.762   3.447  14.062 -2.1673 -2.2400 -2.1149
12714TIP3   OH259556   1.500   4.097   1.529 -0.0046  0.0819  0.0583
12714TIP3    H159557   1.550   4.156   1.585 -0.4691  0.9343 -0.4144
12714TIP3    H259558   1.465   4.152   1.460 -1.2010 -0.5718  0.0993
12715TIP3   OH259559   0.615   0.945  15.241 -0.4127 -0.9018 -0.0478
12715TIP3    H159560   0.670   0.889  15.185 -0.4750 -1.8635  0.8184
12715TIP3    H259561   0.674   0.972  15.311 -0.0937  1.0099 -0.9890
12716TIP3   OH259562   2.215   5.041   3.352 -0.3825 -0.1484 -0.2653
12716TIP3    H159563   2.223   5.131   3.323  1.3451 -0.5077 -1.0292
12716TIP3    H259564   2.265   5.038   3.434  0.0710 -0.5431 -0.5554
12717TIP3   OH259565   3.257   4.758   4.021  0.3343 -0.3833  0.5328
12717TIP3    H159566   3.246   4.853   4.035 -0.5782 -0.5509  1.0706
12717TIP3    H259567   3.268   4.749   3.926 -1.7630  0.1014  0.1823
12718TIP3   OH259568   3.784   1.726  10.883 -0.3161 -0.1356 -0.1766
12718TIP3    H159569   3.711   1.770  10.839  0.6304  0.7066 -0.9516
12718TIP3    H259570   3.818   1.792  10.943 -0.8904 -0.9103  1.0226
12719TIP3   OH259571   4.653   3.624   4.453  0.1130  0.0213 -0.1516
12719TIP3    H159572   4.658   3.670   4.536  0.4156 -1.0367  0.4354
12719TIP3    H259573   4.680   3.689   4.388 -0.8320  1.0767  0.4770
12720TIP3   OH259574   2.967   0.804   1.350 -0.1469  0.0565 -0.4416
12720TIP3    H159575   2.872   0.797   1.341 -0.4199  1.0642  1.1747
12720TIP3    H259576   2.998   0.828   1.263 -1.4626  0.3550 -0.8519
12721TIP3   OH259577   4.478   1.646  14.946 -0.0935  0.3809 -0.1347
12721TIP3    H159578   4.452   1.630  15.036 -0.7181 -1.3512 -0.5818
12721TIP3    H259579   4.433   1.727  14.921  0.6880  1.3006  1.3047
12722TIP3   OH259580   1.885   1.411  12.119  0.1890  0.1407  0.1431
12722TIP3    H159581   1.845   1.448  12.199 -0.5860 -0.7996  0.2108
12722TIP3    H259582   1.810   1.393  12.062  0.7770  1.3209 -1.0459
12723TIP3   OH259583   1.408   6.627  13.512 -0.3888  0.0483  0.4060
12723TIP3    H159584   1.426   6.699  13.452  1.5671 -0.6854  0.0408
12723TIP3    H259585   1.465   6.556  13.482 -1.6283 -1.3791  1.2785
12724TIP3   OH259586   3.905   3.124   5.887  0.5612 -0.0668 -0.0254
12724TIP3    H159587   3.997   3.131   5.863  0.6989  0.1948  0.5772
12724TIP3    H259588   3.877   3.215   5.899  0.4420 -0.1849  0.6073
12725TIP3   OH259589   4.662   1.316   3.128 -0.2801 -0.1553 -0.6138
12725TIP3    H159590   4.719   1.285   3.058  1.5963 -1.2407  1.2802
12725TIP3    H259591   4.591   1.252   3.133 -1.6005  0.9985 -2.7283
12726TIP3   OH259592   1.912   4.969   5.764  0.2511 -0.1180 -0.2347
12726TIP3    H159593   1.916   4.923   5.681  0.1828 -0.2896 -0.1438
12726TIP3    H259594   1.829   5.018   5.761  0.7945  0.7982 -0.7446
12727TIP3   OH259595   3.336   2.214  15.436 -0.1382  0.4757  0.1870
12727TIP3    H159596   3.278   2.215  15.360 -0.6914  0.7953  0.6046
12727TIP3    H259597   3.315   2.133  15.482  0.0755  0.3668  0.0973
12728TIP3   OH259598   3.352   5.830  11.455  0.7320  0.2290 -0.0670
12728TIP3    H159599   3.326   5.791  11.538  0.4678  1.6931  0.5674
12728TIP3    H259600   3.299   5.784  11.389  0.2886 -0.3228  0.6583
12729TIP3   OH259601   3.014   2.145   3.705 -0.4739 -0.4916 -0.6634
12729TIP3    H159602   2.952   2.083   3.667  0.1821 -0.8563 -1.1668
12729TIP3    H259603   3.079   2.089   3.748 -1.5243 -0.1032  1.6213
12730TIP3   OH259604   2.071   5.794  13.094 -0.0426  0.5564 -0.4453
12730TIP3    H159605   2.114   5.783  13.179 -2.0391  1.2254  0.7212
12730TIP3    H259606   1.989   5.746  13.103 -0.7542  1.5044 -1.6291
12731TIP3   OH259607   3.993   4.042   3.126  0.3631  0.0557 -0.0193
12731TIP3    H159608   3.898   4.052   3.135  0.4883  1.7307 -0.2421
12731TIP3    H259609   4.030   4.106   3.187  1.3242  0.6473 -1.1804
12732TIP3   OH259610   5.578   0.368   2.371  0.5394 -0.2134 -0.1801
12732TIP3    H159611   5.640   0.399   2.305  1.2261  1.0440  0.9905
12732TIP3    H259612   5.631   0.357   2.450 -0.7435  1.1122  0.9141
12733TIP3   OH259613   5.563   3.944  13.385 -0.3710  0.2264 -0.4315
12733TIP3    H159614   5.621   3.923  13.459  0.8395  2.2371 -0.7275
12733TIP3    H259615   5.593   3.888  13.314  0.8217  0.7567 -0.3793
12734TIP3   OH259616   2.313   2.598  14.662 -0.0409 -0.0409 -0.5057
12734TIP3    H159617   2.377   2.550  14.609 -1.2975 -1.3559 -0.9032
12734TIP3    H259618   2.253   2.636  14.598 -0.1354  0.4994 -0.1039
12735TIP3   OH259619   0.151   3.646  16.075 -0.0115  0.0056 -0.3405
12735TIP3    H159620   0.114   3.583  16.012  0.4998 -1.9495  1.2291
12735TIP3    H259621   0.237   3.612  16.096 -0.6038 -0.0961  2.2963
12736TIP3   OH259622   5.435   6.726  13.930 -0.2025  0.6475 -0.0778
12736TIP3    H159623   5.437   6.703  14.023 -0.6094  3.1156  0.6143
12736TIP3    H259624   5.367   6.793  13.924 -2.0537 -1.3154 -2.6594
12737TIP3   OH259625   1.443   3.770  13.665  0.2627  0.3420 -0.4983
12737TIP3    H159626   1.524   3.802  13.705 -0.2193 -0.6392  1.3569
12737TIP3    H259627   1.374   3.818  13.710 -0.3037 -0.8643 -0.0383
12738TIP3   OH259628   0.565   5.355   3.486 -0.4521 -0.0005  0.0517
12738TIP3    H159629   0.485   5.407   3.478 -0.4925 -0.0250  0.2920
12738TIP3    H259630   0.581   5.322   3.398 -0.4324  0.4106 -0.1001
12739TIP3   OH259631   3.106   2.231  14.581 -0.4724 -0.1163  0.1630
12739TIP3    H159632   3.032   2.286  14.604 -0.5533 -0.4655  0.7608
12739TIP3    H259633   3.067   2.156  14.535 -0.4035  0.1175 -0.2806
12740TIP3   OH259634   4.829   3.479   2.293 -0.2919 -0.5046  0.5158
12740TIP3    H159635   4.897   3.456   2.357 -1.0888 -0.0444  1.5623
12740TIP3    H259636   4.822   3.574   2.299  1.0689 -0.1612 -1.8095
12741TIP3   OH259637   6.348   5.093  15.016  0.5080  0.0674 -0.1134
12741TIP3    H159638   6.440   5.083  14.990  0.4620  0.3498 -0.3977
12741TIP3    H259639   6.345   5.176  15.063  0.9686 -1.3330  2.6102
12742TIP3   OH259640   2.415   5.343  11.342  0.1181 -0.2655 -0.1827
12742TIP3    H159641   2.508   5.327  11.357  0.0218 -0.8870 -0.2520
12742TIP3    H259642   2.405   5.344  11.247  0.0474 -0.2160 -0.1757
12743TIP3   OH259643   5.488   2.251  16.942 -0.0386  0.1789  0.5404
12743TIP3    H159644   5.441   2.291  17.015  0.1712  0.7078  0.3834
12743TIP3    H259645   5.495   2.320  16.876 -0.2442 -0.3008  0.0074
12744TIP3   OH259646   2.514   4.820  15.070 -0.3447 -0.2113  0.3960
12744TIP3    H159647   2.549   4.907  15.091 -2.3055  0.3740  1.4603
12744TIP3    H259648   2.434   4.838  15.019 -0.5247 -1.4183  0.2289
12745TIP3   OH259649   5.322   3.256   5.076  0.1651  0.2634  0.0678
12745TIP3    H159650   5.373   3.177   5.091  0.9993  1.2784  3.6554
12745TIP3    H259651   5.386   3.327   5.082 -0.9546  1.3420 -0.3190
12746TIP3   OH259652   3.611   6.759   1.917  0.4092  0.1060 -0.1464
12746TIP3    H159653   3.691   6.712   1.941  0.8174  0.5365 -0.6633
12746TIP3    H259654   3.581   6.797   2.000 -0.0353 -1.2116  0.3207
12747TIP3   OH259655   4.322   4.974  14.185  0.0766 -0.6437 -0.0837
12747TIP3    H159656   4.395   5.021  14.144  0.2304 -0.4341  0.4195
12747TIP3    H259657   4.361   4.932  14.262 -0.5226  0.2671  0.7456
12748TIP3   OH259658   1.217   1.821   3.041 -0.1218 -0.0731 -0.1799
12748TIP3    H159659   1.257   1.906   3.058 -0.3175  0.0672 -0.4323
12748TIP3    H259660   1.156   1.808   3.114  0.9636 -0.6513  0.6582
12749TIP3   OH259661   6.011   5.416   3.453  0.4139 -0.0085 -0.1620
12749TIP3    H159662   6.065   5.416   3.374  0.4384 -1.4235 -0.1721
12749TIP3    H259663   6.050   5.350   3.509 -1.4019 -1.2362 -0.2652
12750TIP3   OH259664   4.207   4.379   0.954  0.8122  0.4738  0.8673
12750TIP3    H159665   4.195   4.287   0.978  0.7468  0.4388  0.7026
12750TIP3    H259666   4.212   4.425   1.038  3.0154  0.0657  1.0145
12751TIP3   OH259667   1.472   5.131   3.418 -0.3007 -0.5287  0.6693
12751TIP3    H159668   1.547   5.176   3.456 -0.4119  1.3540 -1.1492
12751TIP3    H259669   1.400   5.148   3.479  0.0717  0.2946  0.8861
12752TIP3   OH259670   5.184   2.359   3.550  0.1008  0.0311 -0.1024
12752TIP3    H159671   5.255   2.342   3.612  0.7855  0.2537 -0.8107
12752TIP3    H259672   5.201   2.447   3.517  0.6924 -0.6422 -1.7682
12753TIP3   OH259673   2.601   0.941  17.049 -0.3791  0.4737 -0.2432
12753TIP3    H159674   2.645   0.877  16.994  0.0598  1.2985 -0.8907
12753TIP3    H259675   2.582   1.014  16.989 -0.9561  0.9032  0.4457
12754TIP3   OH259676   4.134   1.268   0.046  0.0659 -0.3821 -0.0480
12754TIP3    H159677   4.224   1.235   0.050 -0.1715 -1.2319 -1.0719
12754TIP3    H259678   4.080   1.189   0.037 -0.7939  0.1130  0.6320
12755TIP3   OH259679   2.994   3.900   0.909 -0.3320  0.4174 -0.2983
12755TIP3    H159680   3.003   3.965   0.840 -0.8031 -1.2081 -1.9756
12755TIP3    H259681   2.899   3.892   0.922 -0.2404  0.8682  0.7137
12756TIP3   OH259682   0.992   1.501  15.002  0.2161  0.2867 -0.0440
12756TIP3    H159683   0.968   1.478  15.092  0.2207 -0.3136 -0.1923
12756TIP3    H259684   0.973   1.595  14.995 -2.1435 -0.1291 -0.1382
12757TIP3   OH259685   4.513   3.132   1.377 -0.1453  0.2059  0.2868
12757TIP3    H159686   4.443   3.175   1.328 -0.6268 -1.8080 -0.8794
12757TIP3    H259687   4.553   3.071   1.315  1.1857 -0.3081  1.5757
12758TIP3   OH259688   2.133   6.502  13.974  0.3147 -0.3511 -0.3293
12758TIP3    H159689   2.138   6.596  13.990  1.0006 -0.4652  0.1840
12758TIP3    H259690   2.047   6.489  13.934 -1.5407  0.0130  3.1531
12759TIP3   OH259691   0.118   4.950   3.403 -0.3672  0.4140  0.1393
12759TIP3    H159692   0.203   4.991   3.416 -0.1277  0.3019 -0.9569
12759TIP3    H259693   0.138   4.863   3.369 -0.9141  0.7394 -1.0775
12760TIP3   OH259694   5.963   3.683  12.754 -0.1047 -0.3371  0.8377
12760TIP3    H159695   5.888   3.741  12.766  0.9083  1.3757 -0.5093
12760TIP3    H259696   5.933   3.616  12.693 -0.4151  0.6688 -0.1611
12761TIP3   OH259697   0.699   1.770  11.974 -0.0746 -0.4668 -0.8029
12761TIP3    H159698   0.641   1.771  11.898  0.0746 -1.9722 -0.9875
12761TIP3    H259699   0.744   1.854  11.971  1.1219 -1.0771 -3.3704
12762TIP3   OH259700   2.808   3.121  11.607 -0.4931  0.1243 -0.6449
12762TIP3    H159701   2.870   3.171  11.554  0.1123 -1.2688 -1.2767
12762TIP3    H259702   2.814   3.031  11.575 -1.8546 -0.3096  0.1996
12763TIP3   OH259703   4.197   0.399  13.028  0.6529  0.0059 -0.2947
12763TIP3    H159704   4.257   0.423  12.957  0.6288  0.5411 -0.1378
12763TIP3    H259705   4.156   0.482  13.053 -1.1078 -0.5355 -1.2570
12764TIP3   OH259706   5.019   3.112  14.566 -0.2529 -0.7350  0.1318
12764TIP3    H159707   5.014   3.034  14.511 -2.2915 -0.6785  0.1547
12764TIP3    H259708   4.972   3.088  14.646  0.1740  0.1258  0.6541
12765TIP3   OH259709   4.687   1.429  16.168  0.0034 -0.8379  0.0395
12765TIP3    H159710   4.608   1.383  16.197 -1.4608 -0.4805 -2.9728
12765TIP3    H259711   4.654   1.507  16.124  2.1467  0.0966 -0.0182
12766TIP3   OH259712   1.789   0.640   2.755  0.1899 -0.2539 -0.2009
12766TIP3    H159713   1.792   0.585   2.677  0.5385 -0.8412  0.2242
12766TIP3    H259714   1.804   0.729   2.722 -0.3648 -0.4050 -0.8877
12767TIP3   OH259715   6.630   3.299   1.446  0.1220 -0.0146 -0.3577
12767TIP3    H159716   6.682   3.376   1.466 -1.4405  0.8785  0.5162
12767TIP3    H259717   6.554   3.305   1.505 -1.5872 -0.5842 -2.3568
12768TIP3   OH259718   0.630   2.551  16.021 -0.5738 -0.3396  0.0479
12768TIP3    H159719   0.669   2.549  15.933  1.6212  0.6224  0.9207
12768TIP3    H259720   0.639   2.462  16.053  0.5039 -0.2499  0.0299
12769TIP3   OH259721   4.098   4.926  13.220 -0.2815  0.7766  0.3951
12769TIP3    H159722   4.059   4.946  13.305  0.2096 -0.7563  1.0058
12769TIP3    H259723   4.190   4.949  13.229 -0.1110  0.0777  0.4749
12770TIP3   OH259724   1.390   2.497   1.820  0.7377  0.1499 -0.4660
12770TIP3    H159725   1.385   2.418   1.874  1.0445  0.8399  0.6104
12770TIP3    H259726   1.434   2.469   1.740 -0.6225 -1.1246 -0.8177
12771TIP3   OH259727   5.499   1.778  16.588 -0.3416 -0.0801 -0.3737
12771TIP3    H159728   5.539   1.753  16.504  1.1780 -1.8440  0.7880
12771TIP3    H259729   5.559   1.744  16.654 -2.9350 -1.4209  1.5000
12772TIP3   OH259730   5.877   5.315  12.318  0.1308  0.1174 -0.6385
12772TIP3    H159731   5.970   5.331  12.303  0.8886 -0.4141  2.7806
12772TIP3    H259732   5.849   5.266  12.241  1.9628  2.4794 -3.0024
12773TIP3   OH259733   3.340   5.953  15.866 -0.0610 -0.6506 -0.0522
12773TIP3    H159734   3.371   5.911  15.946  1.2012 -0.0931 -0.2352
12773TIP3    H259735   3.247   5.930  15.862 -0.0676 -0.9624  1.3880
12774TIP3   OH259736   6.416   2.798  16.748 -0.5889  0.1870 -0.3554
12774TIP3    H159737   6.360   2.725  16.775 -1.4033  0.6792 -0.6737
12774TIP3    H259738   6.359   2.853  16.694 -0.0530  1.1797  0.0673
12775TIP3   OH259739   3.635   3.566  14.390  0.0792  0.0739  0.2094
12775TIP3    H159740   3.560   3.616  14.423  0.8662 -0.2485  2.6660
12775TIP3    H259741   3.695   3.632  14.356  0.0128  0.6231  1.1172
12776TIP3   OH259742   4.749   2.404  14.265  0.6606 -0.9731 -0.0405
12776TIP3    H159743   4.816   2.447  14.317 -0.0984 -0.9410  0.9385
12776TIP3    H259744   4.744   2.315  14.300 -1.4498 -0.3024  1.5643
12777TIP3   OH259745   5.436   0.147   3.694 -0.2870  0.4195 -0.3118
12777TIP3    H159746   5.472   0.059   3.691 -0.0430  0.4877  0.3246
12777TIP3    H259747   5.512   0.205   3.685  0.1453  0.5953  3.0740
12778TIP3   OH259748   2.224   4.874   5.637  0.3738 -0.5513  0.1706
12778TIP3    H159749   2.173   4.794   5.644  1.7242 -1.5427 -0.7451
12778TIP3    H259750   2.159   4.943   5.622 -0.7724 -1.5458  0.4476
12779TIP3   OH259751   2.940   2.014   4.960  0.0521  0.1367 -0.4253
12779TIP3    H159752   2.885   2.013   4.881 -1.1515  0.1270  0.3874
12779TIP3    H259753   2.922   2.098   5.000 -1.3100 -0.8574  1.1580
12780TIP3   OH259754   1.933   5.897  14.573 -0.0836  0.5649  0.0960
12780TIP3    H159755   1.938   5.871  14.665  1.3351  0.0079 -0.1046
12780TIP3    H259756   1.942   5.815  14.525 -2.7853  0.5888 -0.5765
12781TIP3   OH259757   1.022   1.532   4.970  0.3361 -0.2507 -0.1551
12781TIP3    H159758   1.080   1.467   4.930  3.2126  0.9316  1.7844
12781TIP3    H259759   0.969   1.481   5.032 -1.6813 -1.5198 -2.7216
12782TIP3   OH259760   0.672   5.545  13.505 -0.2889  0.6117  0.3731
12782TIP3    H159761   0.590   5.542  13.554 -0.0205 -2.5104  0.8578
12782TIP3    H259762   0.741   5.544  13.572  0.0677 -1.8844  0.0884
12783TIP3   OH259763   5.309   4.876   4.816  0.3100 -0.0858 -0.7915
12783TIP3    H159764   5.260   4.838   4.889  0.5466 -0.1719 -0.6791
12783TIP3    H259765   5.399   4.880   4.847  0.5354 -0.8014 -1.3571
12784TIP3   OH259766   5.347   4.871   1.913  0.4202  0.1676  0.2499
12784TIP3    H159767   5.380   4.804   1.973 -1.4981 -1.5343 -0.4505
12784TIP3    H259768   5.251   4.865   1.922  0.1635  1.7064 -1.0515
12785TIP3   OH259769   5.059   2.271  10.350  0.3820 -0.0770 -0.0566
12785TIP3    H159770   4.968   2.301  10.344  0.8169  1.0983 -1.0365
12785TIP3    H259771   5.073   2.260  10.444 -0.8318 -0.4919  0.1011
12786TIP3   OH259772   3.782   4.144   4.553 -0.1474  0.4839 -0.4661
12786TIP3    H159773   3.727   4.147   4.632 -0.0566  2.9775 -0.3926
12786TIP3    H259774   3.776   4.054   4.523 -3.7124  0.4083 -0.0586
12787TIP3   OH259775   6.738   5.276   5.968  0.1841 -0.3504  0.1893
12787TIP3    H159776   6.710   5.365   5.991  0.0848 -0.3204 -0.0530
12787TIP3    H259777   6.687   5.220   6.026 -0.4418 -0.3016 -0.3111
12788TIP3   OH259778   0.824   6.387   2.912  0.3672  0.4721  0.5194
12788TIP3    H159779   0.828   6.482   2.899 -1.5256  0.5579  0.3539
12788TIP3    H259780   0.845   6.375   3.005  1.1029  0.9891  0.4328
12789TIP3   OH259781   6.387   4.648  17.105  0.7362  0.3167  0.1182
12789TIP3    H159782   6.418   4.585  17.170  0.6050  0.7282  0.5875
12789TIP3    H259783   6.313   4.691  17.147 -0.2364 -0.3690 -0.8254
12790TIP3   OH259784   1.043   0.360  14.204  0.2073  0.6143 -0.0685
12790TIP3    H159785   1.137   0.345  14.214  0.0880  0.7862  1.7524
12790TIP3    H259786   1.033   0.455  14.213 -0.1869  0.5299  0.4427
12791TIP3   OH259787   4.159   5.126   4.192  0.0281 -0.3191  0.6550
12791TIP3    H159788   4.121   5.109   4.278 -1.8114 -0.6847 -0.1815
12791TIP3    H259789   4.160   5.221   4.184 -0.1889 -0.2915  0.9289
12792TIP3   OH259790   4.355   4.142  13.041  0.1262  0.4351  0.8096
12792TIP3    H159791   4.295   4.182  13.103 -0.2298  0.0877  0.6960
12792TIP3    H259792   4.335   4.186  12.957  1.3662  1.6948  1.1400
12793TIP3   OH259793   4.275   4.888  12.794  0.2219 -0.3988  0.5380
12793TIP3    H159794   4.260   4.878  12.700 -1.2367  0.1879  0.6855
12793TIP3    H259795   4.321   4.808  12.820  0.4248 -0.6714 -0.6292
12794TIP3   OH259796   2.622   4.669  16.085  0.2442  0.8084  0.4969
12794TIP3    H159797   2.558   4.659  16.014  0.0431  3.0417  0.2932
12794TIP3    H259798   2.705   4.683  16.040  0.9361 -1.9391  0.7620
12795TIP3   OH259799   1.834   6.073   0.798 -0.0677  0.3916 -0.7049
12795TIP3    H159800   1.774   6.042   0.866  0.1737 -3.0696 -1.8333
12795TIP3    H259801   1.793   6.151   0.762 -0.6769  1.7660  2.6535
12796TIP3   OH259802   5.504   0.330  12.401  0.1235 -0.6011  1.1580
12796TIP3    H159803   5.438   0.261  12.404  0.5241 -0.9492  3.3173
12796TIP3    H259804   5.587   0.285  12.417  0.5015  0.2465  1.6356
12797TIP3   OH259805   2.461   3.348   3.051 -0.6886  0.0730 -0.3425
12797TIP3    H159806   2.555   3.347   3.070 -0.5786  0.0184 -0.8857
12797TIP3    H259807   2.438   3.441   3.051 -0.9769  0.0459  1.3990
12798TIP3   OH259808   3.671   5.100   6.540 -0.6669  0.2271 -0.5131
12798TIP3    H159809   3.600   5.117   6.600 -2.3778 -2.8331 -1.4271
12798TIP3    H259810   3.750   5.102   6.594 -1.4294  3.0048  0.6536
12799TIP3   OH259811   1.658   0.119  12.931 -0.0068  0.7606  0.2018
12799TIP3    H159812   1.568   0.119  12.965  0.5591  1.9968  1.8246
12799TIP3    H259813   1.656   0.056  12.859 -1.7185 -0.7568  1.4555
12800TIP3   OH259814   0.204   1.652  15.176  0.1829  0.4904  0.2792
12800TIP3    H159815   0.267   1.599  15.224 -0.9134 -1.1174  0.0412
12800TIP3    H259816   0.225   1.742  15.199  0.7543 -0.1495  2.4215
12801TIP3   OH259817   1.336   3.956   1.292 -0.0652  0.7584  0.0352
12801TIP3    H159818   1.372   3.868   1.280  1.7071  1.7038 -2.4397
12801TIP3    H259819   1.397   3.998   1.354  0.0922  0.7743 -0.1301
12802TIP3   OH259820   0.205   1.715  16.519 -0.4663  0.1362  0.5680
12802TIP3    H159821   0.179   1.718  16.427 -0.3499 -0.8679  0.4942
12802TIP3    H259822   0.178   1.628  16.549 -1.6336  0.8802  1.8229
12803TIP3   OH259823   1.930   1.879   3.183 -0.0829 -0.2992 -0.1038
12803TIP3    H159824   1.944   1.896   3.276  0.9419  1.5511 -0.5472
12803TIP3    H259825   1.966   1.791   3.169  1.4122  0.1179  0.9117
12804TIP3   OH259826   3.232   4.506  12.996  0.0847 -0.6600 -0.1121
12804TIP3    H159827   3.265   4.450  12.925  0.2928 -0.6276 -0.0415
12804TIP3    H259828   3.139   4.483  13.003  0.1487 -0.9289 -0.1472
12805TIP3   OH259829   2.184   4.821  11.111  0.1182  0.7579 -0.5045
12805TIP3    H159830   2.181   4.908  11.150 -2.3625 -0.3949  2.3279
12805TIP3    H259831   2.258   4.778  11.154  0.0648  0.8303 -0.3387
12806TIP3   OH259832   2.867   3.618  13.811  0.0104 -0.3167  0.2267
12806TIP3    H159833   2.867   3.666  13.894  0.4331 -1.0507  0.6638
12806TIP3    H259834   2.855   3.526  13.837  0.8907 -0.6365 -0.4732
12807TIP3   OH259835   4.652   2.983   5.792  0.1269 -0.2184 -0.3056
12807TIP3    H159836   4.629   3.072   5.817 -1.5517 -1.1346  1.8227
12807TIP3    H259837   4.743   2.972   5.819  0.3874  0.8611 -0.7177
12808TIP3   OH259838   0.041   0.263  14.454  0.1875  0.1234  0.2879
12808TIP3    H159839  -0.007   0.237  14.532  2.4731 -0.2809  1.6601
12808TIP3    H259840   0.076   0.180  14.419  1.2495  0.5563  0.2962
12809TIP3   OH259841   2.830   0.622   6.297  0.5040  0.1186 -0.2436
12809TIP3    H159842   2.799   0.557   6.234  2.0820  1.1394 -2.1897
12809TIP3    H259843   2.755   0.680   6.311 -0.1565 -0.6874 -0.3973
12810TIP3   OH259844   2.530   1.833  13.237  0.2957 -0.0162  0.2025
12810TIP3    H159845   2.543   1.765  13.171 -0.5871 -0.2190  0.2195
12810TIP3    H259846   2.618   1.858  13.265  0.6521 -0.3498 -0.6207
12811TIP3   OH259847   1.495   4.610   2.336 -0.5687 -0.1326 -0.1955
12811TIP3    H159848   1.449   4.526   2.341 -1.1777  0.1346 -1.1718
12811TIP3    H259849   1.550   4.603   2.257  0.2576 -0.0388  0.3540
12812TIP3   OH259850   5.130   2.981   4.743  0.0365  0.0300  0.2070
12812TIP3    H159851   5.115   2.983   4.838  1.3863  1.4506  0.4316
12812TIP3    H259852   5.189   3.055   4.726 -0.0904 -0.2523 -1.7364
12813TIP3   OH259853   2.468   2.022   0.219 -0.0724 -1.0011 -0.5043
12813TIP3    H159854   2.376   2.000   0.235 -0.8986  1.8169 -0.8536
12813TIP3    H259855   2.471   2.049   0.127  1.0506 -0.7455 -0.4138
12814TIP3   OH259856   6.549   1.362   1.489 -0.9699  0.0902 -0.4965
12814TIP3    H159857   6.593   1.331   1.410 -0.7393 -0.1338 -0.2804
12814TIP3    H259858   6.487   1.292   1.511 -1.0838  0.1836 -0.5151
12815TIP3   OH259859   0.066   4.011  12.817  0.2207  0.4710 -0.3621
12815TIP3    H159860  -0.003   3.945  12.817  0.8171 -0.1824  0.8072
12815TIP3    H259861   0.105   4.006  12.730 -0.4428  0.0446 -0.6379
12816TIP3   OH259862   3.359   1.881   5.192  0.5088 -0.5973 -0.5874
12816TIP3    H159863   3.352   1.971   5.158 -0.6126 -0.9755 -1.4075
12816TIP3    H259864   3.449   1.875   5.224  0.6540  0.7704 -0.6543
12817TIP3   OH259865   2.011   2.050  16.320  0.5206 -0.1774  0.3602
12817TIP3    H159866   1.993   2.143  16.327  1.4104  0.0267  0.1412
12817TIP3    H259867   2.002   2.030  16.227  1.3307 -0.0781  0.2522
12818TIP3   OH259868   2.410   6.683   6.060  0.6351 -0.6465  0.0714
12818TIP3    H159869   2.437   6.607   6.008 -0.1707  0.4405 -2.0493
12818TIP3    H259870   2.477   6.749   6.042  0.7273 -0.4643  1.0195
12819TIP3   OH259871   4.578   4.824  16.406  0.2248  0.2092 -0.4225
12819TIP3    H159872   4.525   4.820  16.486 -1.6079 -0.7326 -1.6183
12819TIP3    H259873   4.655   4.771  16.425  0.6866  1.3980  1.2720
12820TIP3   OH259874   5.834   3.893  11.095  0.5741 -0.5575 -0.4391
12820TIP3    H159875   5.759   3.952  11.088  0.9300 -0.1369 -0.7559
12820TIP3    H259876   5.910   3.951  11.106  0.7088 -1.0171  1.2686
12821TIP3   OH259877   3.992   3.947  15.289  0.2254  0.0775 -0.5901
12821TIP3    H159878   4.039   4.009  15.345 -0.5479  0.2667 -0.1296
12821TIP3    H259879   4.027   3.963  15.201  1.5727 -0.3344 -0.1584
12822TIP3   OH259880   2.839   5.619  16.422  0.0687  0.1033  0.2532
12822TIP3    H159881   2.889   5.672  16.360 -0.7186  1.8814  1.0833
12822TIP3    H259882   2.905   5.584  16.482  0.7031 -0.6937 -0.8615
12823TIP3   OH259883   3.011   6.731   3.287 -0.8418  0.0697  0.6824
12823TIP3    H159884   3.020   6.647   3.333 -4.7129 -0.0405  1.6033
12823TIP3    H259885   2.956   6.784   3.345  0.5862  2.8893 -0.3782
12824TIP3   OH259886   4.682   4.556   4.304 -0.3033  0.4958 -0.2998
12824TIP3    H159887   4.672   4.542   4.210  0.2059  0.6118 -0.3697
12824TIP3    H259888   4.749   4.624   4.312 -2.1610  2.4196  0.0466
12825TIP3   OH259889   6.278   4.669   0.743 -0.4027 -0.3761  0.8270
12825TIP3    H159890   6.313   4.672   0.832 -0.8040 -0.6740  0.9962
12825TIP3    H259891   6.355   4.679   0.687 -0.2556  0.8450  1.2084
12826TIP3   OH259892   5.821   4.861   0.453  0.4424 -0.0899  0.4721
12826TIP3    H159893   5.904   4.907   0.463  0.4489 -0.0778  0.3647
12826TIP3    H259894   5.843   4.780   0.408  0.5025 -0.4276  1.1073
12827TIP3   OH259895   4.173   4.559  12.626  0.3792 -0.0625  0.1940
12827TIP3    H159896   4.130   4.563  12.711  0.0274 -0.3109  0.0285
12827TIP3    H259897   4.265   4.581  12.645  0.3410 -0.2903  0.6635
12828TIP3   OH259898   1.750   6.136  14.633 -0.2011  0.3055 -0.3863
12828TIP3    H159899   1.666   6.145  14.589  0.1877  2.2216 -0.8045
12828TIP3    H259900   1.815   6.156  14.566  0.5928 -0.6659  0.0601
12829TIP3   OH259901   4.393   3.824   5.547  0.2244 -0.2347  0.5369
12829TIP3    H159902   4.387   3.913   5.584 -0.7599 -0.7085  1.5746
12829TIP3    H259903   4.404   3.768   5.623  1.9781 -0.9351 -0.1906
12830TIP3   OH259904   1.754   5.178   2.803  0.2299 -0.5806 -0.3748
12830TIP3    H159905   1.688   5.191   2.735 -0.8194 -0.0685  0.7239
12830TIP3    H259906   1.705   5.168   2.884  1.4969  0.0961  0.5170
12831TIP3   OH259907   1.720   2.301  17.204  0.0653 -0.3029  0.3123
12831TIP3    H159908   1.669   2.379  17.227 -1.4162 -1.3836  0.8724
12831TIP3    H259909   1.719   2.248  17.283 -0.4332 -1.6437 -0.5681
12832TIP3   OH259910   2.673   1.878  17.232 -0.4270 -0.6136 -0.5022
12832TIP3    H159911   2.589   1.915  17.205 -0.5226  1.2238  1.9350
12832TIP3    H259912   2.728   1.954  17.253  1.6602 -1.7796 -1.4071
12833TIP3   OH259913   4.588   1.798   1.635  0.1116  0.1070  0.2507
12833TIP3    H159914   4.518   1.838   1.583  0.0433 -0.2008  0.1035
12833TIP3    H259915   4.542   1.741   1.697  0.1445  1.0232  1.1496
12834TIP3   OH259916   5.634   5.987  15.444  0.2768 -0.0181 -0.1502
12834TIP3    H159917   5.600   5.924  15.508 -0.1615 -0.0446 -0.4065
12834TIP3    H259918   5.728   5.973  15.445  0.4123  0.7472  1.3131
12835TIP3   OH259919   4.178   5.921   3.624 -0.3989 -0.2825  0.0256
12835TIP3    H159920   4.240   5.936   3.696  1.0803 -1.1315 -0.9969
12835TIP3    H259921   4.131   6.003   3.615  0.7539  0.4916  0.7071
12836TIP3   OH259922   0.630   6.723   1.094  0.6763  0.6163  0.1148
12836TIP3    H159923   0.595   6.758   1.176  0.6967 -1.5034  1.1118
12836TIP3    H259924   0.588   6.775   1.025  0.2755  2.1196  1.4483
12837TIP3   OH259925   6.339   3.429   6.406  0.3203 -0.2088 -0.1001
12837TIP3    H159926   6.314   3.362   6.470  0.3872  1.3812  1.7119
12837TIP3    H259927   6.432   3.413   6.390 -0.5654 -3.2584 -3.2440
12838TIP3   OH259928   2.984   5.285   5.383  0.0482  0.4336 -0.0570
12838TIP3    H159929   3.025   5.344   5.447 -0.7566 -0.3378  1.2088
12838TIP3    H259930   2.891   5.288   5.405  0.0210 -1.4946  0.1993
12839TIP3   OH259931   1.966   0.583  16.717 -0.0424 -0.0762  0.4399
12839TIP3    H159932   1.875   0.612  16.713  0.3205  1.0959  0.1967
12839TIP3    H259933   2.004   0.612  16.634  0.7677  0.2416  0.9108
12840TIP3   OH259934   5.289   1.057   2.985  0.2374 -0.0470 -0.6916
12840TIP3    H159935   5.376   1.019   2.975  0.2046 -0.1255 -0.6818
12840TIP3    H259936   5.229   0.985   2.962  0.0258 -1.4118  3.3080
12841TIP3   OH259937   6.718   4.246  11.809  0.3414 -0.1217 -0.1575
12841TIP3    H159938   6.714   4.288  11.895  0.0800  0.3419 -0.3968
12841TIP3    H259939   6.664   4.168  11.818 -0.5251  0.4649 -0.2036
12842TIP3   OH259940   0.350   5.247   5.451 -0.0165  0.6082 -0.1888
12842TIP3    H159941   0.307   5.330   5.429 -0.8221  0.8450  1.9956
12842TIP3    H259942   0.432   5.272   5.493 -0.6089  0.3718  1.1728
12843TIP3   OH259943   1.776   0.435   0.600 -0.2468 -0.8173  0.8155
12843TIP3    H159944   1.710   0.457   0.534 -0.1038  0.5372  1.1008
12843TIP3    H259945   1.738   0.361   0.648 -2.4310  0.9979  2.1328
12844TIP3   OH259946   4.534   5.916   0.249  0.3468  1.1488  0.2910
12844TIP3    H159947   4.499   5.996   0.210 -1.1980  1.0263  1.3620
12844TIP3    H259948   4.462   5.853   0.244  1.8383 -0.5556 -1.4545
12845TIP3   OH259949   2.825   0.370  11.128 -0.1859 -0.2492  0.1987
12845TIP3    H159950   2.782   0.289  11.100  1.1562 -1.7353  2.1581
12845TIP3    H259951   2.915   0.345  11.145  0.5317  1.9138 -0.0944
12846TIP3   OH259952   4.605   0.436   1.439  0.1281  0.3147  0.0382
12846TIP3    H159953   4.652   0.368   1.392  0.4231  0.8986 -0.5205
12846TIP3    H259954   4.520   0.442   1.395 -0.0806 -0.0208  0.3907
12847TIP3   OH259955   2.080   4.372   3.813  0.3192 -0.4400  0.1324
12847TIP3    H159956   2.174   4.363   3.831  0.6191  0.4174 -0.8645
12847TIP3    H259957   2.077   4.408   3.724 -0.8848  1.4524  0.8832
12848TIP3   OH259958   0.311   2.161   1.315  0.2232 -0.5531 -0.5028
12848TIP3    H159959   0.230   2.113   1.295 -0.0458  0.1510 -1.1312
12848TIP3    H259960   0.291   2.252   1.296  0.5397 -0.0724  1.2988
12849TIP3   OH259961   4.951   2.594  17.104  0.1915 -0.1217  0.6265
12849TIP3    H159962   4.960   2.615  17.011 -1.1142  0.6088  0.6329
12849TIP3    H259963   4.861   2.562  17.113  0.8239 -1.7541  1.3780
12850TIP3   OH259964   1.986   2.583  15.755  0.3428  0.3516  0.0967
12850TIP3    H159965   1.996   2.676  15.778 -0.8722  0.2868  0.9893
12850TIP3    H259966   1.929   2.584  15.678  0.6915  0.3523 -0.1663
12851TIP3   OH259967   1.768   5.605  14.826 -0.5510  0.3667  0.0340
12851TIP3    H159968   1.785   5.563  14.742 -1.2428 -0.8980  0.4830
12851TIP3    H259969   1.743   5.695  14.805  0.6407  0.4683 -1.0023
12852TIP3   OH259970   4.261   4.511   4.718 -0.4567  0.2481 -0.1627
12852TIP3    H159971   4.173   4.491   4.750 -0.4207  1.1751  0.5613
12852TIP3    H259972   4.246   4.564   4.640 -0.6028  2.3520  1.2026
12853TIP3   OH259973   5.751   0.935   0.173 -0.6499 -0.4729  0.5137
12853TIP3    H159974   5.694   0.864   0.146  1.6352 -2.1150 -0.2876
12853TIP3    H259975   5.783   0.973   0.091 -0.7776  0.5857  0.9385
12854TIP3   OH259976   2.119   1.429   0.813  0.4185 -0.1152  0.2270
12854TIP3    H159977   2.036   1.382   0.820 -1.1091  2.4506  0.6218
12854TIP3    H259978   2.133   1.441   0.719 -0.6605  1.0062  0.1839
12855TIP3   OH259979   4.836   2.760  14.803 -0.1666 -0.4701  0.2861
12855TIP3    H159980   4.920   2.715  14.801 -0.2778 -0.6573 -1.3733
12855TIP3    H259981   4.791   2.733  14.723 -1.5707  0.0844  0.8400
12856TIP3   OH259982   5.256   2.806   1.162  0.1743 -0.1624  0.0324
12856TIP3    H159983   5.335   2.823   1.214  0.3736 -1.1116  0.0638
12856TIP3    H259984   5.271   2.850   1.079 -0.4961  2.0886  1.0372
12857TIP3   OH259985   0.538   1.498   1.617  0.0267 -0.0144 -0.4233
12857TIP3    H159986   0.612   1.505   1.557 -0.4647 -0.6118 -1.0964
12857TIP3    H259987   0.477   1.439   1.575 -1.8610  2.1415 -0.9189
12858TIP3   OH259988   5.212   0.161  13.081  0.3555 -0.2234 -0.3427
12858TIP3    H159989   5.193   0.185  13.171  1.7741  1.8673 -0.5194
12858TIP3    H259990   5.161   0.081  13.065 -1.5452  0.5295  1.6164
12859TIP3   OH259991   1.866   2.660   6.075 -0.1557 -0.3264 -0.2306
12859TIP3    H159992   1.820   2.697   6.150  0.7881  0.0322  0.1869
12859TIP3    H259993   1.882   2.734   6.017  1.2059 -0.1499  0.3289
12860TIP3   OH259994   5.487   2.578   3.164 -0.2429 -0.1002  0.3840
12860TIP3    H159995   5.404   2.538   3.142  0.8498 -2.0616 -0.4037
12860TIP3    H259996   5.515   2.534   3.245  0.1058  0.4186  0.5550
12861TIP3   OH259997   1.078   0.416  11.909 -0.6644  0.2512 -0.1613
12861TIP3    H159998   1.093   0.473  11.834 -0.5529  2.9482  1.7852
12861TIP3    H259999   1.001   0.364  11.884  0.7419 -0.7131 -2.9979
12862TIP3   OH260000   2.877   6.476   4.518  0.9354 -0.1105 -0.5752
12862TIP3    H160001   2.858   6.528   4.441  1.2026 -0.8446 -1.1496
12862TIP3    H260002   2.835   6.523   4.590 -0.1134  0.1007 -1.2953
12863TIP3   OH260003   0.355   5.125   3.164 -0.3636 -0.1885 -0.4660
12863TIP3    H160004   0.347   5.207   3.116 -1.8394 -0.6172 -0.9900
12863TIP3    H260005   0.274   5.079   3.147  0.8363 -2.2287 -1.0317
12864TIP3   OH260006   4.707   1.482   3.485 -0.0455 -0.9339  0.2743
12864TIP3    H160007   4.657   1.548   3.534  1.1517 -1.6969  2.6216
12864TIP3    H260008   4.768   1.533   3.432 -0.0362 -0.1215  1.0502
12865TIP3   OH260009   4.708   5.125  13.061  0.3273 -0.8368 -0.1547
12865TIP3    H160010   4.658   5.121  12.979 -1.0499  3.0530  0.3088
12865TIP3    H260011   4.772   5.195  13.046 -1.5887  1.7628  2.7838
12866TIP3   OH260012   1.382   2.547  16.053  0.1161  0.3878 -0.3598
12866TIP3    H160013   1.332   2.615  16.098  0.0432  0.6084 -0.7699
12866TIP3    H260014   1.439   2.511  16.121 -0.4773  0.2449  0.0747
12867TIP3   OH260015   0.194   3.463   4.751 -0.4277 -0.4639  0.2680
12867TIP3    H160016   0.191   3.407   4.829 -1.8660  0.1458  0.6772
12867TIP3    H260017   0.235   3.544   4.781  0.4566 -0.7833 -0.0171
12868TIP3   OH260018   2.084   0.492  16.156  0.1581  0.9207  0.3117
12868TIP3    H160019   2.072   0.433  16.082  1.6489  0.8713  0.0743
12868TIP3    H260020   2.003   0.485  16.206  0.2411 -1.2868  0.2588
12869TIP3   OH260021   6.076   4.314  15.447  0.5068 -0.3149 -0.0964
12869TIP3    H160022   6.081   4.236  15.501 -0.4167 -0.5275 -0.2880
12869TIP3    H260023   6.157   4.315  15.397  1.8581  0.4273  1.9949
12870TIP3   OH260024   0.357   6.638  12.701  0.2252  0.3909 -0.0446
12870TIP3    H160025   0.343   6.686  12.782 -0.6722 -0.2722  0.2159
12870TIP3    H260026   0.446   6.660  12.674  0.0161  1.7595  0.3415
12871TIP3   OH260027   1.789   5.804  13.121 -0.3061  0.0286  0.9195
12871TIP3    H160028   1.716   5.743  13.111 -1.3619  1.4993 -0.9478
12871TIP3    H260029   1.794   5.849  13.036  0.8406  2.0744  2.0051
12872TIP3   OH260030   4.828   0.877   0.403  0.4581  0.0849  0.2828
12872TIP3    H160031   4.779   0.939   0.349  1.1512 -0.3373 -0.8777
12872TIP3    H260032   4.783   0.794   0.392 -0.3345  0.2969  1.6582
12873TIP3   OH260033   1.785   4.566  12.625  0.0272 -0.3707 -0.5369
12873TIP3    H160034   1.733   4.522  12.558  0.3874 -1.5699 -0.0610
12873TIP3    H260035   1.723   4.624  12.669  0.0799  1.4742 -2.7338
12874TIP3   OH260036   5.384   2.319  10.971 -0.3730 -0.4214 -0.0404
12874TIP3    H160037   5.325   2.357  10.906 -0.9109  0.1027  0.7338
12874TIP3    H260038   5.364   2.225  10.970 -1.0213 -0.2911 -0.0003
12875TIP3   OH260039   2.412   5.058   4.053  0.3348 -0.6636 -0.1618
12875TIP3    H160040   2.393   5.131   3.994 -2.5005 -2.8265 -2.2256
12875TIP3    H260041   2.479   5.008   4.008  0.2531 -0.8170 -0.1125
12876TIP3   OH260042   4.614   2.129  11.247  0.2378  0.2217 -0.3848
12876TIP3    H160043   4.530   2.144  11.291  0.1702 -0.3639 -0.3028
12876TIP3    H260044   4.595   2.063  11.181  0.3265  1.1570 -1.3696
12877TIP3   OH260045   5.273   4.535  16.716 -0.1207 -0.5643 -0.8078
12877TIP3    H160046   5.313   4.517  16.802 -0.4933 -0.6186 -0.6454
12877TIP3    H260047   5.306   4.621  16.692  0.4397 -0.7901 -0.8744
12878TIP3   OH260048   3.702   3.518   2.717 -0.3715 -0.0756  0.1289
12878TIP3    H160049   3.626   3.529   2.660 -0.5763  0.8707  0.5622
12878TIP3    H260050   3.734   3.607   2.731 -0.4937 -0.2659  1.7331
12879TIP3   OH260051   2.148   1.490  16.494  0.3199  0.6956 -0.3409
12879TIP3    H160052   2.075   1.461  16.440  0.9147  0.6449 -1.1288
12879TIP3    H260053   2.116   1.570  16.537 -0.1421  0.7620 -0.8009
12880TIP3   OH260054   5.622   4.617  13.531  1.1297 -0.3020 -0.0417
12880TIP3    H160055   5.674   4.608  13.611  1.1303 -0.7708 -0.0928
12880TIP3    H260056   5.598   4.710  13.528 -1.2686 -0.7664  1.9939
12881TIP3   OH260057   4.053   1.539   2.214 -0.0020  0.8202 -0.2870
12881TIP3    H160058   3.957   1.535   2.206  0.0176 -0.8434 -0.0462
12881TIP3    H260059   4.075   1.463   2.267  1.3521  2.0179  0.9386
12882TIP3   OH260060   1.974   0.867   0.174  0.1053 -0.1110  0.2493
12882TIP3    H160061   2.009   0.955   0.192  0.5505 -0.4467  1.0773
12882TIP3    H260062   1.981   0.857   0.080  1.6027  0.1110  0.3246
12883TIP3   OH260063   2.138   4.801  14.340 -0.2478  0.1655  0.3747
12883TIP3    H160064   2.195   4.822  14.414 -0.8229  2.2447  0.2798
12883TIP3    H260065   2.196   4.798  14.264  0.6871 -3.8944  1.0348
12884TIP3   OH260066   4.714   4.803  12.769  0.1495  0.1309 -0.2008
12884TIP3    H160067   4.749   4.892  12.777  1.3862 -0.3767  0.2697
12884TIP3    H260068   4.787   4.746  12.794  0.2914 -1.1309 -3.0461
12885TIP3   OH260069   1.638   5.041   4.062 -0.0286  0.1876  0.0819
12885TIP3    H160070   1.702   4.987   4.016 -1.3517  0.5847 -2.3944
12885TIP3    H260071   1.556   4.992   4.055 -0.4606  0.7136  1.2471
12886TIP3   OH260072   2.063   6.252   3.621  0.2993 -0.3727 -0.3308
12886TIP3    H160073   2.089   6.324   3.564 -0.0464  0.7356  0.8609
12886TIP3    H260074   1.967   6.257   3.623  0.3001 -0.4916  0.2102
12887TIP3   OH260075   4.340   1.636  17.355 -0.7520  0.2028  0.0717
12887TIP3    H160076   4.320   1.721  17.395 -4.1105 -0.9477  1.1914
12887TIP3    H260077   4.312   1.646  17.264  0.5883  0.7640 -0.3175
12888TIP3   OH260078   4.644   6.063  14.865  0.0227 -0.0836 -0.1344
12888TIP3    H160079   4.570   6.091  14.811 -0.1325  0.0549  0.1450
12888TIP3    H260080   4.610   5.988  14.914  0.4546 -0.8187 -0.9287
12889TIP3   OH260081   6.415   2.744   0.263  0.4568 -0.0128 -0.3389
12889TIP3    H160082   6.418   2.824   0.316 -1.4201  1.3362 -2.1295
12889TIP3    H260083   6.341   2.757   0.203  0.0572 -3.1129 -0.7087
12890TIP3   OH260084   4.987   0.659   5.245  0.6262 -0.3718 -0.6810
12890TIP3    H160085   4.962   0.597   5.313 -0.8739 -1.3862 -2.0731
12890TIP3    H260086   5.052   0.611   5.192  0.1893 -0.4081 -1.1939
12891TIP3   OH260087   6.433   2.313  17.082 -0.2516 -0.3838  0.8131
12891TIP3    H160088   6.527   2.301  17.065 -0.4411  1.1090 -1.8560
12891TIP3    H260089   6.423   2.408  17.092 -1.6735 -0.3405 -0.7098
12892TIP3   OH260090   5.435   1.012   5.175 -0.1819 -0.2037 -0.5667
12892TIP3    H160091   5.368   1.009   5.108 -0.0846 -0.6219 -0.6509
12892TIP3    H260092   5.516   1.029   5.128 -0.4413  2.0497 -0.2963
12893TIP3   OH260093   4.788   1.630   3.843 -0.1578 -0.4246 -0.4498
12893TIP3    H160094   4.742   1.688   3.904  0.0729 -0.7058 -0.0086
12893TIP3    H260095   4.746   1.545   3.854  0.6840 -0.7720  0.2125
12894TIP3   OH260096   2.402   5.456   3.665  0.0925  0.1236 -0.3913
12894TIP3    H160097   2.440   5.509   3.596 -0.6944  2.5578  0.9324
12894TIP3    H260098   2.404   5.511   3.743 -0.1430 -2.0629  1.2837
12895TIP3   OH260099   3.062   4.002   6.906 -0.2566 -0.0757  0.2189
12895TIP3    H160100   3.003   3.939   6.947 -0.1985 -0.7423 -0.6942
12895TIP3    H260101   3.078   3.967   6.818  1.0704  0.3627  0.2568
12896TIP3   OH260102   1.870   1.630   5.831  0.3220  0.3139  0.8552
12896TIP3    H160103   1.835   1.667   5.912  0.2883 -0.2741  1.1117
12896TIP3    H260104   1.793   1.617   5.775  0.1473 -0.8164  1.3532
12897TIP3   OH260105   3.346   5.103   0.557  0.2280  0.1310 -0.5814
12897TIP3    H160106   3.346   5.087   0.462 -1.2387  0.7607 -0.7138
12897TIP3    H260107   3.257   5.131   0.576 -0.0817 -1.9349  1.3426
12898TIP3   OH260108   6.494   4.903  12.760  0.1587  0.0737 -0.1962
12898TIP3    H160109   6.478   4.850  12.838 -0.3023  1.5502  0.7728
12898TIP3    H260110   6.503   4.992  12.794  2.7815  0.4117 -1.5566
12899TIP3   OH260111   4.557   3.832   4.707 -0.2588 -0.1257 -1.1454
12899TIP3    H160112   4.640   3.880   4.701  1.0345 -2.0646  0.0470
12899TIP3    H260113   4.491   3.896   4.680  1.6287  1.3818 -2.5810
12900TIP3   OH260114   4.263   1.530  16.793  0.4537  0.3040 -0.5602
12900TIP3    H160115   4.205   1.484  16.731  1.0198 -0.2965 -0.6577
12900TIP3    H260116   4.345   1.541  16.744  0.2207  1.7349 -0.6545
12901TIP3   OH260117   6.216   4.198   4.227  0.4489 -0.2388 -0.0015
12901TIP3    H160118   6.248   4.278   4.270 -1.9731  0.8460 -0.0455
12901TIP3    H260119   6.123   4.195   4.250 -0.0344 -1.7925 -1.9371
12902TIP3   OH260120   2.541   6.346  11.423 -0.1418 -0.2708 -0.0708
12902TIP3    H160121   2.460   6.382  11.386  0.1930  3.2052  2.1062
12902TIP3    H260122   2.611   6.393  11.378  0.5520 -1.1144  0.1071
12903TIP3   OH260123   5.240   6.278   4.639 -0.3255  0.2232  0.0419
12903TIP3    H160124   5.249   6.367   4.605 -1.3821  0.2124 -0.3245
12903TIP3    H260125   5.311   6.229   4.597  0.1519  0.8494  0.1005
12904TIP3   OH260126   5.474   5.539  11.443  0.2133  0.2265 -0.0428
12904TIP3    H160127   5.497   5.451  11.412 -0.4975 -0.4988  1.3899
12904TIP3    H260128   5.414   5.572  11.377 -1.4973 -1.3941  0.6003
12905TIP3   OH260129   5.044   3.013   2.301  0.3341 -0.6658  0.0223
12905TIP3    H160130   5.008   3.032   2.214 -1.4461 -0.9038  0.6650
12905TIP3    H260131   4.971   3.029   2.361  1.9464  0.9448  1.6532
12906TIP3   OH260132   3.654   2.192   1.097  0.5127  0.7745  0.7831
12906TIP3    H160133   3.699   2.274   1.076  1.5331 -0.1568 -0.9224
12906TIP3    H260134   3.680   2.173   1.186  1.7207  1.4112  0.5898
12907TIP3   OH260135   3.501   3.784  14.530  0.2742  0.2993  0.0221
12907TIP3    H160136   3.474   3.812  14.618  0.0818  0.1665  0.0065
12907TIP3    H260137   3.452   3.841  14.471  0.3257  0.3205  0.0001
12908TIP3   OH260138   6.213   3.411   4.412 -0.5735  0.7337 -0.8497
12908TIP3    H160139   6.146   3.345   4.398  0.5068 -0.3155 -1.2975
12908TIP3    H260140   6.244   3.434   4.325  0.8906 -0.1751 -0.6198
12909TIP3   OH260141   6.505   6.297  12.758 -0.1205  0.0191  0.2949
12909TIP3    H160142   6.535   6.229  12.698 -1.5678 -1.1094  0.8028
12909TIP3    H260143   6.423   6.264  12.794  0.1874  1.1031  2.1505
12910TIP3   OH260144   6.625   2.692   0.102  0.0893  0.2010  0.1983
12910TIP3    H160145   6.627   2.743   0.021  0.7238 -1.4941 -0.9225
12910TIP3    H260146   6.546   2.721   0.147 -0.6100  0.7725 -1.3301
12911TIP3   OH260147   0.249   1.711  10.611 -0.4164 -0.0840 -0.1686
12911TIP3    H160148   0.163   1.751  10.613 -0.7373 -0.5661 -2.2169
12911TIP3    H260149   0.234   1.622  10.578  0.5789 -1.0780  1.8445
12912TIP3   OH260150   5.234   2.091  14.915 -0.1739  0.2451 -0.2322
12912TIP3    H160151   5.309   2.066  14.861  1.1442  1.8685  0.7500
12912TIP3    H260152   5.182   2.149  14.858  0.3301  0.6281 -0.3072
12913TIP3   OH260153   0.295   1.841  13.312 -0.2005 -0.4848  0.1970
12913TIP3    H160154   0.353   1.888  13.372  0.2235 -0.2940 -0.3567
12913TIP3    H260155   0.324   1.750  13.318 -1.1523 -0.7420  1.4208
12914TIP3   OH260156   0.819   4.025  11.732 -0.2766 -0.1476 -0.0303
12914TIP3    H160157   0.832   4.106  11.780  0.1840  0.0806 -0.5302
12914TIP3    H260158   0.794   4.053  11.644 -2.0464 -0.5507  0.2929
12915TIP3   OH260159   3.773   6.424   4.106 -0.3155  0.2658  0.2882
12915TIP3    H160160   3.771   6.434   4.201  0.2515  0.1031  0.3209
12915TIP3    H260161   3.769   6.513   4.072  0.4496  0.3762  0.4828
12916TIP3   OH260162   4.075   6.338  15.012  0.5865 -0.2004  0.4116
12916TIP3    H160163   4.059   6.394  14.936  0.4109  1.8870  1.9100
12916TIP3    H260164   4.001   6.277  15.012  0.8864 -0.6439 -1.3698
12917TIP3   OH260165   2.623   1.845   2.443  0.0778  0.2768 -0.3346
12917TIP3    H160166   2.662   1.886   2.520 -0.3463  0.5729 -0.2746
12917TIP3    H260167   2.582   1.765   2.476  1.9828 -0.9159 -0.6421
12918TIP3   OH260168   3.401   2.467   5.950  0.1365 -0.7035 -0.6115
12918TIP3    H160169   3.440   2.554   5.958  1.3256 -1.1784 -0.9907
12918TIP3    H260170   3.330   2.466   6.015  0.0276  0.5739 -0.6833
12919TIP3   OH260171   3.406   4.471  13.231  0.2405  0.0465 -0.2097
12919TIP3    H160172   3.340   4.462  13.162  0.4614  0.8927 -0.5394
12919TIP3    H260173   3.359   4.509  13.305  0.3704  0.7149 -0.4683
12920TIP3   OH260174   0.584   6.444  14.565  0.1755 -0.5302 -0.0164
12920TIP3    H160175   0.566   6.528  14.523  0.3887 -0.9199 -0.9066
12920TIP3    H260176   0.504   6.424  14.615  0.0773  0.1326  0.0999
12921TIP3   OH260177   3.288   3.451   4.583  0.3407  0.0577 -0.0821
12921TIP3    H160178   3.263   3.525   4.639 -0.7757  0.2445 -0.8056
12921TIP3    H260179   3.343   3.490   4.514  1.2942 -0.0965  0.5602
12922TIP3   OH260180   0.050   6.314   2.925 -0.3561 -0.2785  0.0521
12922TIP3    H160181   0.055   6.344   2.834  0.8754 -2.9275 -0.8543
12922TIP3    H260182  -0.042   6.289   2.937 -0.2999 -1.0211 -0.9026
12923TIP3   OH260183   2.967   3.687   3.475  0.4516  0.5755 -0.4528
12923TIP3    H160184   3.055   3.723   3.482  0.4950  0.1802  1.3350
12923TIP3    H260185   2.919   3.724   3.549 -1.1961  1.5271 -1.9048
12924TIP3   OH260186   0.066   3.869   0.077 -0.4474 -0.1808 -0.0146
12924TIP3    H160187   0.016   3.798   0.117  0.6917 -2.0103 -1.6176
12924TIP3    H260188   0.138   3.824   0.032  0.5846  2.0615 -0.7335
12925TIP3   OH260189   0.643   6.149   5.800  0.5961 -0.6779  0.6745
12925TIP3    H160190   0.628   6.230   5.850  0.0675  0.1166 -0.7222
12925TIP3    H260191   0.739   6.140   5.799  0.6679 -0.0343  0.8058
12926TIP3   OH260192   2.815   4.244  15.651  0.1719  0.0946 -0.5086
12926TIP3    H160193   2.780   4.333  15.657  0.9174  0.5043 -1.8795
12926TIP3    H260194   2.766   4.195  15.717 -0.4181  1.4581  0.1089
12927TIP3   OH260195   6.760   6.330  11.437  0.0336 -0.0094  0.4488
12927TIP3    H160196   6.670   6.358  11.421 -0.1143 -0.5827  0.2660
12927TIP3    H260197   6.764   6.312  11.531  1.0694  3.9801  1.3647
12928TIP3   OH260198   4.490   2.264  15.326  0.0860  0.3559 -0.2675
12928TIP3    H160199   4.477   2.213  15.406 -1.5590 -2.7991 -2.3390
12928TIP3    H260200   4.579   2.243  15.298 -0.0928 -0.2862 -0.3667
12929TIP3   OH260201   1.633   2.037  16.818  0.1001  0.0550  0.0719
12929TIP3    H160202   1.551   2.043  16.867  0.1716 -0.4178  0.2513
12929TIP3    H260203   1.659   1.945  16.826  0.0949 -0.0338 -0.8878
12930TIP3   OH260204   0.097   1.939  14.723 -0.3516 -0.1281  0.2809
12930TIP3    H160205   0.135   2.026  14.738 -0.9693  0.1754  0.0826
12930TIP3    H260206   0.149   1.882  14.779 -0.4488  0.4911  1.0263
12931TIP3   OH260207   6.117   1.038  15.469 -0.1699 -0.2866  0.2298
12931TIP3    H160208   6.145   1.126  15.495  1.0372 -0.7843  0.6829
12931TIP3    H260209   6.175   0.979  15.518 -0.9238 -1.3314 -0.1131
12932TIP3   OH260210   3.459   4.731  15.446  0.0527  0.2665  0.2107
12932TIP3    H160211   3.520   4.670  15.405  0.2289 -0.1358  1.0453
12932TIP3    H260212   3.463   4.710  15.539 -3.1334 -1.4335  0.1036
12933TIP3   OH260213   0.265   2.987   1.242  0.5785 -0.3652 -0.4783
12933TIP3    H160214   0.313   2.976   1.324 -1.1077  2.2512  1.0129
12933TIP3    H260215   0.270   2.902   1.199  3.3835 -1.1963  1.2679
12934TIP3   OH260216   3.145   5.369   0.939  0.1000 -0.0208  0.2252
12934TIP3    H160217   3.098   5.288   0.918  1.0085 -1.0697  1.9993
12934TIP3    H260218   3.076   5.435   0.949 -1.2316 -1.6746  3.5339
12935TIP3   OH260219   5.084   1.275  13.122 -0.8635 -0.0987  0.4330
12935TIP3    H160220   5.033   1.232  13.191  0.5542 -1.0871  0.9109
12935TIP3    H260221   5.172   1.281  13.158 -0.1993 -0.1826 -1.1074
12936TIP3   OH260222   1.178   0.286  13.882 -0.2913  0.4072  0.0570
12936TIP3    H160223   1.215   0.206  13.845 -2.5129 -0.3878 -0.5548
12936TIP3    H260224   1.140   0.259  13.966 -0.4876  0.9587  0.1526
12937TIP3   OH260225   0.020   5.758   2.516 -0.5115 -0.3175  0.0359
12937TIP3    H160226   0.106   5.749   2.476 -0.7927  0.9740 -0.9220
12937TIP3    H260227   0.024   5.841   2.563 -1.7766  0.7184 -1.5596
12938TIP3   OH260228   2.064   0.754  15.997 -0.1505 -0.4969  0.2354
12938TIP3    H160229   1.993   0.724  16.054  0.0619  1.5097  1.6145
12938TIP3    H260230   2.019   0.779  15.916 -0.6242 -1.9839 -0.0028
12939TIP3   OH260231   1.599   6.347  16.289 -0.3141 -0.7363  0.1388
12939TIP3    H160232   1.621   6.345  16.382 -1.0457  2.0175  0.4486
12939TIP3    H260233   1.674   6.390  16.247 -0.9586  0.0519 -0.2141
12940TIP3   OH260234   1.546   2.059  17.181 -0.0295  0.0862  0.1380
12940TIP3    H160235   1.579   2.126  17.121  1.3679  0.9554  1.7894
12940TIP3    H260236   1.517   1.988  17.124  1.4629  0.7702 -1.5667
12941TIP3   OH260237   1.165   2.324  15.742  0.5321 -0.9868  0.0025
12941TIP3    H160238   1.250   2.321  15.786  1.4734  0.4661 -1.5721
12941TIP3    H260239   1.141   2.417  15.744  0.2976 -0.9759 -1.8939
12942TIP3   OH260240   3.304   2.459   0.274  1.0424  0.1409  0.1152
12942TIP3    H160241   3.374   2.464   0.339  0.2946 -0.8748  1.0436
12942TIP3    H260242   3.233   2.512   0.312 -0.0593 -1.8821  1.0613
12943TIP3   OH260243   3.411   1.067  13.232  0.1138 -0.6594  0.1288
12943TIP3    H160244   3.369   1.152  13.217 -0.8682 -0.6245  2.7085
12943TIP3    H260245   3.497   1.076  13.190 -0.7349  0.8525 -1.4148
12944TIP3   OH260246   1.256   3.977   2.020  0.3147  0.1753  0.1254
12944TIP3    H160247   1.219   4.056   2.059  1.6438  0.7378  0.3036
12944TIP3    H260248   1.284   3.924   2.095  0.4511  0.0427 -0.0195
12945TIP3   OH260249   5.603   0.728   3.404 -0.1705  0.1632 -0.1899
12945TIP3    H160250   5.624   0.810   3.359 -2.8004  1.0768  0.0938
12945TIP3    H260251   5.530   0.690   3.355 -0.3528 -0.9513  0.8796
12946TIP3   OH260252   5.611   5.263   6.278 -0.2654  0.3910  0.2912
12946TIP3    H160253   5.657   5.343   6.302 -0.0006  1.1305 -2.3681
12946TIP3    H260254   5.671   5.193   6.304  1.2347  1.2382 -0.7637
12947TIP3   OH260255   0.556   3.138  11.932  0.3916 -0.0825 -0.1454
12947TIP3    H160256   0.607   3.218  11.919 -0.8025  1.3520  2.9817
12947TIP3    H260257   0.466   3.163  11.916  0.0403 -0.9211  0.4467
12948TIP3   OH260258   6.025   3.421   0.928 -0.2385  0.2549 -0.6318
12948TIP3    H160259   6.008   3.384   0.841 -0.8869 -0.4963 -0.1952
12948TIP3    H260260   6.024   3.345   0.987 -1.3690  0.9344  0.2479
12949TIP3   OH260261   2.078   0.582  12.254 -0.4831  0.6047  0.6867
12949TIP3    H160262   2.076   0.489  12.277  1.8330  0.5043  0.6810
12949TIP3    H260263   2.098   0.584  12.161 -1.1322  1.1275  0.5465
12950TIP3   OH260264   1.375   4.322   3.512 -0.3425  0.0437 -0.4971
12950TIP3    H160265   1.417   4.246   3.472 -1.8963 -0.8331 -0.5530
12950TIP3    H260266   1.411   4.397   3.465  1.9063 -0.5391  0.1486
12951TIP3   OH260267   5.506   4.453  16.428 -0.6135 -0.3662 -0.6618
12951TIP3    H160268   5.565   4.490  16.362  2.7658 -0.7744  1.8177
12951TIP3    H260269   5.509   4.516  16.500 -1.7327 -1.3348  0.2617
12952TIP3   OH260270   5.753   1.832   4.766  0.0951 -0.4202  0.7297
12952TIP3    H160271   5.762   1.886   4.845 -0.0367  0.8763 -0.1182
12952TIP3    H260272   5.798   1.882   4.698 -0.7924 -0.9653 -0.2745
12953TIP3   OH260273   0.417   5.491   1.475 -0.1481  0.2413  0.0949
12953TIP3    H160274   0.453   5.504   1.387 -2.3890 -2.0404 -1.3299
12953TIP3    H260275   0.453   5.407   1.503  0.8879  1.1523  1.6132
12954TIP3   OH260276   0.833   4.755  14.517 -0.3351 -0.0810 -0.0886
12954TIP3    H160277   0.762   4.703  14.479 -0.8248 -0.3074  1.0963
12954TIP3    H260278   0.848   4.716  14.603 -0.3525  1.3934  0.6238
12955TIP3   OH260279   2.441   0.009  13.070 -0.4554 -0.1592 -0.5799
12955TIP3    H160280   2.423   0.068  12.997  1.2670  0.1668 -0.7836
12955TIP3    H260281   2.525  -0.031  13.049 -1.7799 -3.1293 -0.6957
12956TIP3   OH260282   6.210   3.123   0.132  0.5530 -0.2564 -0.4817
12956TIP3    H160283   6.145   3.061   0.099 -0.1709  0.4667 -0.4433
12956TIP3    H260284   6.281   3.119   0.068 -0.0282 -0.2297 -1.1395
12957TIP3   OH260285   1.755   2.612   3.558 -0.0390 -0.1653  0.0640
12957TIP3    H160286   1.821   2.601   3.489 -0.4763 -2.0385 -0.0877
12957TIP3    H260287   1.802   2.657   3.628  1.1555 -0.6601 -0.3899
12958TIP3   OH260288   3.595   0.123  12.180 -0.1238  0.2577  0.0885
12958TIP3    H160289   3.681   0.123  12.138  0.5394 -0.4597  1.3662
12958TIP3    H260290   3.551   0.201  12.146  0.9558  0.5356 -0.7307
12959TIP3   OH260291   0.781   5.576   2.876 -0.0047 -0.2201  0.0339
12959TIP3    H160292   0.704   5.520   2.878 -0.0278 -0.1873  0.0795
12959TIP3    H260293   0.821   5.565   2.963 -0.0759 -0.0748  0.0856
12960TIP3   OH260294   3.271   2.746   5.288 -0.2766 -0.2341 -0.1369
12960TIP3    H160295   3.202   2.722   5.350 -0.8836 -1.6925 -1.3271
12960TIP3    H260296   3.295   2.835   5.313 -1.5080 -0.2518  1.2761
12961TIP3   OH260297   5.451   4.330  10.815 -0.5814 -0.0003  0.2040
12961TIP3    H160298   5.386   4.262  10.799 -0.1334 -0.2458 -0.6586
12961TIP3    H260299   5.418   4.406  10.767 -1.6952  0.8065  2.1356
12962TIP3   OH260300   6.560   5.104  15.676  0.1362 -0.4194 -0.2724
12962TIP3    H160301   6.644   5.057  15.675  0.6271  0.4532 -0.9802
12962TIP3    H260302   6.504   5.050  15.731  0.4731 -2.2016 -1.5748
12963TIP3   OH260303   0.080   1.006  13.340  0.4027  0.0264 -0.0337
12963TIP3    H160304   0.080   1.102  13.341 -0.3542  0.0498  1.5630
12963TIP3    H260305   0.157   0.982  13.392  0.9186 -0.2475 -0.9152
12964TIP3   OH260306   0.673   6.179  17.128 -0.3590 -0.7281 -0.2218
12964TIP3    H160307   0.734   6.202  17.198 -1.3131 -0.5600  0.5747
12964TIP3    H260308   0.588   6.209  17.159 -0.8296 -0.7970 -1.3954
12965TIP3   OH260309   2.536   0.350  13.971 -0.3796  0.2861  0.0117
12965TIP3    H160310   2.509   0.273  13.922 -0.6856  0.7260 -0.5245
12965TIP3    H260311   2.474   0.418  13.945  1.3428  1.3979 -1.4504
12966TIP3   OH260312   6.674   2.032   4.953 -0.0813  0.2881  0.2829
12966TIP3    H160313   6.754   1.981   4.967 -0.1078 -0.1827 -1.0742
12966TIP3    H260314   6.603   1.967   4.957 -0.3979  0.6907  1.4112
12967TIP3   OH260315   5.847   6.368   1.241 -0.3594 -0.1043  0.4442
12967TIP3    H160316   5.895   6.288   1.260  0.4774  0.0097 -1.0010
12967TIP3    H260317   5.848   6.418   1.323  0.2842 -0.9672  0.9678
12968TIP3   OH260318   4.533   6.504  11.129  0.0012 -0.3178  0.0160
12968TIP3    H160319   4.572   6.432  11.080  1.5577  1.5556 -1.6829
12968TIP3    H260320   4.469   6.543  11.070 -2.1287 -1.2717  1.5603
12969TIP3   OH260321   1.594   4.716  17.018  0.1819  0.4740  0.1159
12969TIP3    H160322   1.633   4.704  17.104  1.4629 -0.6174 -0.5784
12969TIP3    H260323   1.666   4.746  16.963 -0.6449  1.2844 -0.5621
12970TIP3   OH260324   0.746   5.938  11.147 -0.5899 -0.6764 -0.2602
12970TIP3    H160325   0.840   5.941  11.130 -0.4751 -1.5108  0.2002
12970TIP3    H260326   0.706   5.969  11.065  0.1369  3.4220  0.6836
12971TIP3   OH260327   4.101   0.627   3.344  0.2673 -0.0258 -0.4930
12971TIP3    H160328   4.070   0.690   3.409 -0.1660  0.0525 -0.7689
12971TIP3    H260329   4.141   0.680   3.276  0.5914 -0.0989 -0.3595
12972TIP3   OH260330   5.300   4.987  13.501 -0.1582  0.4280  0.2372
12972TIP3    H160331   5.209   4.996  13.475  0.2824  2.3577 -0.7981
12972TIP3    H260332   5.332   5.077  13.510  1.4905 -0.2015  1.1575
12973TIP3   OH260333   5.496   1.839   6.038 -0.0455 -0.0317  0.3327
12973TIP3    H160334   5.450   1.778   6.095  1.2230  0.3981  1.8651
12973TIP3    H260335   5.526   1.909   6.096 -0.8952  1.7680 -1.2497
12974TIP3   OH260336   5.902   0.188   0.678 -0.2109 -0.2928  0.3224
12974TIP3    H160337   5.879   0.267   0.630  0.3646  0.3877  1.1474
12974TIP3    H260338   5.842   0.122   0.645  0.3038  0.0926 -1.4818
12975TIP3   OH260339   4.802   4.543  13.411  0.1454  0.3065 -0.2868
12975TIP3    H160340   4.845   4.461  13.434  1.5737  0.5440 -1.9108
12975TIP3    H260341   4.709   4.521  13.405  0.5708 -1.4034 -1.4174
12976TIP3   OH260342   2.157   2.626  16.692  0.0182 -0.4241 -0.1544
12976TIP3    H160343   2.214   2.550  16.707  1.2171  0.3170 -0.7558
12976TIP3    H260344   2.214   2.689  16.649 -0.5589  1.3519  1.5567
12977TIP3   OH260345   5.857   2.315  11.696 -0.4853 -0.5009  0.6145
12977TIP3    H160346   5.945   2.335  11.729 -0.2030  1.1453 -0.9808
12977TIP3    H260347   5.816   2.401  11.682 -1.0656 -1.0977 -1.9083
12978TIP3   OH260348   4.125   0.184  16.989  0.2586  0.4764 -0.1296
12978TIP3    H160349   4.203   0.200  17.042 -0.3468 -0.5277  1.1338
12978TIP3    H260350   4.158   0.137  16.913  0.8427 -0.4774  0.6803
12979TIP3   OH260351   2.941   4.499  14.374 -0.0028  0.9683  0.3307
12979TIP3    H160352   2.946   4.581  14.424  0.5743  0.9023  0.3861
12979TIP3    H260353   3.013   4.505  14.312  1.7373 -0.6297  2.0606
12980TIP3   OH260354   3.098   4.418  11.579  0.9312  0.4041  0.0812
12980TIP3    H160355   3.069   4.362  11.651 -1.3647  1.1797 -0.1703
12980TIP3    H260356   3.019   4.459  11.547  2.2933  2.3667 -0.9824
12981TIP3   OH260357   3.360   5.318   0.076  0.0035  0.3048  0.5730
12981TIP3    H160358   3.285   5.280   0.030 -1.0615  1.1154  1.5652
12981TIP3    H260359   3.425   5.334   0.008 -0.6371 -0.6116 -0.2883
12982TIP3   OH260360   5.208   6.319   3.268  0.3467  0.0275 -0.5909
12982TIP3    H160361   5.114   6.329   3.255 -0.1519 -1.9332  1.0368
12982TIP3    H260362   5.224   6.225   3.257  2.0729  0.2901 -0.5804
12983TIP3   OH260363   1.137   0.852   1.489  0.1178 -0.2300  0.4430
12983TIP3    H160364   1.123   0.880   1.580 -1.0609 -0.4146  0.3266
12983TIP3    H260365   1.059   0.802   1.467  0.5896 -0.5505 -0.5462
12984TIP3   OH260366   1.944   1.428  16.896 -0.0682  0.2167  0.8546
12984TIP3    H160367   1.867   1.372  16.909 -0.4071  0.6183  0.6018
12984TIP3    H260368   2.012   1.369  16.864 -1.2488  0.3816 -2.3038
12985TIP3   OH260369   3.927   5.080   6.350 -0.5629 -0.0579  0.4402
12985TIP3    H160370   4.022   5.082   6.336 -0.6890  0.1195 -0.4980
12985TIP3    H260371   3.914   5.015   6.418  0.0278 -2.1942 -1.3602
12986TIP3   OH260372   1.771   3.135  16.200  0.2325  0.4845 -0.2021
12986TIP3    H160373   1.822   3.215  16.190 -2.5412  2.2020 -1.8238
12986TIP3    H260374   1.693   3.162  16.249  0.7197 -2.0326  2.2453
12987TIP3   OH260375   3.805   5.336   3.957 -0.5697 -0.1943 -0.2996
12987TIP3    H160376   3.877   5.387   3.920 -0.0600 -3.0689 -3.8644
12987TIP3    H260377   3.844   5.292   4.033  0.1968  1.3766  0.2545
12988TIP3   OH260378   6.056   5.685  13.606 -0.2857 -0.5725  0.8031
12988TIP3    H160379   5.998   5.691  13.529  1.6566  1.2363 -0.6680
12988TIP3    H260380   6.129   5.631  13.576  0.0344 -0.6486  1.7149
12989TIP3   OH260381   0.626   0.711   1.531  0.0522  0.5698 -0.4548
12989TIP3    H160382   0.712   0.745   1.506  0.2166  0.2923 -0.2714
12989TIP3    H260383   0.614   0.633   1.475  0.7743 -0.5316  0.8677
12990TIP3   OH260384   5.864   0.196  13.225 -0.0023  0.2999 -0.4454
12990TIP3    H160385   5.876   0.180  13.318 -0.2619  0.5860 -0.3607
12990TIP3    H260386   5.947   0.171  13.185 -0.4865 -1.5718 -0.3654
12991TIP3   OH260387   2.640   6.621  12.958  0.3349  0.0814 -0.5795
12991TIP3    H160388   2.627   6.559  12.887 -0.5566 -0.9547  0.4528
12991TIP3    H260389   2.731   6.609  12.985 -0.1311 -1.6133  0.3445
12992TIP3   OH260390   0.039   5.245  15.969 -0.4936 -0.3667 -0.6155
12992TIP3    H160391   0.042   5.303  15.893 -1.4584 -0.1207 -0.4777
12992TIP3    H260392   0.027   5.157  15.932 -0.0800 -0.3582 -0.7770
12993TIP3   OH260393   2.252   6.397   4.888 -0.8844  0.0844 -0.4589
12993TIP3    H160394   2.324   6.393   4.951 -2.0504 -2.7727  0.9165
12993TIP3    H260395   2.184   6.448   4.933 -1.0495 -0.4116 -0.1325
12994TIP3   OH260396   0.564   0.469  11.915 -0.1506 -0.0157 -0.1171
12994TIP3    H160397   0.579   0.550  11.867 -0.3120  0.5605  0.7918
12994TIP3    H260398   0.583   0.400  11.851  1.5658  0.7065 -0.4529
12995TIP3   OH260399   4.436   3.503   1.807 -0.7885 -0.2499  0.8757
12995TIP3    H160400   4.500   3.509   1.878  0.8582 -1.6025 -0.4159
12995TIP3    H260401   4.458   3.576   1.749 -0.9173 -0.2665  0.8051
12996TIP3   OH260402   4.796   6.568  12.058 -0.3093 -0.2650 -0.1779
12996TIP3    H160403   4.823   6.573  11.966  0.3341  0.4240  0.0418
12996TIP3    H260404   4.877   6.554  12.106 -0.1319  2.7909  0.5846
12997TIP3   OH260405   5.419   3.218  15.178  0.6143  0.4362  0.4004
12997TIP3    H160406   5.482   3.245  15.245  0.4544 -0.1194  0.7876
12997TIP3    H260407   5.391   3.131  15.207  0.3692  0.2921 -0.2712
12998TIP3   OH260408   3.267   3.576   1.551  0.0138 -0.0218 -0.1264
12998TIP3    H160409   3.255   3.623   1.468 -1.6648 -2.6926 -1.5310
12998TIP3    H260410   3.286   3.486   1.524  4.1950 -0.1420  2.3873
12999TIP3   OH260411   5.886   5.519   0.527 -0.4339  0.0345  0.6646
12999TIP3    H160412   5.891   5.613   0.545 -1.4666  0.8944 -2.8472
12999TIP3    H260413   5.796   5.496   0.547 -0.6494  0.2070 -0.0866
13000TIP3   OH260414   3.639   5.582   2.619 -0.6093  0.0674  0.5280
13000TIP3    H160415   3.615   5.507   2.673  1.1801 -0.2575  0.9526
13000TIP3    H260416   3.710   5.624   2.668  0.0067  0.6563 -0.8421
13001TIP3   OH260417   3.045   3.742  11.760 -0.6124 -0.3388 -0.3685
13001TIP3    H160418   3.108   3.671  11.755  1.8507  1.7402 -0.7292
13001TIP3    H260419   3.009   3.749  11.671  0.5633  0.0293 -0.8386
13002TIP3   OH260420   1.337   4.786  13.410 -0.4338 -0.1308  0.7382
13002TIP3    H160421   1.340   4.700  13.368 -0.3796  0.5736 -0.7435
13002TIP3    H260422   1.245   4.812  13.407 -0.3234  0.2321  0.3940
13003TIP3   OH260423   1.898   2.964  14.220  0.2542  0.2679 -0.4616
13003TIP3    H160424   1.863   3.014  14.293  0.7030 -0.5185  0.3166
13003TIP3    H260425   1.826   2.907  14.193  1.1996 -2.3090  2.0007
13004TIP3   OH260426   5.991   3.629   5.496 -0.2117  0.1391 -0.0985
13004TIP3    H160427   5.908   3.676   5.499 -0.6952 -0.6736 -0.3909
13004TIP3    H260428   5.984   3.572   5.419  0.7081  0.2328 -0.2589
13005TIP3   OH260429   4.103   0.302  12.564  0.1624 -0.1191 -0.2570
13005TIP3    H160430   4.082   0.394  12.547 -2.6064 -1.0188 -2.4265
13005TIP3    H260431   4.018   0.259  12.572  1.3664 -2.2805  2.4823
13006TIP3   OH260432   5.673   5.304   1.146 -0.4096 -0.5794  0.2319
13006TIP3    H160433   5.743   5.369   1.159 -1.5318  1.3731 -2.6303
13006TIP3    H260434   5.703   5.228   1.195  2.8709  0.7639  0.5904
13007TIP3   OH260435   3.442   6.756   4.562 -0.2314  0.0024 -0.0930
13007TIP3    H160436   3.505   6.702   4.611  0.7519  1.3851  0.2241
13007TIP3    H260437   3.396   6.806   4.629  1.2615  2.0553 -0.5133
13008TIP3   OH260438   2.795   3.136   6.452 -0.3057  0.2762  0.2246
13008TIP3    H160439   2.749   3.220   6.440 -0.6359  0.1424  0.5158
13008TIP3    H260440   2.743   3.091   6.519 -0.2752 -0.2642 -0.1116
13009TIP3   OH260441   1.232   1.407   2.575 -0.1225 -0.0127 -0.3726
13009TIP3    H160442   1.162   1.442   2.631 -0.7368 -1.7430 -0.0049
13009TIP3    H260443   1.298   1.476   2.574  0.3064 -0.1752  3.1931
13010TIP3   OH260444   3.695   4.610   2.371 -0.2268 -0.5600  0.9083
13010TIP3    H160445   3.758   4.540   2.356 -0.7767 -0.5397 -1.8942
13010TIP3    H260446   3.750   4.687   2.387  0.7845 -0.0669 -3.5226
13011TIP3   OH260447   3.742   6.117  12.108 -0.4739 -0.6772  0.0170
13011TIP3    H160448   3.794   6.041  12.082 -0.0293 -0.4324  0.1921
13011TIP3    H260449   3.701   6.146  12.026  1.5813  0.5969 -0.6091
13012TIP3   OH260450   6.278   1.398   5.733  0.4584  0.1815  0.1182
13012TIP3    H160451   6.249   1.363   5.649 -1.5547  0.8001  0.4937
13012TIP3    H260452   6.219   1.472   5.750  1.6532  0.8770  1.4769
13013TIP3   OH260453   5.674   5.593   2.697 -0.3080  0.0930 -0.0517
13013TIP3    H160454   5.744   5.603   2.633 -0.7249  1.0048 -0.3820
13013TIP3    H260455   5.598   5.567   2.645 -0.2408 -0.8538  0.2985
13014TIP3   OH260456   5.273   4.843   0.824  0.2949 -0.4628 -0.2139
13014TIP3    H160457   5.347   4.813   0.771 -0.5072 -3.1806  0.0711
13014TIP3    H260458   5.256   4.772   0.884 -1.7208  0.6683  0.6431
13015TIP3   OH260459   3.970   2.522  14.165 -0.0715 -0.1197 -0.6911
13015TIP3    H160460   3.919   2.445  14.140 -2.6938  1.9937 -2.4772
13015TIP3    H260461   3.926   2.557  14.241  0.4936  0.1989 -0.5014
13016TIP3   OH260462   4.125   4.426   5.987 -0.8372 -0.1603  0.5266
13016TIP3    H160463   4.190   4.396   6.050  2.5211  3.0554 -1.0471
13016TIP3    H260464   4.075   4.493   6.033 -0.8794 -0.3585  0.7725
13017TIP3   OH260465   0.104   6.433   6.301  0.2131 -0.2413 -0.2666
13017TIP3    H160466   0.134   6.347   6.328  0.5476 -0.9462 -2.6302
13017TIP3    H260467   0.011   6.422   6.281 -0.2307  0.4620  1.3040
13018TIP3   OH260468   0.984   0.173  14.722  0.2353  0.1423  0.0894
13018TIP3    H160469   0.942   0.250  14.683  0.8770  0.4661  0.0279
13018TIP3    H260470   0.979   0.106  14.654  0.8489  0.5333 -0.3445
13019TIP3   OH260471   4.238   2.686   0.729 -0.1513 -0.1373 -0.5726
13019TIP3    H160472   4.270   2.711   0.642 -0.4245  1.3210 -0.2717
13019TIP3    H260473   4.286   2.605   0.749  1.2439  0.4539 -1.3418
13020TIP3   OH260474   3.646   6.470  13.615  0.6315 -0.3829  0.3398
13020TIP3    H160475   3.567   6.416  13.607  0.9084 -0.7528  0.0253
13020TIP3    H260476   3.701   6.422  13.677  0.5916 -0.1094  0.5850
13021TIP3   OH260477   4.139   6.042  15.883  0.3951 -0.3890  0.1195
13021TIP3    H160478   4.174   6.012  15.967 -0.5006 -0.5405  0.4569
13021TIP3    H260479   4.056   6.085  15.906 -1.3610 -2.9924 -0.9418
13022TIP3   OH260480   2.179   5.457   6.688 -0.2045 -0.4598  0.0854
13022TIP3    H160481   2.224   5.502   6.617 -0.2593 -1.0936 -0.3547
13022TIP3    H260482   2.210   5.367   6.685 -0.0129 -0.4427  1.0318
13023TIP3   OH260483   6.597   3.542   2.681  0.1089 -0.1225 -0.2482
13023TIP3    H160484   6.566   3.471   2.736  1.2292  0.3027  1.0185
13023TIP3    H260485   6.548   3.534   2.599  0.3719 -2.4670 -0.2395
13024TIP3   OH260486   5.139   2.099   5.207  0.1315  0.5055 -0.3016
13024TIP3    H160487   5.107   2.086   5.118 -0.9418  2.2898 -0.2219
13024TIP3    H260488   5.064   2.133   5.255  1.5588  2.9571  0.3739
13025TIP3   OH260489   4.082   4.382  13.864 -0.1883  0.0766  0.2977
13025TIP3    H160490   4.020   4.411  13.931 -1.6190  1.0663 -1.3706
13025TIP3    H260491   4.045   4.299  13.832 -0.0733  0.1259  0.0351
13026TIP3   OH260492   3.654   2.358   4.984  0.2359 -0.0354  0.3528
13026TIP3    H160493   3.749   2.344   4.986  0.4310  0.6792 -1.5932
13026TIP3    H260494   3.618   2.273   4.957  0.6406  0.4807 -2.0708
13027TIP3   OH260495   2.138   6.633  13.613  0.3194  0.7810  0.0740
13027TIP3    H160496   2.161   6.631  13.520  0.4840  2.4820  0.0357
13027TIP3    H260497   2.150   6.543  13.643 -0.9284 -0.0916 -1.8241
13028TIP3   OH260498   5.342   4.767   5.176  0.8366  0.0436  0.2210
13028TIP3    H160499   5.333   4.837   5.240  2.0566  1.2739 -0.8731
13028TIP3    H260500   5.370   4.811   5.095  1.7732 -1.6937 -0.4861
13029TIP3   OH260501   0.516   3.195  16.438 -0.0361 -0.0019  0.3513
13029TIP3    H160502   0.470   3.145  16.371  0.9285  0.7188 -0.8882
13029TIP3    H260503   0.472   3.280  16.438  0.5139  0.2860  0.0111
13030TIP3   OH260504   6.554   1.578   5.843  0.4196  0.5826  0.2069
13030TIP3    H160505   6.577   1.506   5.901 -0.1975  0.4461  0.2907
13030TIP3    H260506   6.594   1.655   5.883  0.0147  0.4861  0.8120
13031TIP3   OH260507   1.912   4.256   6.232 -0.5286  0.2997  0.0761
13031TIP3    H160508   1.951   4.308   6.302  0.6361 -0.1357 -0.2168
13031TIP3    H260509   1.932   4.165   6.256  0.5904  0.1733 -1.1923
13032TIP3   OH260510   2.163   4.198   2.254  0.2464  0.1673  0.0097
13032TIP3    H160511   2.112   4.124   2.286 -1.0947  0.9212 -0.2658
13032TIP3    H260512   2.136   4.271   2.310  0.4963  0.7354 -0.5933
13033TIP3   OH260513   1.398   2.950  11.946 -0.0418  0.2815  0.1367
13033TIP3    H160514   1.444   3.033  11.933  0.6091 -0.1517 -0.4017
13033TIP3    H260515   1.468   2.887  11.964 -0.5526 -0.1024  0.8295
13034TIP3   OH260516   3.843   5.034  11.536 -0.2863  0.2593  0.2926
13034TIP3    H160517   3.893   5.115  11.542 -0.4029  0.3777 -0.2871
13034TIP3    H260518   3.817   5.028  11.444 -0.5072 -0.2982  0.3840
13035TIP3   OH260519   0.027   5.787   5.078 -0.4495 -0.4497  0.1989
13035TIP3    H160520   0.118   5.757   5.088 -0.5799 -0.2259  2.9277
13035TIP3    H260521  -0.021   5.708   5.054 -0.2153 -1.8546  3.7199
13036TIP3   OH260522   3.397   3.232  16.774  0.2646 -0.7959  0.4289
13036TIP3    H160523   3.464   3.163  16.781 -0.3122 -1.5235 -0.8456
13036TIP3    H260524   3.314   3.185  16.784 -0.1912 -0.4938 -1.5811
13037TIP3   OH260525   5.741   4.274  10.737  0.2112 -0.5124 -0.0929
13037TIP3    H160526   5.674   4.305  10.676 -1.2342 -1.4010  0.9813
13037TIP3    H260527   5.731   4.178  10.737 -0.7382 -0.4750  2.5079
13038TIP3   OH260528   0.516   5.088   2.038  0.1610 -0.4795 -0.6473
13038TIP3    H160529   0.519   5.182   2.056 -1.0249 -0.4938 -0.3080
13038TIP3    H260530   0.428   5.074   2.001  0.2659 -1.4860 -0.5270
13039TIP3   OH260531   3.275   0.748   0.480 -0.2005 -0.9358 -0.7858
13039TIP3    H160532   3.217   0.785   0.414 -0.1699 -0.8492 -0.7645
13039TIP3    H260533   3.268   0.808   0.554  1.9844  0.6178 -1.7361
13040TIP3   OH260534   1.198   4.727   2.110 -0.0294 -0.1770  0.2946
13040TIP3    H160535   1.216   4.720   2.204  1.0947 -0.7386  0.0452
13040TIP3    H260536   1.123   4.787   2.105  0.8958  1.1459  1.4639
13041TIP3   OH260537   6.677   3.595   6.083  0.6578 -0.4155  0.1576
13041TIP3    H160538   6.629   3.678   6.083  1.4751  0.1006 -1.5618
13041TIP3    H260539   6.636   3.544   6.014  0.7287 -1.1134  0.6250
13042TIP3   OH260540   2.490   0.064   5.278 -0.0919  0.2208 -0.4700
13042TIP3    H160541   2.559   0.127   5.260 -0.5875  1.3373  1.2275
13042TIP3    H260542   2.410   0.105   5.246 -0.2429 -0.1386 -0.5641
13043TIP3   OH260543   5.529   0.031  13.088  0.2152 -0.2839 -0.4258
13043TIP3    H160544   5.589  -0.003  13.022  2.3130 -0.7285  1.5890
13043TIP3    H260545   5.491  -0.048  13.128 -3.3099 -0.0445 -2.8687
13044TIP3   OH260546   6.350   3.667  12.098 -0.4856  0.0986  0.5223
13044TIP3    H160547   6.346   3.602  12.029  0.2460  0.5721  0.0176
13044TIP3    H260548   6.358   3.617  12.179  2.1905 -0.4761  0.0048
13045TIP3   OH260549   5.773   3.730  12.492  0.1628  0.2122  0.1230
13045TIP3    H160550   5.805   3.691  12.411 -0.8140  1.0550 -0.6970
13045TIP3    H260551   5.719   3.662  12.533 -0.0874  0.1013 -0.3922
13046TIP3   OH260552   2.434   6.381   1.947 -0.2007 -0.2308 -0.3729
13046TIP3    H160553   2.373   6.439   1.992 -0.0167  0.4171 -0.9350
13046TIP3    H260554   2.426   6.405   1.854  1.4469  0.4077 -0.3863
13047TIP3   OH260555   0.383   2.160  15.982 -0.3594 -0.1586  0.5454
13047TIP3    H160556   0.292   2.187  15.972 -0.5266 -0.7764  0.3910
13047TIP3    H260557   0.382   2.099  16.056  0.1799  1.0116  1.5603
13048TIP3   OH260558   0.178   1.811   2.241  0.1844 -0.6495 -0.1573
13048TIP3    H160559   0.219   1.884   2.287 -1.5317 -0.6821  1.5449
13048TIP3    H260560   0.206   1.733   2.290 -0.8819 -0.7700  0.2944
13049TIP3   OH260561   1.480   6.308  16.013 -0.2412  0.0901 -0.0344
13049TIP3    H160562   1.513   6.322  16.102 -1.4516 -0.3281  0.4942
13049TIP3    H260563   1.495   6.215  15.997  0.6390  0.3119 -0.5599
13050TIP3   OH260564   4.864   1.905  11.172  0.2953  0.4566 -0.1704
13050TIP3    H160565   4.816   1.921  11.091 -0.9070  1.1330  0.6561
13050TIP3    H260566   4.912   1.824  11.155 -0.5691  0.1414 -1.2623
13051TIP3   OH260567   1.074   4.192  12.131  0.3610 -0.1827  0.3387
13051TIP3    H160568   1.164   4.213  12.106 -0.0128  0.7172 -0.3270
13051TIP3    H260569   1.076   4.100  12.157  1.5427 -0.0694  0.6915
13052TIP3   OH260570   0.403   0.207  12.502 -0.6442 -0.1203  0.1632
13052TIP3    H160571   0.454   0.138  12.546 -1.4186  0.2416  1.6854
13052TIP3    H260572   0.398   0.178  12.411 -1.3914 -2.3856  0.8453
13053TIP3   OH260573   5.580   3.211  17.357  0.2535  0.2949 -0.6533
13053TIP3    H160574   5.611   3.256  17.436  0.0172  0.8869 -0.8934
13053TIP3    H260575   5.485   3.207  17.368  0.2969 -0.3818 -0.5131
13054TIP3   OH260576   0.845   0.538   4.277  0.4653 -0.1180 -0.6503
13054TIP3    H160577   0.895   0.608   4.236 -0.0493  0.3644 -0.4652
13054TIP3    H260578   0.753   0.563   4.262  0.2418 -1.6255 -2.1265
13055TIP3   OH260579   5.035   1.152  14.660 -0.2343 -0.5481  0.2003
13055TIP3    H160580   5.013   1.083  14.597  0.2438 -1.5301  1.0758
13055TIP3    H260581   5.127   1.138  14.680 -0.2718  0.0080  0.8102
13056TIP3   OH260582   2.958   6.156  13.524  0.2810 -0.1710 -0.3690
13056TIP3    H160583   2.942   6.243  13.561 -2.5253 -1.1732  1.0462
13056TIP3    H260584   3.053   6.155  13.506  0.5774  2.7881  0.4334
13057TIP3   OH260585   5.075   6.494   0.646  0.2406 -0.2791  0.4638
13057TIP3    H160586   5.167   6.513   0.663 -0.0703  1.6223  0.1903
13057TIP3    H260587   5.067   6.499   0.551  0.5786 -4.2661  0.0457
13058TIP3   OH260588   1.210   0.050  11.983  0.0088 -0.3940  0.2730
13058TIP3    H160589   1.292   0.005  11.961 -0.0766 -0.6816  0.5277
13058TIP3    H260590   1.235   0.142  11.994  0.3498 -0.5250  0.6226
13059TIP3   OH260591   1.790   5.960  11.985 -0.0244  0.2085  0.0074
13059TIP3    H160592   1.823   5.901  11.916  0.6337 -0.6225  1.0036
13059TIP3    H260593   1.698   5.935  11.996 -0.5824  1.3475 -1.5558
13060TIP3   OH260594   3.620   0.341   3.305 -0.1833 -0.2888 -0.7384
13060TIP3    H160595   3.559   0.414   3.318  1.8459  1.2845  0.6891
13060TIP3    H260596   3.704   0.383   3.286  1.5969 -2.0401  2.3445
13061TIP3   OH260597   3.556   6.679   2.690 -0.5519  0.3171 -0.3128
13061TIP3    H160598   3.606   6.608   2.649 -0.1321  0.1399  0.4870
13061TIP3    H260599   3.467   6.646   2.696  0.5406 -2.9173  5.7439
13062TIP3   OH260600   2.630   5.795  16.749  0.1008 -0.1794  0.0500
13062TIP3    H160601   2.666   5.876  16.712 -1.2953  1.6864  2.4812
13062TIP3    H260602   2.697   5.729  16.732  1.9313  1.7866 -0.7914
13063TIP3   OH260603   3.257   3.478  16.548 -0.2563  0.2913 -0.1437
13063TIP3    H160604   3.283   3.527  16.470  1.1877 -1.8158 -1.0913
13063TIP3    H260605   3.195   3.413  16.516  1.1800 -1.3172  0.1807
13064TIP3   OH260606   0.176   2.373   3.711 -0.2694 -0.3565 -0.4799
13064TIP3    H160607   0.105   2.325   3.668 -0.6635  0.3743 -0.6635
13064TIP3    H260608   0.134   2.453   3.743  0.2934 -0.3047  0.1540
13065TIP3   OH260609   1.683   4.006   2.801  0.1447  0.8360  0.2771
13065TIP3    H160610   1.760   4.062   2.796  1.8109 -1.3805 -2.0973
13065TIP3    H260611   1.616   4.052   2.749  1.1069  1.1682 -0.7095
13066TIP3   OH260612   2.073   1.737   5.993 -0.1065  0.1523 -0.4179
13066TIP3    H160613   2.026   1.689   5.924  0.5484  0.6955 -1.2591
13066TIP3    H260614   2.164   1.708   5.984  0.1989  1.1365 -0.5802
13067TIP3   OH260615   0.282   6.282   4.351  0.3182 -0.5630 -0.0396
13067TIP3    H160616   0.258   6.251   4.264 -0.2863 -0.8854  0.2413
13067TIP3    H260617   0.330   6.363   4.335 -1.4291  0.4119 -0.6091
13068TIP3   OH260618   4.272   5.256   1.476 -0.5918 -0.1462  0.5480
13068TIP3    H160619   4.209   5.284   1.409 -0.1424  1.8303  0.8809
13068TIP3    H260620   4.255   5.163   1.487 -1.4154 -0.2972 -1.5215
13069TIP3   OH260621   1.967   1.745  12.641 -0.3444 -0.1074 -0.1746
13069TIP3    H160622   2.009   1.822  12.679  1.0069 -0.7970 -0.2291
13069TIP3    H260623   1.960   1.683  12.713  0.3854 -0.6706 -0.5800
13070TIP3   OH260624   1.464   4.681   0.390 -0.0004  0.0156 -0.6288
13070TIP3    H160625   1.455   4.733   0.470  0.1071  0.5537 -0.9657
13070TIP3    H260626   1.554   4.648   0.393  0.3194  0.8241 -0.9954
13071TIP3   OH260627   0.532   0.245   3.244  0.0322 -0.3817 -0.0128
13071TIP3    H160628   0.439   0.232   3.263  0.2003  1.1124  2.2286
13071TIP3    H260629   0.536   0.327   3.195  0.1516 -0.3850 -0.0099
13072TIP3   OH260630   6.629   5.263   4.092 -0.0833 -0.0559  0.3607
13072TIP3    H160631   6.649   5.204   4.165  2.2215  2.0098  1.5504
13072TIP3    H260632   6.696   5.243   4.026 -0.0247  0.4032  0.2740
13073TIP3   OH260633   5.977   2.630   0.263 -0.3997  0.4611 -0.2608
13073TIP3    H160634   5.995   2.537   0.271  1.0202  0.6607 -0.7661
13073TIP3    H260635   5.883   2.636   0.250 -0.3123 -1.0483 -1.9936
13074TIP3   OH260636   3.871   4.329  15.871 -0.4534  0.3520  0.2833
13074TIP3    H160637   3.798   4.270  15.853 -1.6648  1.6802  0.6517
13074TIP3    H260638   3.943   4.296  15.817 -1.0146 -1.5398  0.6165
13075TIP3   OH260639   4.286   4.649   0.164 -0.1028 -0.0011 -0.2539
13075TIP3    H160640   4.340   4.668   0.087 -0.4726  0.2981 -0.4466
13075TIP3    H260641   4.347   4.616   0.229  0.4344  0.9926 -0.2289
13076TIP3   OH260642   1.162   4.653  16.862 -0.3074 -0.1554  0.3361
13076TIP3    H160643   1.118   4.712  16.923  2.2132  2.4238 -0.0973
13076TIP3    H260644   1.240   4.624  16.909  0.6961  0.3796 -0.9184
13077TIP3   OH260645   2.316   4.399  12.658  0.4711 -0.0769  0.0402
13077TIP3    H160646   2.275   4.474  12.701 -0.0479 -0.8083  0.8498
13077TIP3    H260647   2.261   4.381  12.582 -0.4390 -0.7197  0.8241
13078TIP3   OH260648   0.282   2.669   0.311  0.5599  0.7818 -0.4209
13078TIP3    H160649   0.342   2.605   0.272  2.2884  1.5612  0.8295
13078TIP3    H260650   0.195   2.633   0.295  1.4449 -1.9667  0.3149
13079TIP3   OH260651   3.067   0.917  11.011 -0.3139  0.1135  0.0725
13079TIP3    H160652   3.132   0.889  10.947  0.0061 -0.4770  0.6424
13079TIP3    H260653   3.037   1.003  10.980  0.1069  0.0021 -0.6527
13080TIP3   OH260654   1.967   4.274  12.656 -0.1511  0.1836 -0.6720
13080TIP3    H160655   2.050   4.304  12.619  0.9107 -1.0465  0.6248
13080TIP3    H260656   1.941   4.200  12.601  1.1418 -1.2851  0.5955
13081TIP3   OH260657   4.679   4.710  15.754  0.0547  0.3253  0.0195
13081TIP3    H160658   4.749   4.727  15.817  0.0894 -0.8625  0.3358
13081TIP3    H260659   4.644   4.625  15.781 -0.6810  0.3323 -0.8878
13082TIP3   OH260660   2.707   3.851   5.815 -0.2920  0.0199  0.1020
13082TIP3    H160661   2.705   3.813   5.728  2.9655 -0.3117  0.0590
13082TIP3    H260662   2.616   3.872   5.834 -1.4140 -2.1532 -2.3403
13083TIP3   OH260663   4.830   5.240  12.462  0.5981  0.0250 -0.0311
13083TIP3    H160664   4.906   5.290  12.429  0.9590 -0.7762 -0.4352
13083TIP3    H260665   4.832   5.159  12.412  0.0250 -0.4084  0.6452
13084TIP3   OH260666   2.299   0.870  15.354  0.3843  0.0704  0.1507
13084TIP3    H160667   2.344   0.793  15.319  0.4687  0.2025 -0.0335
13084TIP3    H260668   2.242   0.835  15.422  2.1098  0.1020  1.6770
13085TIP3   OH260669   6.329   1.963  11.002  0.3356 -0.0136 -0.3222
13085TIP3    H160670   6.265   2.025  10.969 -0.1772 -0.3639  0.0086
13085TIP3    H260671   6.323   1.888  10.942 -1.1022 -0.9551  0.9254
13086TIP3   OH260672   1.396   1.706   3.255 -0.3936 -0.4582  0.2105
13086TIP3    H160673   1.383   1.722   3.161 -0.9435 -1.7417  0.0498
13086TIP3    H260674   1.442   1.784   3.286 -2.1542  0.9882 -0.6644
13087TIP3   OH260675   3.218   5.573   2.035 -0.1351  0.6262 -0.0502
13087TIP3    H160676   3.290   5.624   2.072  0.9926  0.3807 -1.7709
13087TIP3    H260677   3.209   5.498   2.094  1.2775  0.4842  0.0127
13088TIP3   OH260678   5.196   1.576  12.128 -0.2108 -0.1070  0.5279
13088TIP3    H160679   5.116   1.618  12.157 -0.0078  0.3748  0.3970
13088TIP3    H260680   5.216   1.616  12.043  1.2159  1.2270  1.4274
13089TIP3   OH260681   5.151   5.693   5.622 -0.3149  0.7675  0.5575
13089TIP3    H160682   5.127   5.784   5.639 -0.3250  1.1158 -1.1516
13089TIP3    H260683   5.241   5.686   5.654  0.4631  2.0213 -1.1995
13090TIP3   OH260684   0.892   4.504  14.290 -0.5743  0.0913 -0.1297
13090TIP3    H160685   0.825   4.557  14.247 -1.6249 -0.2869  0.9790
13090TIP3    H260686   0.844   4.428  14.323  0.9183 -1.7222 -1.8857
13091TIP3   OH260687   3.094   1.171  13.567  0.1323  0.2091  0.0714
13091TIP3    H160688   3.154   1.245  13.559  1.3414 -0.8345 -0.9908
13091TIP3    H260689   3.149   1.099  13.598 -1.2420 -0.0110  2.1730
13092TIP3   OH260690   4.106   1.202   3.529  0.0855 -0.1241  0.1528
13092TIP3    H160691   4.078   1.254   3.454  1.3731 -0.0353 -0.2898
13092TIP3    H260692   4.158   1.261   3.583  2.4819 -1.1062 -0.8935
13093TIP3   OH260693   0.101   0.914   1.323 -0.1536 -0.1755  0.3572
13093TIP3    H160694   0.099   0.881   1.233 -0.8498 -0.2594  0.3959
13093TIP3    H260695   0.010   0.939   1.341  0.3515  1.9293  0.2576
13094TIP3   OH260696   4.009   0.918  13.849  0.0785 -0.2415 -0.0461
13094TIP3    H160697   3.928   0.898  13.801 -0.3676 -1.4506  1.1414
13094TIP3    H260698   3.989   0.998  13.897 -0.1829 -0.1767 -0.2594
13095TIP3   OH260699   1.011   3.514   5.944 -0.6449  0.3336 -0.3098
13095TIP3    H160700   1.080   3.494   5.881 -0.6624  1.7113 -0.8065
13095TIP3    H260701   1.052   3.502   6.029  0.1510  0.8914 -0.6008
13096TIP3   OH260702   4.370   4.432   6.464  0.2150 -0.2547 -0.4181
13096TIP3    H160703   4.465   4.443   6.458  0.3090 -0.8169  0.0036
13096TIP3    H260704   4.354   4.415   6.557 -0.3238  0.0736 -0.4480
13097TIP3   OH260705   6.730   5.988   2.698  0.0248  0.5222  0.0855
13097TIP3    H160706   6.785   5.979   2.776  0.6893  1.0278 -0.3054
13097TIP3    H260707   6.732   6.082   2.678 -1.4778  0.6431  0.3969
13098TIP3   OH260708   6.039   4.424   6.820 -0.1031  0.0003  0.8639
13098TIP3    H160709   6.020   4.333   6.846 -0.1302  0.1492  1.3648
13098TIP3    H260710   6.075   4.416   6.732  0.1252 -0.5186  1.0009
13099TIP3   OH260711   2.298   3.007   2.409  1.0896 -0.3695 -0.0159
13099TIP3    H160712   2.273   3.099   2.416 -0.4062 -0.6700 -0.9842
13099TIP3    H260713   2.300   2.975   2.499 -1.5253 -0.1521  0.1881
13100TIP3   OH260714   1.921   2.929   5.377  0.2868  0.2561 -0.1809
13100TIP3    H160715   1.944   3.016   5.346  0.0472  0.0704 -0.8931
13100TIP3    H260716   1.873   2.889   5.305 -0.9395  0.0842  0.7107
13101TIP3   OH260717   6.287   1.953  12.704  0.0957 -0.2457 -0.1645
13101TIP3    H160718   6.380   1.931  12.715  0.2949  0.3694 -0.6006
13101TIP3    H260719   6.252   1.952  12.793  0.3564 -1.1858 -0.0621
13102TIP3   OH260720   1.157   3.923   0.090  0.9396  0.7244 -0.4570
13102TIP3    H160721   1.231   3.879   0.130  1.0436  1.0642 -0.2712
13102TIP3    H260722   1.138   3.873   0.011 -0.6884 -1.3353  1.1251
13103TIP3   OH260723   1.126   1.389   4.106 -0.3706  0.0208 -0.0763
13103TIP3    H160724   1.041   1.368   4.068 -0.6683  0.8103  0.1546
13103TIP3    H260725   1.108   1.452   4.175  0.4103  0.2723 -0.0843
13104TIP3   OH260726   2.527   2.738   5.513  0.3103 -0.1886  0.4065
13104TIP3    H160727   2.598   2.746   5.576 -0.3511  0.4579  1.0835
13104TIP3    H260728   2.457   2.694   5.561  0.5241 -1.6222 -0.5082
13105TIP3   OH260729   5.566   4.408  11.866  0.4645 -0.2876 -0.0006
13105TIP3    H160730   5.503   4.411  11.794  2.7438 -2.0346 -2.3021
13105TIP3    H260731   5.514   4.388  11.943 -1.9658  0.1592 -1.4089
13106TIP3   OH260732   1.697   6.369   2.896  0.1858 -0.6795  0.3299
13106TIP3    H160733   1.765   6.307   2.922 -1.3816 -3.0016 -0.7276
13106TIP3    H260734   1.691   6.360   2.801  0.1226  1.4114  0.0771
13107TIP3   OH260735   3.321   0.671  12.122  0.4584  0.3898  0.2142
13107TIP3    H160736   3.379   0.653  12.196 -1.3933 -0.9097  1.4379
13107TIP3    H260737   3.307   0.586  12.081 -0.2443  0.7525 -0.3186
13108TIP3   OH260738   1.368   1.900   0.400  0.0977  0.5598  0.0705
13108TIP3    H160739   1.442   1.877   0.456  1.6820  1.4128 -1.5480
13108TIP3    H260740   1.331   1.979   0.441  0.0761  0.1314  0.8929
13109TIP3   OH260741   5.535   3.696  15.077  0.8135  0.6091 -0.2544
13109TIP3    H160742   5.555   3.670  14.987 -0.8873  0.0083 -0.4858
13109TIP3    H260743   5.444   3.726  15.075  0.0756 -1.2457  1.5913
13110TIP3   OH260744   2.650   4.646  14.650  0.6624  0.1214  0.1087
13110TIP3    H160745   2.701   4.623  14.572  1.3204 -1.1934  0.8755
13110TIP3    H260746   2.702   4.715  14.693  0.7272  0.2584 -0.1882
13111TIP3   OH260747   3.628   0.519  14.896  0.1487  0.5303  0.1546
13111TIP3    H160748   3.664   0.580  14.960  2.7417  0.2928 -0.9460
13111TIP3    H260749   3.616   0.572  14.817  0.6039  0.0428 -0.2499
13112TIP3   OH260750   0.005   2.411   5.858  0.4482  0.0052  0.0636
13112TIP3    H160751  -0.027   2.501   5.858 -0.9657 -0.4780  0.4502
13112TIP3    H260752   0.051   2.402   5.942 -0.2117  0.0952  0.4387
13113TIP3   OH260753   1.571   0.356   3.533 -0.3154 -0.0221  0.3559
13113TIP3    H160754   1.622   0.282   3.564  0.7864  0.8144  0.5864
13113TIP3    H260755   1.513   0.319   3.466  2.0442 -0.6418 -1.4547
13114TIP3   OH260756   1.634   4.234   6.172  0.4120 -0.0074 -0.3903
13114TIP3    H160757   1.588   4.262   6.252  0.2559  2.7569 -1.3602
13114TIP3    H260758   1.726   4.232   6.197  0.2346 -0.8050  0.2649
13115TIP3   OH260759   3.791   6.186  16.747 -0.1997 -0.3827 -0.5758
13115TIP3    H160760   3.770   6.165  16.656  0.1526 -0.2829 -0.6776
13115TIP3    H260761   3.867   6.243  16.742  0.0326 -0.6520 -0.2023
13116TIP3   OH260762   5.778   0.827  14.724 -0.0109 -0.0821  0.0487
13116TIP3    H160763   5.855   0.778  14.754 -0.0313  0.2945  0.7486
13116TIP3    H260764   5.708   0.762  14.723 -0.0697 -0.0610  1.1079
13117TIP3   OH260765   4.302   4.147  11.988 -0.2510 -0.4230 -0.0227
13117TIP3    H160766   4.324   4.054  11.983 -1.0173 -0.7522  2.0163
13117TIP3    H260767   4.207   4.149  11.999  0.0313  0.3837  3.2301
13118TIP3   OH260768   1.059   0.964  16.266 -0.1352 -0.3056 -0.1596
13118TIP3    H160769   0.967   0.943  16.247 -0.1949  0.3954 -0.6796
13118TIP3    H260770   1.055   1.046  16.315  0.2540  0.2832 -1.0816
13119TIP3   OH260771   3.533   5.425   6.453 -0.1862  0.9998  0.0108
13119TIP3    H160772   3.504   5.362   6.519 -0.5744  2.4008  1.2659
13119TIP3    H260773   3.551   5.505   6.504 -0.4280  2.1134 -1.5805
13120TIP3   OH260774   0.041   0.613   4.970  0.2529 -0.6807  0.3533
13120TIP3    H160775   0.105   0.634   4.901  0.3709 -1.2277  0.2929
13120TIP3    H260776   0.026   0.696   5.015  2.0725 -0.8094  1.2700
13121TIP3   OH260777   3.484   2.018   1.576  0.2544 -0.4651 -0.1204
13121TIP3    H160778   3.558   2.020   1.636 -0.0539 -0.8249  0.2774
13121TIP3    H260779   3.435   2.098   1.595  0.5190 -0.2399 -0.3659
13122TIP3   OH260780   4.592   2.987   6.765  0.0030 -0.4326  0.0963
13122TIP3    H160781   4.546   2.910   6.731 -1.0758  0.1263  0.2268
13122TIP3    H260782   4.639   2.955   6.842  1.2894 -1.3923 -1.0384
13123TIP3   OH260783   5.445   4.909  12.464  0.1668  0.1026 -0.0746
13123TIP3    H160784   5.440   4.814  12.461 -1.6090  0.2006 -2.4367
13123TIP3    H260785   5.460   4.936  12.373 -0.0408  2.1023  0.4240
13124TIP3   OH260786   0.410   5.470   0.450  0.3062 -0.0698 -0.2578
13124TIP3    H160787   0.320   5.460   0.419  0.0137 -0.0961  0.5834
13124TIP3    H260788   0.426   5.392   0.503  0.5331  0.3409  0.2889
13125TIP3   OH260789   0.012   2.969  15.291 -0.5516 -0.5698  0.3342
13125TIP3    H160790   0.010   2.876  15.266  2.7734 -0.4989 -0.7065
13125TIP3    H260791  -0.003   3.016  15.209 -1.1290 -0.1727  0.6601
13126TIP3   OH260792   4.577   6.399  14.287  0.0715  0.2977  0.5842
13126TIP3    H160793   4.673   6.402  14.285  0.0442  1.8812 -0.0366
13126TIP3    H260794   4.554   6.316  14.245  1.1560  0.7049 -0.8920
13127TIP3   OH260795   3.979   4.712   2.116  0.5446  0.0164 -0.2880
13127TIP3    H160796   3.956   4.712   2.209 -0.7310  0.2720 -0.5824
13127TIP3    H260797   3.926   4.642   2.078  0.6628  0.2635 -0.9131
13128TIP3   OH260798   2.193   5.680  11.867  0.0650 -0.4899 -0.2202
13128TIP3    H160799   2.222   5.636  11.946  0.9427 -1.4937 -1.0742
13128TIP3    H260800   2.178   5.770  11.894  0.6327 -0.7430  1.0142
13129TIP3   OH260801   3.765   6.346   4.781  0.4316 -0.0936  0.1221
13129TIP3    H160802   3.726   6.270   4.737  1.5305 -0.1270 -0.8560
13129TIP3    H260803   3.710   6.360   4.858  0.2558 -1.9350  0.3860
13130TIP3   OH260804   4.113   6.066   2.067 -0.4145  0.3119 -0.8754
13130TIP3    H160805   4.139   6.153   2.100  0.7597 -0.5132  0.5285
13130TIP3    H260806   4.039   6.041   2.121  0.6299 -0.4493  0.2644
13131TIP3   OH260807   1.948   5.873   2.097 -0.6427 -0.2522  0.4472
13131TIP3    H160808   1.930   5.962   2.127  1.7549 -0.4460  3.0089
13131TIP3    H260809   2.021   5.883   2.036 -0.1569 -0.4150  0.9807
13132TIP3   OH260810   1.747   4.974   4.716  0.1529  0.0966 -0.0942
13132TIP3    H160811   1.726   4.953   4.625 -0.4247  3.5152 -0.8742
13132TIP3    H260812   1.673   4.939   4.766 -1.3085  1.1694 -1.4078
13133TIP3   OH260813   0.003   2.553  16.809 -1.0419 -0.1783 -0.1742
13133TIP3    H160814  -0.014   2.462  16.833  2.3584 -1.5499 -2.3112
13133TIP3    H260815  -0.056   2.569  16.734 -0.8859 -1.0005 -0.4821
13134TIP3   OH260816   1.653   1.934  11.781  0.2585 -0.1693 -0.0376
13134TIP3    H160817   1.636   1.974  11.696 -0.3676 -0.0277  0.1497
13134TIP3    H260818   1.717   1.992  11.823 -2.1589  1.8876  1.0876
13135TIP3   OH260819   4.688   4.520  11.815  0.1129 -0.0373  0.3632
13135TIP3    H160820   4.719   4.432  11.790 -0.4635 -0.6065  1.5607
13135TIP3    H260821   4.593   4.509  11.824  0.1927  0.3407  1.8909
13136TIP3   OH260822   4.851   5.569  16.013 -0.0523 -0.4731  0.1224
13136TIP3    H160823   4.912   5.586  15.941 -0.5618 -2.4214 -0.8552
13136TIP3    H260824   4.765   5.567  15.971 -0.4918 -0.4491  1.0032
13137TIP3   OH260825   5.606   6.544  11.999 -0.3212  0.3374 -0.8547
13137TIP3    H160826   5.536   6.578  12.055 -0.9378 -0.5106 -1.0917
13137TIP3    H260827   5.597   6.592  11.917 -0.8699 -0.0264 -1.0138
13138TIP3   OH260828   6.631   2.499   0.473 -0.2738  0.3874 -0.2521
13138TIP3    H160829   6.696   2.489   0.543  0.0821  1.3071 -0.4353
13138TIP3    H260830   6.599   2.410   0.458  0.5578 -0.0108  0.2111
13139TIP3   OH260831   3.325   2.187   5.077 -0.6041 -0.3182  0.1727
13139TIP3    H160832   3.249   2.187   5.135 -1.2613  2.1932 -0.5533
13139TIP3    H260833   3.392   2.236   5.124  0.0836 -1.2641  0.2038
13140TIP3   OH260834   3.074   3.138  15.454 -0.9136 -0.7532 -0.1924
13140TIP3    H160835   3.037   3.215  15.498 -1.4150 -1.4354  0.6278
13140TIP3    H260836   3.136   3.174  15.391 -0.1878  0.2867  1.0524
13141TIP3   OH260837   0.673   5.786  15.414 -0.2694 -0.2173 -0.3335
13141TIP3    H160838   0.712   5.746  15.336 -0.9115 -0.6349 -0.4499
13141TIP3    H260839   0.748   5.812  15.468  0.3138 -3.7220  0.8709
13142TIP3   OH260840   1.841   1.032  14.007  0.1734  0.1825  0.4466
13142TIP3    H160841   1.821   1.113  13.961 -2.0636 -0.1515  0.7142
13142TIP3    H260842   1.768   0.974  13.987  1.5390 -1.6872  0.5305
13143TIP3   OH260843   0.097   1.999   1.313  0.1228 -0.0965  0.7260
13143TIP3    H160844   0.138   1.922   1.274 -1.2289 -0.1907 -0.6006
13143TIP3    H260845   0.051   1.965   1.390 -0.7124 -0.6997 -0.0146
13144TIP3   OH260846   4.450   4.442   4.913 -0.8499  0.8007  0.6289
13144TIP3    H160847   4.437   4.380   4.841 -0.2145  1.4801 -0.0939
13144TIP3    H260848   4.369   4.493   4.914 -1.1156  0.3795  0.8107
13145TIP3   OH260849   4.069   5.811   4.305  0.0262  0.2226 -0.4587
13145TIP3    H160850   4.052   5.728   4.350 -1.6242 -0.3821 -2.0641
13145TIP3    H260851   4.155   5.799   4.265 -0.2221 -0.7432 -0.7287
13146TIP3   OH260852   1.833   2.341   3.064 -0.2926 -0.5641 -0.7267
13146TIP3    H160853   1.779   2.263   3.077 -1.4875  0.3976  0.3476
13146TIP3    H260854   1.792   2.408   3.119  0.4739  0.9392 -1.9075
13147TIP3   OH260855   3.837   0.720   0.872  0.0456  0.6245 -0.8010
13147TIP3    H160856   3.742   0.710   0.867  0.2038 -1.4530 -0.8026
13147TIP3    H260857   3.852   0.781   0.944 -1.2861  1.6545 -1.3660
13148TIP3   OH260858   6.631   4.632   2.869 -0.6719  0.4222 -0.1155
13148TIP3    H160859   6.671   4.617   2.954 -1.9338  1.4287  0.6761
13148TIP3    H260860   6.626   4.727   2.861  0.3024  0.3787 -1.7519
13149TIP3   OH260861   0.697   2.454  12.123 -0.0480  0.3571 -0.6190
13149TIP3    H160862   0.660   2.440  12.036  2.2955 -2.1810 -1.3216
13149TIP3    H260863   0.786   2.486  12.107 -0.1406  1.5157  0.9196
13150TIP3   OH260864   5.633   1.802  14.278 -0.2138 -0.0808  0.3435
13150TIP3    H160865   5.699   1.866  14.252 -0.9785  0.5217 -0.1513
13150TIP3    H260866   5.684   1.726  14.308  0.6998  0.0785 -0.7381
13151TIP3   OH260867   3.328   1.823   5.471 -0.2577  0.2339  0.7013
13151TIP3    H160868   3.276   1.897   5.502 -0.7331  0.5553 -0.8167
13151TIP3    H260869   3.326   1.829   5.376  0.4712 -1.2049  0.5583
13152TIP3   OH260870   3.677   0.811  11.300  0.2133  0.1537 -0.2446
13152TIP3    H160871   3.676   0.861  11.218 -1.0645 -0.7718 -0.8289
13152TIP3    H260872   3.685   0.720  11.272  0.9595 -0.0942  0.7356
13153TIP3   OH260873   3.056   6.201   2.519  0.4596  0.5338  0.3882
13153TIP3    H160874   3.126   6.140   2.544  1.2030  1.8178  1.5650
13153TIP3    H260875   3.057   6.201   2.424  0.2878 -1.4338  0.3270
13154TIP3   OH260876   6.450   6.512   4.421  0.6990 -0.1606  0.2191
13154TIP3    H160877   6.527   6.524   4.476  1.6554 -1.9679 -0.6452
13154TIP3    H260878   6.379   6.554   4.470  1.9453  0.3256  1.6964
13155TIP3   OH260879   0.963   2.329   2.674  0.3107  0.2668  0.2128
13155TIP3    H160880   0.978   2.277   2.595  2.3517  1.8803 -0.5645
13155TIP3    H260881   1.027   2.295   2.737 -0.6109 -0.3289  0.8468
13156TIP3   OH260882   5.922   6.078   1.365  0.3022 -0.0515 -0.0790
13156TIP3    H160883   5.961   6.020   1.431  1.0359  0.4757 -0.0372
13156TIP3    H260884   5.915   6.023   1.287 -0.6453 -0.7082  0.4366
13157TIP3   OH260885   2.810   5.795   1.541  0.4603  0.1293 -0.4595
13157TIP3    H160886   2.851   5.715   1.508  1.2402  1.2037 -2.2558
13157TIP3    H260887   2.817   5.857   1.468  0.8239  2.1776  1.2227
13158TIP3   OH260888   3.017   0.626   2.916 -0.1409  0.0659  0.3712
13158TIP3    H160889   3.065   0.705   2.891  0.0735 -0.1091  0.2253
13158TIP3    H260890   3.067   0.554   2.877 -1.5350 -0.0029 -1.4254
13159TIP3   OH260891   4.192   4.714  16.979 -0.4310  0.2987 -0.1731
13159TIP3    H160892   4.259   4.781  16.990 -2.4189  2.2741  0.5159
13159TIP3    H260893   4.228   4.656  16.912  0.7305  2.9403 -2.0148
13160TIP3   OH260894   4.679   0.282  14.753  0.2828  0.3909 -0.0716
13160TIP3    H160895   4.724   0.282  14.668 -1.7583  3.2880 -1.3201
13160TIP3    H260896   4.739   0.328  14.812  0.6766  0.5663 -0.6030
13161TIP3   OH260897   2.680   0.256  14.678  0.2854 -0.6206  0.1929
13161TIP3    H160898   2.709   0.165  14.688 -0.6305 -0.6768  3.4405
13161TIP3    H260899   2.591   0.248  14.644  0.6839 -0.8186 -0.8655
13162TIP3   OH260900   2.125   3.183   4.043  0.0020 -0.5906  0.6147
13162TIP3    H160901   2.108   3.260   4.096  0.4330 -0.5860  0.7513
13162TIP3    H260902   2.039   3.145   4.027 -0.6648  1.7342 -2.2669
13163TIP3   OH260903   2.813   4.608  13.424  0.5017  0.3643 -0.3721
13163TIP3    H160904   2.773   4.535  13.378 -0.0432 -0.4395  1.2809
13163TIP3    H260905   2.905   4.606  13.397  0.0653  0.4216 -1.9659
13164TIP3   OH260906   6.320   5.147   1.973  0.3494  0.4931  0.0319
13164TIP3    H160907   6.330   5.078   1.907  0.9665  2.2535 -1.8362
13164TIP3    H260908   6.406   5.153   2.015 -0.2336 -1.0828  1.5225
13165TIP3   OH260909   5.923   0.301  13.740  0.1292  0.0927 -0.3705
13165TIP3    H160910   5.915   0.391  13.708  1.5266  0.2075 -0.4441
13165TIP3    H260911   6.015   0.291  13.761 -0.1894 -1.0197  0.5973
13166TIP3   OH260912   2.092   1.461  15.438 -0.4757 -0.4543  0.1538
13166TIP3    H160913   2.079   1.490  15.528 -0.9042  0.8745 -0.3198
13166TIP3    H260914   2.124   1.371  15.446  0.3171 -0.0566  1.6520
13167TIP3   OH260915   2.229   1.769  11.975  0.4225  0.3515 -0.0500
13167TIP3    H160916   2.135   1.768  11.957  0.4446  0.3322 -0.1586
13167TIP3    H260917   2.260   1.682  11.951  0.1862 -0.1731  1.4480
13168TIP3   OH260918   5.723   6.737   5.078 -0.1586  0.2216  0.3600
13168TIP3    H160919   5.803   6.709   5.124  1.1227  1.3532 -1.1019
13168TIP3    H260920   5.755   6.786   5.002 -2.2636  0.6859 -0.2703
13169TIP3   OH260921   0.808   4.680   2.981  0.7735 -0.2199 -0.3856
13169TIP3    H160922   0.718   4.699   3.008  0.3128 -2.7084  0.1110
13169TIP3    H260923   0.849   4.644   3.059  2.1500  0.5972 -0.6929
13170TIP3   OH260924   1.471   1.713   5.234 -0.1746  0.3312  0.3471
13170TIP3    H160925   1.397   1.743   5.182 -0.3084  1.0561  0.9291
13170TIP3    H260926   1.542   1.702   5.171 -0.6858 -0.0523 -0.1668
13171TIP3   OH260927   4.066   2.966   1.729  0.1891  0.1250 -0.2661
13171TIP3    H160928   4.053   3.048   1.681 -1.4293 -0.3449 -0.6843
13171TIP3    H260929   4.110   2.909   1.668 -0.1147  0.1714 -0.5315
13172TIP3   OH260930   3.443   1.101   4.233  0.4973  0.9268  0.6135
13172TIP3    H160931   3.392   1.040   4.179  1.2658  0.4103  0.4486
13172TIP3    H260932   3.378   1.149   4.283 -0.1275 -2.1846  3.1392
13173TIP3   OH260933   3.969   5.182   4.479  0.3305 -0.0814 -0.8174
13173TIP3    H160934   3.915   5.245   4.527  1.5436  2.3625 -2.4594
13173TIP3    H260935   4.053   5.182   4.526  0.9893  1.1111 -1.9228
13174TIP3   OH260936   2.893   4.812   5.599  0.5016 -0.1125  0.0046
13174TIP3    H160937   2.880   4.810   5.504  2.8301  1.7099 -0.4717
13174TIP3    H260938   2.968   4.754   5.614  0.6435  0.2159  0.6011
13175TIP3   OH260939   1.338   1.315  13.496  0.6884  0.6021 -0.3126
13175TIP3    H160940   1.417   1.329  13.442  0.9075 -2.8960 -1.1909
13175TIP3    H260941   1.307   1.229  13.469 -2.4576  1.0960  1.3252
13176TIP3   OH260942   1.915   2.819   1.328 -0.3646 -0.3936 -0.1490
13176TIP3    H160943   2.008   2.809   1.343 -0.5945 -0.9593  0.9749
13176TIP3    H260944   1.886   2.734   1.295 -0.4585 -0.1555 -0.7052
13177TIP3   OH260945   3.540   4.943   0.176 -0.2882 -0.1191  0.4638
13177TIP3    H160946   3.604   4.880   0.209  2.0886  1.3520 -1.0463
13177TIP3    H260947   3.589   5.026   0.171 -1.9747  0.8337 -1.8119
13178TIP3   OH260948   4.497   4.022   5.086 -0.3228 -0.2643  0.7489
13178TIP3    H160949   4.480   3.931   5.063  0.3202 -0.7313  2.0410
13178TIP3    H260950   4.580   4.020   5.134  1.5317  1.4553 -2.1055
13179TIP3   OH260951   4.358   0.504   0.852  0.2335  0.1423 -0.4406
13179TIP3    H160952   4.440   0.550   0.869  0.4872  0.0296 -1.3166
13179TIP3    H260953   4.357   0.491   0.758  0.0427 -1.4230 -0.2517
13180TIP3   OH260954   6.707   3.196   5.419  0.3075  0.0208  0.3207
13180TIP3    H160955   6.685   3.111   5.382 -1.4291  0.2352  0.8002
13180TIP3    H260956   6.683   3.189   5.512  0.3795  0.9531  0.4168
13181TIP3   OH260957   6.753   2.852   1.458 -0.0967 -0.1863  0.4677
13181TIP3    H160958   6.814   2.778   1.458 -0.3626 -0.4415 -0.9933
13181TIP3    H260959   6.667   2.812   1.469 -0.2703 -0.1641 -0.6210
13182TIP3   OH260960   0.857   6.488   0.654 -0.3045  0.6307  0.0231
13182TIP3    H160961   0.769   6.495   0.689 -0.2739  0.9098  0.0457
13182TIP3    H260962   0.904   6.562   0.693 -0.1602  0.6999 -0.2801
13183TIP3   OH260963   1.755   0.064  11.700 -0.2965  0.2608  0.0839
13183TIP3    H160964   1.818   0.053  11.629  0.1337  0.0656  0.4905
13183TIP3    H260965   1.689   0.124  11.665 -0.5490 -0.5006 -0.7784
13184TIP3   OH260966   3.596   4.580   0.798 -0.1535  0.0469 -0.7612
13184TIP3    H160967   3.637   4.503   0.758  0.7388 -0.0274  0.2573
13184TIP3    H260968   3.604   4.648   0.731  3.4493  0.6028  0.0081
13185TIP3   OH260969   5.213   4.180  17.052 -0.3657  0.1246 -0.2594
13185TIP3    H160970   5.186   4.089  17.044 -0.4466 -0.0140  1.3202
13185TIP3    H260971   5.306   4.180  17.030 -0.6974 -0.0449 -1.8119
13186TIP3   OH260972   6.360   1.711   2.346  0.7092 -0.2769  0.1501
13186TIP3    H160973   6.439   1.739   2.393  0.9541 -2.1403  0.9747
13186TIP3    H260974   6.301   1.680   2.415 -0.4041  0.2828 -0.5300
13187TIP3   OH260975   4.002   2.779  16.209  0.1777 -0.4586  0.5288
13187TIP3    H160976   4.026   2.844  16.275  1.9607 -1.1645  0.6351
13187TIP3    H260977   4.074   2.781  16.146  0.0945 -2.0439  0.3325
13188TIP3   OH260978   4.305   2.243   0.710  0.0403  0.0774 -0.6582
13188TIP3    H160979   4.316   2.315   0.772  0.4279  0.1969 -0.8585
13188TIP3    H260980   4.310   2.285   0.624 -1.2792  0.0284 -0.7792
13189TIP3   OH260981   2.308   3.575  13.981 -0.4391 -0.1993 -0.3162
13189TIP3    H160982   2.266   3.614  13.904 -0.1952  0.6505 -0.0300
13189TIP3    H260983   2.390   3.540  13.947 -0.5247 -0.2100 -0.5205
13190TIP3   OH260984   4.880   5.696  13.617 -0.5434 -0.2107 -0.9155
13190TIP3    H160985   4.957   5.735  13.658 -0.3005 -1.9585  0.3995
13190TIP3    H260986   4.836   5.650  13.689 -0.8321 -2.2877 -2.3474
13191TIP3   OH260987   0.695   1.212   6.413  0.0486  0.7189 -0.0885
13191TIP3    H160988   0.765   1.158   6.450 -2.5001 -0.2912  3.7924
13191TIP3    H260989   0.671   1.167   6.331  1.2213 -1.2573  0.5857
13192TIP3   OH260990   0.114   3.788  16.461 -0.1633 -0.5947  0.8033
13192TIP3    H160991   0.043   3.739  16.420  0.5481 -0.7848 -0.2451
13192TIP3    H260992   0.170   3.816  16.388  0.8466 -0.4665  1.5975
13193TIP3   OH260993   1.466   0.014  11.913  0.2444 -0.4312 -0.3284
13193TIP3    H160994   1.509  -0.036  11.982  2.5263 -1.6509 -2.4438
13193TIP3    H260995   1.491   0.105  11.930  2.0640 -0.8848 -0.3448
13194TIP3   OH260996   6.606   6.564   4.634 -0.5823 -0.6584 -0.3391
13194TIP3    H160997   6.667   6.518   4.692 -0.1037 -0.0380 -0.3292
13194TIP3    H260998   6.558   6.623   4.693  0.6493  0.7559 -0.6765
13195TIP3   OH260999   2.318   5.170   5.084 -0.6020  0.0495 -0.0960
13195TIP3    H161000   2.300   5.128   5.000 -1.4291  1.9155 -0.9111
13195TIP3    H261001   2.231   5.185   5.122 -0.3398  0.9265  0.1886
13196TIP3   OH261002   4.359   3.711   6.305 -0.4983 -0.5016  0.3638
13196TIP3    H161003   4.281   3.673   6.346 -0.9249  0.0065  0.0272
13196TIP3    H261004   4.327   3.789   6.260  0.2592 -0.1078  0.4956
13197TIP3   OH261005   4.105   0.008  11.643 -0.3490  0.1726 -0.0449
13197TIP3    H161006   4.136  -0.083  11.642  0.1136  0.3355 -1.1387
13197TIP3    H261007   4.057   0.015  11.726  0.4627 -0.7768  0.5354
13198TIP3   OH261008   5.973   1.523  17.173  0.3649 -0.7184  0.2114
13198TIP3    H161009   5.944   1.548  17.085  0.7039 -1.7253 -0.2025
13198TIP3    H261010   5.986   1.606  17.219  2.1166 -0.1032 -1.3020
13199TIP3   OH261011   0.864   3.459   2.022  0.3027  0.0473  0.2009
13199TIP3    H161012   0.798   3.518   1.987  1.1026  0.4202 -0.7211
13199TIP3    H261013   0.817   3.406   2.086 -0.6722  0.9339  0.2474
13200TIP3   OH261014   0.166   2.598   4.900 -0.2321  0.1330 -0.6418
13200TIP3    H161015   0.149   2.689   4.924 -0.9344 -0.0100 -0.5831
13200TIP3    H261016   0.205   2.560   4.979 -0.2850  0.2838 -0.5418
13201TIP3   OH261017   0.226   5.537  11.672 -0.1201 -0.2910 -0.4977
13201TIP3    H161018   0.148   5.584  11.643 -1.1773 -0.7468  1.4467
13201TIP3    H261019   0.193   5.461  11.720  1.5537 -1.9032 -1.7368
13202TIP3   OH261020   0.825   2.785   6.490  0.7385 -1.0802  0.2924
13202TIP3    H161021   0.765   2.857   6.507  1.6871 -0.8974  3.6876
13202TIP3    H261022   0.892   2.822   6.432  0.1623  0.1749  0.3940
13203TIP3   OH261023   6.075   2.330  13.067 -0.5620  0.0369  0.0875
13203TIP3    H161024   6.080   2.413  13.020 -0.0614 -0.0091  0.0451
13203TIP3    H261025   6.069   2.264  12.998  0.5627 -0.0581  0.0512
13204TIP3   OH261026   1.224   6.740  15.676  0.6597  0.2898  0.3510
13204TIP3    H161027   1.312   6.751  15.711  0.7266  0.3612  0.1586
13204TIP3    H261028   1.177   6.693  15.745  1.1730 -0.7959 -0.0123
13205TIP3   OH261029   1.153   2.594  15.832 -0.3628 -0.3355  0.0097
13205TIP3    H161030   1.080   2.634  15.880  0.4480 -0.9532  1.8209
13205TIP3    H261031   1.213   2.667  15.816 -2.0254  0.5530 -2.9995
13206TIP3   OH261032   6.469   6.519  12.489  0.1426 -0.0496  0.5229
13206TIP3    H161033   6.553   6.491  12.525  0.0161  1.1507  1.8453
13206TIP3    H261034   6.488   6.603  12.446  0.1525 -1.1257 -1.7201
13207TIP3   OH261035   5.368   3.338  15.645  0.3127  0.1255  0.5532
13207TIP3    H161036   5.393   3.246  15.654 -0.0077  0.1353  1.7481
13207TIP3    H261037   5.451   3.385  15.632  0.4007 -0.4139 -1.0457
13208TIP3   OH261038   2.353   1.600  14.750  0.1641  0.8536  0.0614
13208TIP3    H161039   2.339   1.566  14.838 -1.7890  0.9617 -0.1812
13208TIP3    H261040   2.304   1.541  14.693  0.8411  1.1854 -0.8950
13209TIP3   OH261041   3.795   1.683   3.775  0.4590 -0.3097  0.4757
13209TIP3    H161042   3.714   1.668   3.726  0.0669 -2.3052  1.6175
13209TIP3    H261043   3.857   1.620   3.738  1.4479  0.9681 -0.1579
13210TIP3   OH261044   4.758   0.627   5.901  0.3482 -0.5341 -0.0606
13210TIP3    H161045   4.793   0.583   5.979 -0.4814  0.0210  0.6489
13210TIP3    H261046   4.702   0.697   5.936  1.8531  1.2977 -1.1251
13211TIP3   OH261047   4.865   2.521   2.607 -0.1953 -0.0444 -0.3111
13211TIP3    H161048   4.872   2.465   2.530  0.3857  0.1065 -0.3742
13211TIP3    H261049   4.836   2.606   2.573 -0.9779 -0.2722 -0.2278
13212TIP3   OH261050   1.953   6.443   2.403 -0.7195  0.4450 -0.1567
13212TIP3    H161051   2.025   6.464   2.344 -0.1303 -0.9474  0.0342
13212TIP3    H261052   1.977   6.485   2.486  1.7738 -2.8543  1.0311
13213TIP3   OH261053   3.826   6.380   0.976 -0.4968  0.1877  0.1829
13213TIP3    H161054   3.799   6.293   1.007 -0.5470  0.1449  0.0250
13213TIP3    H261055   3.920   6.372   0.961 -0.2617  0.5462  1.4181
13214TIP3   OH261056   4.897   0.253  11.953  0.2170 -0.4029 -0.0930
13214TIP3    H161057   4.867   0.207  12.031 -0.7210 -0.8800 -0.7291
13214TIP3    H261058   4.854   0.338  11.958  0.1727 -0.4257 -0.0920
13215TIP3   OH261059   4.213   0.717   3.051  1.0097 -0.4670  0.2900
13215TIP3    H161060   4.274   0.763   3.108  1.7173 -1.1971  0.1453
13215TIP3    H261061   4.263   0.699   2.971 -0.1817  1.1856 -0.9009
13216TIP3   OH261062   5.157   5.063  14.307  0.1757  0.8545 -0.4210
13216TIP3    H161063   5.189   5.103  14.388 -0.4839  0.8711 -0.1603
13216TIP3    H261064   5.232   5.066  14.247  1.2852 -0.8201  0.7637
13217TIP3   OH261065   4.095   6.527  15.578  0.4425  0.0454 -0.8592
13217TIP3    H161066   4.164   6.460  15.581  2.3914  1.9378 -1.1126
13217TIP3    H261067   4.110   6.579  15.657 -0.3261  0.8618 -1.2394
13218TIP3   OH261068   1.142   6.681  15.921 -0.0954 -0.0852  0.0271
13218TIP3    H161069   1.182   6.725  15.996  1.0884 -2.2848  0.7509
13218TIP3    H261070   1.070   6.631  15.959  1.9560 -3.1193  0.2012
13219TIP3   OH261071   2.718   3.257   2.825 -0.0293  0.0476 -0.2386
13219TIP3    H161072   2.711   3.235   2.732  0.0316 -0.3237 -0.1553
13219TIP3    H261073   2.687   3.179   2.871 -0.1191  0.2524  0.0538
13220TIP3   OH261074   3.743   6.142  10.668  0.2593  0.5323  0.1855
13220TIP3    H161075   3.814   6.083  10.646 -0.0759 -0.0611  0.6683
13220TIP3    H261076   3.664   6.088  10.663  0.0063  0.8020  1.1571
13221TIP3   OH261077   5.054   5.107  11.932  0.2330  0.4060  0.2363
13221TIP3    H161078   5.086   5.113  11.842  1.0546  1.9569  0.5905
13221TIP3    H261079   4.985   5.041  11.929 -1.4544  2.0862 -2.0665
13222TIP3   OH261080   5.377   0.605  10.501  0.5813  0.2991 -0.5373
13222TIP3    H161081   5.401   0.519  10.466  2.2264 -0.3749  2.0056
13222TIP3    H261082   5.422   0.667  10.444  1.8435 -0.6720 -0.6487
13223TIP3   OH261083   1.650   3.769   2.616  0.1558  0.7486  0.0571
13223TIP3    H161084   1.716   3.711   2.654 -0.6185  0.4766  1.0368
13223TIP3    H261085   1.671   3.856   2.650  0.1275  0.6998  0.1974
13224TIP3   OH261086   5.774   3.313  12.387 -0.1842  0.4666 -0.2263
13224TIP3    H161087   5.856   3.273  12.358 -0.2144 -0.3497  0.7707
13224TIP3    H261088   5.718   3.240  12.411 -0.9328  1.0478 -0.1596
13225TIP3   OH261089   5.633   0.843   4.897 -0.4074 -0.1619 -0.3229
13225TIP3    H161090   5.660   0.934   4.912 -1.1456  0.0761 -0.3810
13225TIP3    H261091   5.669   0.822   4.811 -0.5321  0.2033 -0.4680
13226TIP3   OH261092   2.403   4.599   3.131 -0.6913  0.2972 -0.4873
13226TIP3    H161093   2.326   4.615   3.186 -0.7752 -0.4471 -0.3756
13226TIP3    H261094   2.385   4.514   3.090  0.9101 -0.8164  0.9918
13227TIP3   OH261095   0.918   1.793   5.432  0.7943 -0.2874  0.4140
13227TIP3    H161096   0.995   1.800   5.377  0.9268 -2.7894  0.1504
13227TIP3    H261097   0.952   1.775   5.520  0.5517 -1.2013  0.3358
13228TIP3   OH261098   0.630   1.419  11.893 -0.1557  0.3435  0.0470
13228TIP3    H161099   0.667   1.457  11.813  1.8172  0.2936  0.8633
13228TIP3    H261100   0.602   1.332  11.868 -0.1008  0.5401 -0.7248
13229TIP3   OH261101   4.988   6.076  16.288  0.9048 -0.0321  0.0454
13229TIP3    H161102   4.905   6.124  16.291  0.6211 -0.2949 -1.9334
13229TIP3    H261103   4.969   5.993  16.333  0.2378  0.0969  0.0108
13230TIP3   OH261104   4.474   4.862  16.653 -0.4293  0.1978  0.3236
13230TIP3    H161105   4.383   4.871  16.682 -0.9026  1.6284 -1.4547
13230TIP3    H261106   4.519   4.937  16.692 -0.1858 -0.0198  0.4701
13231TIP3   OH261107   5.771   5.147  14.732  0.1009  0.0331 -0.2457
13231TIP3    H161108   5.853   5.103  14.753 -0.9891 -1.5693  0.8111
13231TIP3    H261109   5.736   5.098  14.658 -0.0324  0.5613 -0.5356
13232TIP3   OH261110   2.046   0.211   4.100  0.1249 -0.2854 -0.1865
13232TIP3    H161111   2.051   0.128   4.052  1.3179  0.2795 -1.1155
13232TIP3    H261112   2.135   0.224   4.133  0.3283  1.2445 -1.2009
13233TIP3   OH261113   5.853   6.441   2.695  0.0227 -0.1071  0.2200
13233TIP3    H161114   5.909   6.423   2.620  0.1413  0.8077  0.0707
13233TIP3    H261115   5.863   6.365   2.752  0.9339 -0.2425 -0.1028
13234TIP3   OH261116   4.621   2.914   3.759  0.0142  0.0317  0.0314
13234TIP3    H161117   4.642   2.997   3.717 -0.4363 -0.3811 -1.0506
13234TIP3    H261118   4.669   2.848   3.709 -3.1014 -0.8644 -2.0952
13235TIP3   OH261119   4.825   6.501   2.994  0.5810 -0.7582  0.5455
13235TIP3    H161120   4.856   6.568   2.934 -0.7308 -0.3300  0.3108
13235TIP3    H261121   4.799   6.428   2.938 -2.3107  0.2978  0.3535
13236TIP3   OH261122   1.920   3.914   4.310  0.5636  0.1130  0.0238
13236TIP3    H161123   1.946   3.973   4.240  0.2710 -1.0707 -1.1291
13236TIP3    H261124   1.971   3.834   4.295 -2.0734 -1.5089 -1.0742
13237TIP3   OH261125   4.104   6.653   0.796 -0.2331 -0.1623  0.2251
13237TIP3    H161126   4.146   6.640   0.711 -1.8913 -0.5993 -0.5774
13237TIP3    H261127   4.010   6.647   0.777 -0.6434 -0.2266  2.0872
13238TIP3   OH261128   3.524   2.253   2.561  0.0414 -0.1036 -1.0271
13238TIP3    H161129   3.498   2.250   2.653 -1.1144 -1.5820 -1.3568
13238TIP3    H261130   3.564   2.339   2.550 -0.3220  0.3288  0.7138
13239TIP3   OH261131   3.751   0.088  16.014 -0.4524  0.0546 -0.0906
13239TIP3    H161132   3.731   0.175  16.048  1.2260  0.0412  1.0708
13239TIP3    H261133   3.760   0.100  15.920  2.1688  1.7153  0.2814
13240TIP3   OH261134   2.174   5.664  16.094  0.1343  0.3273  0.1850
13240TIP3    H161135   2.148   5.597  16.157  1.9520 -1.5568 -0.9549
13240TIP3    H261136   2.196   5.616  16.014  2.8384  2.0683 -0.2658
13241TIP3   OH261137   5.704   1.285   0.151 -0.5054 -0.5838 -0.3830
13241TIP3    H161138   5.798   1.282   0.137 -0.5224 -0.8047 -0.4546
13241TIP3    H261139   5.668   1.316   0.068 -0.3839  1.0290  0.1294
13242TIP3   OH261140   6.555   0.467   1.922  0.5267 -0.0426 -0.1620
13242TIP3    H161141   6.503   0.523   1.865  1.6523 -0.2795 -1.4421
13242TIP3    H261142   6.494   0.398   1.949 -0.5938  1.2098  0.6402
13243TIP3   OH261143   6.711   6.390  12.519  0.0085 -0.1600 -0.1345
13243TIP3    H161144   6.697   6.368  12.427 -0.2051 -0.0298 -0.1346
13243TIP3    H261145   6.805   6.379  12.532  0.0506 -0.1120 -0.3867
13244TIP3   OH261146   0.443   5.924  17.231  0.2370 -0.2123  0.3514
13244TIP3    H161147   0.511   5.863  17.202  1.8070  0.4083  2.4313
13244TIP3    H261148   0.476   6.010  17.203  0.2394  0.0711  1.1972
13245TIP3   OH261149   3.304   0.607   2.202 -0.2468  0.4952 -0.1501
13245TIP3    H161150   3.285   0.699   2.182 -0.9646  0.4159  0.1304
13245TIP3    H261151   3.229   0.578   2.254  0.5651  0.0976  0.8324
13246TIP3   OH261152   1.095   2.511   6.096  0.2989  0.2754 -0.2847
13246TIP3    H161153   1.023   2.447   6.091  1.7624 -1.3507 -2.2925
13246TIP3    H261154   1.105   2.528   6.190 -2.2015  0.0030  0.0974
13247TIP3   OH261155   3.858   5.233   6.733 -0.3001 -0.2286 -0.7059
13247TIP3    H161156   3.818   5.319   6.742 -1.3732 -0.5884 -1.7772
13247TIP3    H261157   3.936   5.237   6.788 -0.2282  1.4821 -0.8838
13248TIP3   OH261158   2.124   6.021  14.205 -0.3485 -0.0887 -0.0020
13248TIP3    H161159   2.084   5.973  14.132 -2.3150  0.9040  0.3403
13248TIP3    H261160   2.173   5.954  14.254 -2.3929 -1.6510  0.0599
13249TIP3   OH261161   5.953   1.469   0.374  0.4916  0.6758  0.0523
13249TIP3    H161162   5.992   1.382   0.364 -0.2621  0.5184 -1.7729
13249TIP3    H261163   6.013   1.528   0.329  0.4824  0.9698  0.4167
13250TIP3   OH261164   1.650   1.071  16.635 -0.4265  0.0918 -0.4018
13250TIP3    H161165   1.734   1.026  16.628 -1.6807 -2.4469 -0.4128
13250TIP3    H261166   1.670   1.151  16.683  1.6327 -1.6144  1.8761
13251TIP3   OH261167   2.685   0.281  16.008  0.1833  0.0936  0.0060
13251TIP3    H161168   2.631   0.263  16.084 -3.2733  4.2783 -1.0876
13251TIP3    H261169   2.768   0.312  16.044  0.2709 -2.0040  1.8276
13252TIP3   OH261170   0.310   4.236  12.421  0.1589 -0.3989 -0.4290
13252TIP3    H161171   0.282   4.327  12.412  0.2402 -0.1024  1.8008
13252TIP3    H261172   0.232   4.189  12.450  0.6698 -0.5784  0.6945
13253TIP3   OH261173   5.457   2.885   5.512 -0.1716  0.0314 -0.1404
13253TIP3    H161174   5.551   2.866   5.514 -0.1219  0.0722 -1.3660
13253TIP3    H261175   5.423   2.845   5.592  1.1166  1.3859  1.1443
13254TIP3   OH261176   0.203   5.856  12.818 -0.4895  0.0016 -0.1155
13254TIP3    H161177   0.245   5.867  12.904 -1.6227 -1.9053  0.7271
13254TIP3    H261178   0.259   5.794  12.772  0.0801  0.9728 -0.7739
13255TIP3   OH261179   5.887   5.938   6.628 -0.5703 -0.6909  0.0143
13255TIP3    H161180   5.874   5.863   6.570 -0.7083 -0.2152 -0.5758
13255TIP3    H261181   5.979   5.932   6.655 -0.4417 -0.7891 -0.4390
13256TIP3   OH261182   2.310   4.680   5.057 -0.1001 -0.0919 -0.6412
13256TIP3    H161183   2.380   4.625   5.091  0.6550  0.5576 -1.0991
13256TIP3    H261184   2.348   4.721   4.979 -1.0447  0.1525 -0.9800
13257TIP3   OH261185   3.584   3.453   1.197 -0.3330  0.9144  0.1560
13257TIP3    H161186   3.566   3.431   1.106 -1.5026 -0.2032  0.6272
13257TIP3    H261187   3.498   3.466   1.237  0.1961  2.3813  0.8774
13258TIP3   OH261188   2.488   0.792  15.798  0.4026  0.2688 -0.4036
13258TIP3    H161189   2.457   0.732  15.730 -0.2568 -0.5052  0.5524
13258TIP3    H261190   2.535   0.861  15.750 -2.2558  1.1871 -1.9059
13259TIP3   OH261191   4.306   2.067  12.928  0.4143 -0.1126  0.3756
13259TIP3    H161192   4.384   2.015  12.948 -0.2560 -1.0796  0.5451
13259TIP3    H261193   4.250   2.056  13.006  0.3611  1.0598  0.5133
13260TIP3   OH261194   4.479   4.885   0.191 -0.2017  0.5491  0.8169
13260TIP3    H161195   4.478   4.806   0.246  0.1796 -0.4430 -0.5565
13260TIP3    H261196   4.509   4.955   0.250 -0.4512 -0.3327  2.0346
13261TIP3   OH261197   0.308   6.588   0.124  0.2352  0.4099  0.0840
13261TIP3    H161198   0.258   6.518   0.166 -1.2188  0.4778 -1.4331
13261TIP3    H261199   0.377   6.609   0.187 -0.5985 -0.8881  1.5032
13262TIP3   OH261200   4.040   3.636  14.750  0.3221  0.0981  0.6275
13262TIP3    H161201   3.948   3.660  14.737  0.2396  0.6169  1.9562
13262TIP3    H261202   4.089   3.696  14.694 -0.0944  0.8506  1.0442
13263TIP3   OH261203   0.196   4.586   5.456 -0.0989  0.0442 -0.3914
13263TIP3    H161204   0.130   4.654   5.446  0.9937  1.2049  0.1207
13263TIP3    H261205   0.221   4.565   5.366 -0.0658  0.6977 -0.5417
13264TIP3   OH261206   3.315   0.318   3.096  0.0226 -0.2244 -0.8533
13264TIP3    H161207   3.302   0.223   3.106 -0.8904  0.0571  0.9262
13264TIP3    H261208   3.266   0.340   3.016  0.5785 -1.2843 -1.5158
13265TIP3   OH261209   1.610   0.322   2.792 -0.2739 -0.1628 -0.2814
13265TIP3    H161210   1.538   0.263   2.814  0.0620 -0.7731 -0.8069
13265TIP3    H261211   1.571   0.386   2.732 -0.0492 -1.3676 -1.7539
13266TIP3   OH261212   1.488   4.757   2.048 -0.6239 -0.2822  0.6047
13266TIP3    H161213   1.408   4.734   2.094 -0.8275 -0.8155 -0.0027
13266TIP3    H261214   1.540   4.677   2.050 -1.8214 -1.2616 -2.5464
13267TIP3   OH261215   0.503   0.655  15.917  0.2275 -0.0386  0.1265
13267TIP3    H161216   0.436   0.707  15.962  0.1310  0.1551 -0.2319
13267TIP3    H261217   0.500   0.687  15.827 -2.0746 -2.8511 -0.9403
13268TIP3   OH261218   5.702   0.181  12.291  0.7440 -0.1747  0.0329
13268TIP3    H161219   5.726   0.182  12.198  0.7103 -0.6784  0.0149
13268TIP3    H261220   5.774   0.135  12.334  0.5723 -0.2906  0.1986
13269TIP3   OH261221   4.177   1.578  11.323  0.2480  0.4828 -0.5965
13269TIP3    H161222   4.256   1.579  11.376  0.0512 -1.8628 -0.1124
13269TIP3    H261223   4.187   1.501  11.267 -1.0663  0.9533 -1.5255
13270TIP3   OH261224   0.673   1.580  14.521 -0.1598  0.5212 -0.3132
13270TIP3    H161225   0.760   1.594  14.485  0.0606 -0.9040 -0.4143
13270TIP3    H261226   0.687   1.567  14.615 -0.2544  0.3216 -0.3247
13271TIP3   OH261227   3.045   3.066   2.719  0.0341 -0.0195  0.1606
13271TIP3    H161228   3.016   3.094   2.806  1.2036 -1.0677  0.9285
13271TIP3    H261229   3.042   2.971   2.722  0.1299 -0.0733 -0.9491
13272TIP3   OH261230   4.638   1.515  14.243  0.5771  0.3408 -0.0862
13272TIP3    H161231   4.556   1.544  14.204  1.4631  1.3641 -1.2938
13272TIP3    H261232   4.649   1.570  14.321  0.1101  0.1635  0.1073
13273TIP3   OH261233   2.106   4.804  13.933 -0.1411  0.0212 -0.4512
13273TIP3    H161234   2.138   4.875  13.989 -0.4490  0.6035 -1.0036
13273TIP3    H261235   2.153   4.726  13.963  0.4857  0.5340 -0.0933
13274TIP3   OH261236   6.463   1.034  13.991  0.1121  0.5064  0.4743
13274TIP3    H161237   6.524   0.961  13.998  0.3655  0.5748 -0.7400
13274TIP3    H261238   6.378   0.997  14.014  0.3062 -0.0617  0.2974
13275TIP3   OH261239   1.493   5.708  13.220  0.0299  0.0019 -0.0590
13275TIP3    H161240   1.488   5.691  13.314 -2.5843 -3.0643 -0.5710
13275TIP3    H261241   1.434   5.782  13.206 -0.3657 -0.1795  0.5984
13276TIP3   OH261242   3.348   3.975   3.621  0.3802  0.1257 -0.7874
13276TIP3    H161243   3.438   3.954   3.645  0.0989 -0.2898 -0.0539
13276TIP3    H261244   3.295   3.927   3.684 -0.3321  2.2807  0.3481
13277TIP3   OH261245   1.770   5.998   0.162  0.4903 -0.2805  0.4500
13277TIP3    H161246   1.749   5.984   0.255 -1.0215 -1.9083 -0.0836
13277TIP3    H261247   1.706   6.063   0.133  0.2316 -0.5972  0.3022
13278TIP3   OH261248   2.783   4.213   0.477 -0.1785 -0.6319  0.1330
13278TIP3    H161249   2.869   4.220   0.519  0.0728  0.4073 -0.5155
13278TIP3    H261250   2.777   4.291   0.422 -2.0097 -0.0785  1.0360
13279TIP3   OH261251   0.677   4.364  14.399  0.3335 -0.0837 -0.3908
13279TIP3    H161252   0.665   4.406  14.484 -0.7431  0.0797 -0.6132
13279TIP3    H261253   0.604   4.396  14.346  1.1211  0.0049 -1.4505
13280TIP3   OH261254   2.477   0.300   4.011  0.5038 -0.7135 -0.1177
13280TIP3    H161255   2.486   0.217   3.963  1.9098 -0.1053 -0.9697
13280TIP3    H261256   2.395   0.338   3.977 -0.7475 -2.2014  1.0729
13281TIP3   OH261257   6.374   4.139  12.072 -0.5883  0.1949  0.1399
13281TIP3    H161258   6.398   4.231  12.082 -2.1780  0.9658 -2.2928
13281TIP3    H261259   6.443   4.102  12.018 -0.1664  0.0369  0.7744
13282TIP3   OH261260   0.139   2.904   3.395 -0.0942 -0.5401 -0.5172
13282TIP3    H161261   0.119   2.821   3.438  1.2727 -0.7091 -0.1687
13282TIP3    H261262   0.234   2.911   3.399 -0.2251  1.3653  0.0716
13283TIP3   OH261263   0.143   5.153  12.207 -0.1447 -0.0248 -0.1640
13283TIP3    H161264   0.189   5.236  12.199 -1.4349  0.6737 -0.6610
13283TIP3    H261265   0.093   5.145  12.126  0.8871 -1.8908 -0.6683
13284TIP3   OH261266   2.289   3.141  17.028  0.3209  0.3154 -0.9453
13284TIP3    H161267   2.200   3.133  16.996 -0.5834  2.2018  0.8478
13284TIP3    H261268   2.337   3.185  16.957 -1.1206  2.6035 -0.5919
13285TIP3   OH261269   5.410   1.278   1.161  0.1028 -0.2030  0.2337
13285TIP3    H161270   5.451   1.352   1.205 -1.8133  0.0101  1.7697
13285TIP3    H261271   5.474   1.207   1.170 -0.0371 -0.0982  3.2515
13286TIP3   OH261272   3.749   2.837  13.851  0.0355 -0.2531 -0.0682
13286TIP3    H161273   3.668   2.786  13.844 -0.2992  0.0641  1.2692
13286TIP3    H261274   3.762   2.850  13.945  0.8606  0.9389 -0.3185
13287TIP3   OH261275   3.829   4.247   0.940 -0.0519  0.0653 -0.1259
13287TIP3    H161276   3.843   4.338   0.915  0.3474  0.3204  0.9733
13287TIP3    H261277   3.860   4.196   0.865  0.0127  0.8182 -0.6228
13288TIP3   OH261278   3.541   2.213   0.114 -0.3646 -0.3365 -0.4064
13288TIP3    H161279   3.526   2.171   0.199  1.7135 -0.0702  0.1520
13288TIP3    H261280   3.456   2.209   0.070 -1.9564  0.9587  2.3039
13289TIP3   OH261281   3.092   1.753   4.202 -0.5181  0.6354 -0.8019
13289TIP3    H161282   3.084   1.666   4.242 -0.4278  1.1051  0.2505
13289TIP3    H261283   3.002   1.783   4.190 -0.6163 -0.2853 -2.7390
13290TIP3   OH261284   5.748   3.820   6.109 -0.3367  0.5202  0.7384
13290TIP3    H161285   5.770   3.732   6.079 -1.4341  0.9285 -1.4830
13290TIP3    H261286   5.654   3.816   6.128 -0.4295  1.2245  0.4877
13291TIP3   OH261287   1.682   5.766   3.811 -0.0983 -0.3152  0.0615
13291TIP3    H161288   1.639   5.824   3.747  1.9633 -0.0478 -1.1603
13291TIP3    H261289   1.617   5.697   3.828 -1.1654  0.2889 -1.3692
13292TIP3   OH261290   1.011   4.937   5.155 -0.2638 -0.0143  0.1799
13292TIP3    H161291   0.981   4.947   5.245  0.6312  0.6754  0.4124
13292TIP3    H261292   1.078   4.869   5.160  0.4070  0.6376  0.1917
13293TIP3   OH261293   4.977   0.385  16.816  0.0891  0.1286  0.7426
13293TIP3    H161294   5.010   0.424  16.735  2.4065  1.3547  2.1441
13293TIP3    H261295   5.046   0.324  16.843 -1.9294 -2.4598  0.4091
13294TIP3   OH261296   0.960   4.277  14.080  1.1588 -0.7787 -0.1912
13294TIP3    H161297   0.958   4.330  14.160  0.6811 -0.0295 -0.6745
13294TIP3    H261298   0.914   4.197  14.103 -1.2521  0.4623 -0.3781
13295TIP3   OH261299   0.919   6.367   3.156  0.1783  0.0365  0.5035
13295TIP3    H161300   0.892   6.303   3.223 -0.1822  1.2181  1.5226
13295TIP3    H261301   0.880   6.449   3.185  0.2228  0.6332 -1.0579
13296TIP3   OH261302   5.111   1.649  13.394  0.2124  0.0140 -0.1877
13296TIP3    H161303   5.192   1.692  13.367 -0.4438  0.6814 -1.2000
13296TIP3    H261304   5.069   1.625  13.311 -0.9422  0.3042  0.2984
13297TIP3   OH261305   0.732   2.503   1.949 -0.0538  0.0831 -0.1169
13297TIP3    H161306   0.792   2.431   1.968 -0.7295 -0.3395  0.4879
13297TIP3    H261307   0.721   2.500   1.854 -0.7210 -1.1639 -0.0215
13298TIP3   OH261308   2.762   6.182  12.393 -0.2851 -0.0492 -0.7524
13298TIP3    H161309   2.760   6.271  12.429  2.9263 -0.9609  2.3251
13298TIP3    H261310   2.853   6.171  12.363 -0.8514 -2.0013 -1.9198
13299TIP3   OH261311   1.365   4.839   2.437  0.1904 -0.3697  0.6382
13299TIP3    H161312   1.405   4.908   2.490  0.4081 -0.3630  0.4665
13299TIP3    H261313   1.436   4.777   2.422  0.0356 -0.5520  0.6554
13300TIP3   OH261314   2.476   5.033   5.794  0.3443 -0.0851  0.3302
13300TIP3    H161315   2.407   5.017   5.731  0.8577  0.5700 -0.4210
13300TIP3    H261316   2.431   5.066   5.872 -0.3055 -1.0247  0.3662
13301TIP3   OH261317   0.916   3.910   0.292  0.0257  0.5432 -0.3674
13301TIP3    H161318   0.918   3.934   0.385  0.3535 -0.4658 -0.1025
13301TIP3    H261319   1.002   3.936   0.260  0.1395  0.3321 -0.2376
13302TIP3   OH261320   3.516   1.474  14.594  0.6960  1.0762 -0.0104
13302TIP3    H161321   3.525   1.387  14.632  2.4567  1.3739  0.3532
13302TIP3    H261322   3.426   1.500  14.613  0.3800 -0.3373  0.5484
13303TIP3   OH261323   2.536   2.039   2.277 -0.7632  0.2174 -0.1548
13303TIP3    H161324   2.465   2.061   2.338  1.1080  1.1293  1.8519
13303TIP3    H261325   2.582   1.966   2.319  0.9825  1.3097 -0.0617
13304TIP3   OH261326   3.946   1.931  17.205  0.1917  0.5966 -0.1067
13304TIP3    H161327   3.943   1.893  17.118 -0.9709  0.5667 -0.0748
13304TIP3    H261328   3.881   1.881  17.255  1.0048  0.4616  0.8421
13305TIP3   OH261329   5.868   5.407  16.820  0.7703  0.5690 -0.6660
13305TIP3    H161330   5.923   5.335  16.789  0.9688 -0.5576  2.0074
13305TIP3    H261331   5.787   5.400  16.770  1.5112 -0.3223 -1.7622
13306TIP3   OH261332   1.290   5.787   2.543  0.7210  0.5018  0.3220
13306TIP3    H161333   1.284   5.720   2.610 -1.7781  0.3531  0.0370
13306TIP3    H261334   1.306   5.868   2.591  0.6999  0.1391  0.9414
13307TIP3   OH261335   4.532   0.658   1.603 -0.9663  0.2302  0.3235
13307TIP3    H161336   4.439   0.657   1.581 -0.8425 -0.8607 -0.2398
13307TIP3    H261337   4.564   0.573   1.574  0.6813  1.4139 -1.5397
13308TIP3   OH261338   0.534   2.969  10.739 -0.3681  0.2275 -0.0895
13308TIP3    H161339   0.469   3.016  10.687  1.0553  1.3518 -0.9507
13308TIP3    H261340   0.617   2.984  10.692  1.3537  2.7815  3.3218
13309TIP3   OH261341   6.084   4.737  11.236 -0.5279  0.0490 -0.4005
13309TIP3    H161342   6.071   4.823  11.196 -0.4390  0.0599 -0.4062
13309TIP3    H261343   6.110   4.680  11.164  0.7645  0.3319 -0.1790
13310TIP3   OH261344   5.936   3.662  14.970 -0.0747 -0.6565 -0.0713
13310TIP3    H161345   5.957   3.622  14.885  0.5127 -0.4156 -0.0480
13310TIP3    H261346   5.929   3.755  14.952  1.1598 -0.4633  0.3271
13311TIP3   OH261347   4.302   6.387   0.531  0.4953  0.4088 -0.3665
13311TIP3    H161348   4.300   6.300   0.490  1.0780 -0.1175  0.6610
13311TIP3    H261349   4.210   6.411   0.540  0.1124 -1.4407  1.9358
13312TIP3   OH261350   6.566   3.572   0.593 -0.0638  0.4217  0.0551
13312TIP3    H161351   6.543   3.568   0.686 -2.1946  0.9373 -0.4087
13312TIP3    H261352   6.640   3.633   0.589 -0.6679  1.2760  1.2947
13313TIP3   OH261353   5.375   0.677  13.310 -0.5131  0.1303 -0.0289
13313TIP3    H161354   5.467   0.694  13.332 -0.6513 -0.0113  0.6590
13313TIP3    H261355   5.329   0.755  13.340 -0.9330 -0.7605  1.7378
13314TIP3   OH261356   1.419   2.620  12.946 -0.2288 -1.0245 -0.4075
13314TIP3    H161357   1.459   2.626  12.859 -0.4495 -0.7391 -0.4930
13314TIP3    H261358   1.394   2.528  12.955 -0.4658 -0.9976 -0.7671
13315TIP3   OH261359   3.228   6.599   3.588  0.0502 -0.4494 -0.6977
13315TIP3    H161360   3.209   6.565   3.500  0.6414  1.0105 -1.4317
13315TIP3    H261361   3.170   6.675   3.597 -1.0929 -1.4563  0.8170
13316TIP3   OH261362   4.924   4.385  16.999 -0.4767  0.0448 -0.3739
13316TIP3    H161363   4.995   4.347  16.947  0.2356  1.5322 -0.5404
13316TIP3    H261364   4.871   4.310  17.025  1.2702 -1.1567 -0.0686
13317TIP3   OH261365   6.526   5.553   4.068 -0.0559 -0.0058  0.0489
13317TIP3    H161366   6.558   5.463   4.065 -0.1434 -0.0231 -0.4812
13317TIP3    H261367   6.431   5.544   4.076  0.0639  0.0434  2.0441
13318TIP3   OH261368   1.432   0.577  13.174  0.1025  0.1173  0.4990
13318TIP3    H161369   1.442   0.659  13.222  2.1105  1.1270 -1.4531
13318TIP3    H261370   1.368   0.596  13.105  0.1476 -0.1487  0.3798
13319TIP3   OH261371   3.341   1.314   4.637 -0.4359 -0.8842  0.0494
13319TIP3    H161372   3.282   1.389   4.633  2.4565  1.5303 -3.0875
13319TIP3    H261373   3.287   1.240   4.612 -2.9026  0.5051  0.9525
13320TIP3   OH261374   3.280   1.362   2.005  0.3311 -0.7369  0.3564
13320TIP3    H161375   3.195   1.405   2.016  0.0207 -1.6094  1.6167
13320TIP3    H261376   3.335   1.428   1.964 -0.9911 -0.2000 -0.6512
13321TIP3   OH261377   6.583   5.293   4.408 -0.4899  0.0789  0.1087
13321TIP3    H161378   6.509   5.348   4.381 -2.6106 -1.9126  1.4857
13321TIP3    H261379   6.575   5.214   4.354  1.5558  0.3842 -0.7324
13322TIP3   OH261380   3.965   1.879  14.396 -0.5050 -0.4801 -0.3330
13322TIP3    H161381   3.998   1.812  14.457 -0.4679 -0.1106  0.0591
13322TIP3    H261382   3.889   1.916  14.441 -0.3694 -0.0801 -0.4338
13323TIP3   OH261383   2.630   0.050   2.116 -0.2378 -0.1835 -0.5227
13323TIP3    H161384   2.540   0.020   2.131  0.4870 -1.4873  1.6303
13323TIP3    H261385   2.644   0.118   2.183  0.3991 -0.0255 -0.8076
13324TIP3   OH261386   3.574   3.762  15.242 -0.2641  0.3807  0.2717
13324TIP3    H161387   3.651   3.749  15.297 -0.5332 -0.1833  0.5207
13324TIP3    H261388   3.503   3.776  15.304 -1.1631 -3.1980  0.2667
13325TIP3   OH261389   3.600   5.419   6.175  0.0853 -0.7273 -0.5212
13325TIP3    H161390   3.581   5.415   6.269 -1.2582 -0.2319 -0.7344
13325TIP3    H261391   3.604   5.513   6.156 -1.8380 -0.7586 -1.3176
13326TIP3   OH261392   1.133   1.331  14.821 -0.2449  0.4282  0.1576
13326TIP3    H161393   1.148   1.354  14.730 -1.1958  0.0562 -0.1020
13326TIP3    H261394   1.079   1.402  14.856  0.3318  0.7001  0.5001
13327TIP3   OH261395   5.720   6.012   2.243  0.2390  0.1046  0.0444
13327TIP3    H161396   5.749   5.925   2.214 -0.7013 -0.4188  0.6092
13327TIP3    H261397   5.697   6.000   2.335 -0.1692  0.8917  0.0501
13328TIP3   OH261398   6.020   5.740   3.659  0.3592 -0.1651  0.3649
13328TIP3    H161399   6.034   5.747   3.753  0.9205  0.2148  0.2586
13328TIP3    H261400   6.044   5.650   3.638 -2.0707 -1.0184  0.9502
13329TIP3   OH261401   1.992   1.523   5.564 -0.3438  0.4348 -0.4882
13329TIP3    H161402   2.086   1.535   5.547 -0.4302  2.8040  0.3034
13329TIP3    H261403   1.981   1.551   5.655 -1.5100 -2.0236  0.2132
13330TIP3   OH261404   2.212   0.290  17.347  0.3251 -0.2787  0.4535
13330TIP3    H161405   2.174   0.221  17.401 -0.3569  0.7189  1.2979
13330TIP3    H261406   2.291   0.317  17.395  0.8850 -0.8180 -0.1480
13331TIP3   OH261407   0.072   5.539  15.853  0.0297 -0.0864  0.2439
13331TIP3    H161408   0.064   5.634  15.841 -0.3851 -0.2714 -1.1466
13331TIP3    H261409   0.104   5.529  15.942 -1.0748  1.3200  0.8541
13332TIP3   OH261410   2.499   4.814  11.962 -0.2695  0.2483  0.2974
13332TIP3    H161411   2.485   4.841  11.871  0.1350  0.5634  0.3257
13332TIP3    H261412   2.475   4.721  11.963 -0.2101  0.2244 -0.1486
13333TIP3   OH261413   2.916   5.854  13.448 -0.5123 -0.1617  0.4969
13333TIP3    H161414   2.870   5.837  13.531  1.5626 -0.8144  1.5722
13333TIP3    H261415   2.878   5.791  13.387 -0.6866 -1.0474  1.4901
13334TIP3   OH261416   4.515   0.232  15.280 -0.4743  0.1701 -0.1330
13334TIP3    H161417   4.507   0.181  15.199  0.5346 -0.4437  0.1351
13334TIP3    H261418   4.459   0.187  15.343  0.4865 -0.6779  0.1283
13335TIP3   OH261419   0.875   0.693   3.251  0.1544  0.3057  0.2570
13335TIP3    H161420   0.928   0.728   3.179  1.6227 -0.4378  0.9343
13335TIP3    H261421   0.835   0.770   3.291 -0.7903  0.7275 -1.4063
13336TIP3   OH261422   4.544   4.330  12.636 -0.1877 -0.5575 -0.0612
13336TIP3    H161423   4.548   4.238  12.608 -0.0360 -0.4658 -0.3387
13336TIP3    H261424   4.573   4.380  12.560  0.1030 -0.2990  0.2143
13337TIP3   OH261425   5.312   4.836   2.287  0.2777 -0.1121 -0.0591
13337TIP3    H161426   5.324   4.778   2.211 -0.8394  1.1041 -1.2309
13337TIP3    H261427   5.252   4.904   2.255 -1.0047 -0.0791  2.2208
13338TIP3   OH261428   1.021   3.210   0.098  0.3059 -0.8181  0.0388
13338TIP3    H161429   1.099   3.157   0.091  1.6314  0.9232  0.7470
13338TIP3    H261430   0.985   3.214   0.009  1.3637 -1.1436 -0.4099
13339TIP3   OH261431   1.580   0.924   2.306 -0.2325  0.4049 -0.4803
13339TIP3    H161432   1.597   0.956   2.218 -2.0139  0.3120 -0.9054
13339TIP3    H261433   1.512   0.984   2.340 -1.5101 -1.1276 -0.2116
13340TIP3   OH261434   4.900   4.296  13.485  0.2644  0.3227 -0.3681
13340TIP3    H161435   4.832   4.233  13.461 -1.2220  1.2647  1.1656
13340TIP3    H261436   4.978   4.243  13.500 -0.5716 -0.9862 -0.5185
13341TIP3   OH261437   6.134   2.055   0.300  0.3494 -1.2107  0.2200
13341TIP3    H161438   6.091   1.970   0.301 -0.4013 -0.8545 -0.5596
13341TIP3    H261439   6.068   2.115   0.263  1.1276 -0.4434  0.0464
13342TIP3   OH261440   6.059   6.493   1.851  0.1787  0.0398  0.4756
13342TIP3    H161441   6.088   6.565   1.908  3.7524 -0.1886 -0.8162
13342TIP3    H261442   6.127   6.427   1.860  0.3196 -0.5032 -3.0897
13343TIP3   OH261443   3.003   0.597   4.779 -0.8197 -0.1081  0.1839
13343TIP3    H161444   3.032   0.688   4.784  0.2726 -0.4565  0.3117
13343TIP3    H261445   2.908   0.602   4.791 -1.0707  1.2101 -1.8481
13344TIP3   OH261446   4.494   3.101   5.333  0.1305 -0.0748  0.8658
13344TIP3    H161447   4.499   3.051   5.414 -1.1063  0.4855  1.3101
13344TIP3    H261448   4.414   3.071   5.290  1.3050 -1.1377 -0.7115
13345TIP3   OH261449   4.318   0.844  17.166 -0.3810  0.5773 -0.2818
13345TIP3    H161450   4.395   0.788  17.166  0.0719  1.1864  0.3229
13345TIP3    H261451   4.337   0.911  17.099 -0.6314  0.4107 -0.5247
13346TIP3   OH261452   0.391   6.571   3.574 -0.6267  0.0080 -0.2468
13346TIP3    H161453   0.378   6.660   3.541 -1.8269 -0.5666 -1.4211
13346TIP3    H261454   0.312   6.524   3.548 -0.8943 -0.9354  2.0360
13347TIP3   OH261455   5.134   2.214   4.278  0.2745  0.0236 -0.0916
13347TIP3    H161456   5.188   2.259   4.343 -1.7047  1.3782  0.6922
13347TIP3    H261457   5.182   2.133   4.260  1.8011  0.4586  1.6799
13348TIP3   OH261458   4.422   5.619  16.238 -0.5781  0.4716  0.5164
13348TIP3    H161459   4.365   5.666  16.177  0.0991  2.9060  1.6186
13348TIP3    H261460   4.391   5.529  16.235 -1.9652  0.9336 -1.7611
13349TIP3   OH261461   2.889   4.413   2.789  0.1845  0.2203 -0.1405
13349TIP3    H161462   2.889   4.332   2.839  1.1853 -0.0375 -0.5442
13349TIP3    H261463   2.801   4.416   2.749 -0.2847 -0.0359  0.8475
13350TIP3   OH261464   4.804   4.712   0.734  0.1255  0.0963  0.1713
13350TIP3    H161465   4.893   4.744   0.747  0.2888 -0.9738  2.1402
13350TIP3    H261466   4.810   4.653   0.659  0.7224  1.2804 -0.7198
13351TIP3   OH261467   4.808   2.314  13.191  0.3913 -0.0025 -0.0638
13351TIP3    H161468   4.867   2.386  13.212  0.9785 -0.2293 -0.8813
13351TIP3    H261469   4.749   2.351  13.125  1.2010 -0.4835 -1.0816
13352TIP3   OH261470   5.892   1.323  15.457 -0.3758 -0.5787 -0.0229
13352TIP3    H161471   5.868   1.400  15.407 -0.3094 -1.1553 -0.9657
13352TIP3    H261472   5.985   1.309  15.438 -0.7619 -1.8179 -1.1813
13353TIP3   OH261473   1.981   4.239   4.891  0.1020  0.1873 -0.5369
13353TIP3    H161474   1.958   4.325   4.855  0.5223  0.9545  0.9473
13353TIP3    H261475   1.957   4.244   4.983  1.0821 -0.9297 -0.1915
13354TIP3   OH261476   1.840   2.132  11.839 -0.5511 -0.3579 -0.4562
13354TIP3    H161477   1.886   2.080  11.904 -2.0803  0.2290  1.1871
13354TIP3    H261478   1.897   2.131  11.762  1.2059 -1.2757  0.7949
13355TIP3   OH261479   4.717   6.720   4.179 -0.0308 -0.6739 -0.7920
13355TIP3    H161480   4.753   6.745   4.263  0.1754 -0.8543 -0.8252
13355TIP3    H261481   4.623   6.706   4.196 -0.9988  3.6504 -1.5080
13356TIP3   OH261482   1.464   0.813  15.134 -0.0875 -0.0805 -0.2674
13356TIP3    H161483   1.486   0.724  15.163  0.0251  0.1742  0.4548
13356TIP3    H261484   1.376   0.828  15.171  0.3217  0.4878  0.5125
13357TIP3   OH261485   3.929   4.609  16.911 -0.7618 -0.4571  0.2880
13357TIP3    H161486   3.932   4.606  16.815  0.1592 -1.1432  0.3258
13357TIP3    H261487   3.995   4.675  16.935 -0.9892 -0.2882  0.4471
13358TIP3   OH261488   1.302   0.369   1.863 -0.0802  0.2377  0.0601
13358TIP3    H161489   1.389   0.376   1.823 -0.0997 -0.4192 -0.0952
13358TIP3    H261490   1.315   0.307   1.935 -0.7622 -1.0994 -0.9283
13359TIP3   OH261491   1.228   1.163   2.749 -0.4434  0.2074 -0.2780
13359TIP3    H161492   1.233   1.237   2.689  0.1996 -1.3400 -2.2460
13359TIP3    H261493   1.302   1.108   2.726  0.7187  0.2017  2.9773
13360TIP3   OH261494   3.737   5.186   1.190  0.4277  0.4638  0.0912
13360TIP3    H161495   3.778   5.271   1.173 -0.3197  0.6283 -0.9484
13360TIP3    H261496   3.807   5.122   1.173  0.7159  0.8194 -0.0784
13361TIP3   OH261497   3.652   1.811  14.084 -0.2886 -0.1363 -0.0354
13361TIP3    H161498   3.625   1.801  14.175  2.0053  1.2659  0.8966
13361TIP3    H261499   3.663   1.721  14.052 -0.9898 -0.6407  1.0921
13362TIP3   OH261500   6.067   5.595   1.852  0.0107  0.4858 -0.8174
13362TIP3    H161501   6.142   5.581   1.793 -0.8947 -1.8663 -1.5287
13362TIP3    H261502   6.099   5.566   1.938 -0.1250 -0.7309 -1.1631
13363TIP3   OH261503   5.154   5.195  11.627 -0.4017 -0.2734 -0.2619
13363TIP3    H161504   5.160   5.241  11.543 -0.0441  0.4476  0.1525
13363TIP3    H261505   5.060   5.185  11.642 -0.4897  0.4191 -0.3077
13364TIP3   OH261506   1.979   2.987   4.538  0.2659  0.2099  0.7373
13364TIP3    H161507   1.956   2.898   4.511 -0.2898  0.1088  1.5150
13364TIP3    H261508   2.073   2.982   4.558  1.0705  0.6084 -2.3735
13365TIP3   OH261509   3.145   0.831   3.378  0.8792 -0.0917 -0.2037
13365TIP3    H161510   3.206   0.873   3.317 -0.1964  0.0574 -1.2041
13365TIP3    H261511   3.157   0.738   3.363  1.6655 -0.1024  0.4232
13366TIP3   OH261512   1.360   6.354  12.744 -0.0901 -0.1806  0.0631
13366TIP3    H161513   1.279   6.303  12.734  0.5121 -1.2177  0.3526
13366TIP3    H261514   1.392   6.332  12.831  0.0578  0.9055  0.2947
13367TIP3   OH261515   6.005   5.853  14.286  0.1853  0.3524 -0.4544
13367TIP3    H161516   5.924   5.904  14.285  0.2917  0.5430 -2.1226
13367TIP3    H261517   6.067   5.908  14.333 -1.2025 -0.8293  3.1565
13368TIP3   OH261518   2.517   1.301  14.606 -0.5859 -0.3027  0.2562
13368TIP3    H161519   2.434   1.344  14.587 -0.7486 -0.7358 -0.0098
13368TIP3    H261520   2.576   1.332  14.538 -0.3523  0.4954  0.8072
13369TIP3   OH261521   3.760   2.076   2.048 -0.1144  0.0066 -0.2433
13369TIP3    H161522   3.800   2.004   2.096  0.0900  0.9857  1.1250
13369TIP3    H261523   3.666   2.062   2.056 -0.1541 -1.8333 -2.7472
13370TIP3   OH261524   4.128   2.528  11.801  0.0514 -0.1251 -0.3652
13370TIP3    H161525   4.043   2.556  11.837  0.0628 -0.0101 -0.4287
13370TIP3    H261526   4.131   2.434  11.820  0.8842  0.2452  1.6673
13371TIP3   OH261527   1.893   0.676   1.550 -0.5833  0.0805  0.5753
13371TIP3    H161528   1.926   0.616   1.616  1.5443  0.2284 -0.2702
13371TIP3    H261529   1.845   0.743   1.599 -2.3093 -1.7812  1.5903
13372TIP3   OH261530   2.277   2.523  15.347  0.6750  0.0311  0.0576
13372TIP3    H161531   2.225   2.602  15.361  1.2922  0.0418  2.8368
13372TIP3    H261532   2.219   2.451  15.373  0.6233 -0.3378 -1.0271
13373TIP3   OH261533   4.746   0.604   0.411  0.4673 -0.1711 -0.9675
13373TIP3    H161534   4.805   0.578   0.481  0.0675 -0.3178 -0.6795
13373TIP3    H261535   4.661   0.568   0.436  0.1261  0.5222 -1.0870
13374TIP3   OH261536   1.089   6.157   0.542  0.2994  0.0853  0.2173
13374TIP3    H161537   1.031   6.084   0.519 -0.6401 -0.4669  3.7513
13374TIP3    H261538   1.174   6.116   0.559  0.0371 -0.0591  1.2124
13375TIP3   OH261539   2.187   3.088   1.951 -0.2134  0.4707  0.0359
13375TIP3    H161540   2.213   3.104   1.861  0.0148  0.0391  0.0235
13375TIP3    H261541   2.115   3.149   1.966 -1.0386 -0.2653 -0.8117
13376TIP3   OH261542   5.758   6.306   4.969 -0.3386  0.2759 -0.4467
13376TIP3    H161543   5.806   6.244   5.023 -1.2596 -0.2623 -0.2157
13376TIP3    H261544   5.695   6.252   4.921 -1.3054  1.0471 -0.0901
13377TIP3   OH261545   1.580   2.817  12.525  0.2286 -0.1087  0.1101
13377TIP3    H161546   1.500   2.766  12.512 -0.0639 -0.0099  1.4271
13377TIP3    H261547   1.570   2.892  12.466 -1.6409  1.0083  1.7478
13378TIP3   OH261548   2.364   5.368  16.569 -0.4629  0.8967 -0.1825
13378TIP3    H161549   2.442   5.399  16.614  0.5305 -2.0386  0.3822
13378TIP3    H261550   2.376   5.393  16.477 -0.4109  3.1500  0.3964
13379TIP3   OH261551   0.479   4.113   2.470  0.4424 -0.5525 -0.9502
13379TIP3    H161552   0.445   4.095   2.383  0.3219 -0.2837 -0.9603
13379TIP3    H261553   0.406   4.155   2.516  0.1147 -1.7453 -0.3459
13380TIP3   OH261554   2.866   4.389  16.913 -0.0752 -0.0506  0.1844
13380TIP3    H161555   2.960   4.371  16.908 -0.0867 -0.0201 -0.2293
13380TIP3    H261556   2.827   4.330  16.848 -0.5452 -1.3761  1.5986
13381TIP3   OH261557   0.967   0.155  15.941  0.1141  0.0233  0.3354
13381TIP3    H161558   1.016   0.215  15.884  0.5908 -0.9924 -0.3483
13381TIP3    H261559   0.993   0.068  15.912 -1.1934 -0.5347  0.7581
13382TIP3   OH261560   5.805   1.100  14.222  0.3061 -0.4905 -0.3992
13382TIP3    H161561   5.857   1.172  14.186 -0.1741 -0.4828 -1.1076
13382TIP3    H261562   5.736   1.142  14.272  0.9707 -0.5008  0.5518
13383TIP3   OH261563   4.248   4.040  14.808 -0.6537  0.2965 -0.1519
13383TIP3    H161564   4.210   3.993  14.734  0.8113 -0.8686 -0.2045
13383TIP3    H261565   4.296   4.113  14.768  0.1345 -0.3298 -0.3586
13384TIP3   OH261566   0.182   0.885  15.263 -0.1336 -0.3450 -0.2204
13384TIP3    H161567   0.189   0.945  15.189 -1.3948 -0.9734 -0.8819
13384TIP3    H261568   0.262   0.833  15.260  1.5089  1.9143  0.9938
13385TIP3   OH261569   3.227   1.344   5.014 -0.3001  0.1380  0.3175
13385TIP3    H161570   3.146   1.374   4.973  0.2260  1.3712  0.1141
13385TIP3    H261571   3.269   1.425   5.045  2.1093 -0.1017 -1.9515
13386TIP3   OH261572   0.342   3.484   3.195  0.0502 -0.1012  0.2524
13386TIP3    H161573   0.276   3.532   3.145 -1.1219  0.0585  1.9093
13386TIP3    H261574   0.420   3.487   3.139 -1.0902  0.3815 -1.3949
13387TIP3   OH261575   4.619   3.505   0.169 -0.4396 -0.2699 -0.5705
13387TIP3    H161576   4.631   3.460   0.252 -1.6596  0.5419  0.0759
13387TIP3    H261577   4.652   3.594   0.185 -0.1940 -0.2568 -1.1212
13388TIP3   OH261578   6.504   3.313  13.208 -0.6129  0.5009 -0.6593
13388TIP3    H161579   6.505   3.396  13.256  1.1798  0.2484 -0.1748
13388TIP3    H261580   6.455   3.254  13.263  1.1082  0.3173  0.7694
13389TIP3   OH261581   6.476   6.247   4.031  0.2003 -0.2971 -0.2501
13389TIP3    H161582   6.443   6.234   3.942 -0.8525 -0.7752  0.2008
13389TIP3    H261583   6.457   6.165   4.077  0.0792  0.1948  0.6078
13390TIP3   OH261584   3.371   5.779  16.080 -0.1794 -0.3223 -0.1125
13390TIP3    H161585   3.429   5.778  16.155 -0.2281  1.3826 -0.0186
13390TIP3    H261586   3.378   5.691  16.042  2.5592 -0.1314 -0.1998
13391TIP3   OH261587   0.619   4.485   3.740  0.3276  0.6687 -0.0243
13391TIP3    H161588   0.584   4.398   3.717  1.2561  0.7643 -2.0631
13391TIP3    H261589   0.609   4.490   3.835 -1.3310 -0.9631 -0.0330
13392TIP3   OH261590   2.107   3.774   2.166  0.1707 -0.8184  0.6538
13392TIP3    H161591   2.103   3.681   2.144 -1.0072 -0.4554 -0.9239
13392TIP3    H261592   2.063   3.817   2.092 -1.2537  0.8120  2.3440
13393TIP3   OH261593   3.791   2.192   5.550  0.2109  0.4300 -0.2104
13393TIP3    H161594   3.761   2.186   5.640  0.1737  0.3291 -0.2295
13393TIP3    H261595   3.732   2.135   5.501  0.2038  0.5187 -0.3057
13394TIP3   OH261596   4.194   0.115   4.593 -0.5913  0.2230  0.6338
13394TIP3    H161597   4.149   0.188   4.637 -1.5293 -0.0337  0.1368
13394TIP3    H261598   4.130   0.084   4.528  0.8575  0.8054 -1.1514
13395TIP3   OH261599   2.793   3.641   5.413 -0.0002 -0.4623 -0.2092
13395TIP3    H161600   2.714   3.683   5.447  0.9070  0.4824  0.8539
13395TIP3    H261601   2.794   3.555   5.454  1.0368  0.6288  2.2704
13396TIP3   OH261602   5.238   2.150   4.624  0.0220  0.5750  0.0866
13396TIP3    H161603   5.231   2.082   4.691  1.7740  0.8879  0.6194
13396TIP3    H261604   5.290   2.111   4.554 -0.6878  0.6991 -0.5285
13397TIP3   OH261605   5.529   1.529   2.572 -0.3924 -0.1374 -0.1618
13397TIP3    H161606   5.528   1.522   2.477  0.7253  0.1959 -0.2186
13397TIP3    H261607   5.486   1.612   2.591 -2.3732 -1.0956 -0.2371
13398TIP3   OH261608   4.516   6.676  15.573  0.8119  0.4726 -0.6532
13398TIP3    H161609   4.545   6.607  15.632 -3.7025 -0.1065  1.2437
13398TIP3    H261610   4.494   6.630  15.492  2.5210  0.5720 -1.2237
13399TIP3   OH261611   1.125   5.745   0.252  0.5192 -0.3953  0.7955
13399TIP3    H161612   1.102   5.807   0.322  2.6548  0.7247  0.5801
13399TIP3    H261613   1.214   5.717   0.273  1.4623  0.4484 -1.7480
13400TIP3   OH261614   1.385   0.492   0.701  0.2969 -0.3660  0.0021
13400TIP3    H161615   1.341   0.565   0.657  1.0386 -0.2913 -0.6404
13400TIP3    H261616   1.392   0.424   0.634  1.0919 -0.3969  0.1002
13401TIP3   OH261617   2.579   5.986  11.313  0.1514  0.6452  0.0830
13401TIP3    H161618   2.551   5.920  11.249  0.2514 -1.2701  1.9179
13401TIP3    H261619   2.543   6.068  11.279  0.3164 -0.2437 -2.4745
13402TIP3   OH261620   0.850   4.864   4.960 -0.0228 -0.3908 -0.3717
13402TIP3    H161621   0.845   4.938   4.899  2.2413 -0.6102 -0.8971
13402TIP3    H261622   0.927   4.884   5.015  0.6481 -2.3504 -0.5406
13403TIP3   OH261623   5.352   2.296   6.025  0.1911  0.3093 -0.5504
13403TIP3    H161624   5.412   2.269   5.956  0.2607  0.0940 -0.4075
13403TIP3    H261625   5.397   2.369   6.068  0.2655  0.2737 -0.5662
13404TIP3   OH261626   5.923   6.331   6.938 -0.4067 -0.0845 -0.1713
13404TIP3    H161627   5.968   6.248   6.925 -2.5570 -1.0370 -2.2220
13404TIP3    H261628   5.838   6.307   6.975 -1.2700  1.1417 -1.2898
13405TIP3   OH261629   1.374   2.629  16.655  0.2914 -0.3151 -0.2478
13405TIP3    H161630   1.393   2.536  16.671  1.3492 -0.0315  0.2227
13405TIP3    H261631   1.296   2.628  16.600  0.7763 -1.5106 -0.9613
13406TIP3   OH261632   1.565   1.852   4.285 -0.1855 -0.4931 -0.4870
13406TIP3    H161633   1.530   1.859   4.374  2.3141 -0.2680  0.5723
13406TIP3    H261634   1.490   1.868   4.228 -1.5067  1.1571  1.5765
13407TIP3   OH261635   4.759   4.079  13.485  0.6726 -0.7854 -0.2058
13407TIP3    H161636   4.748   4.011  13.551 -1.1516 -0.6035 -0.2485
13407TIP3    H261637   4.670   4.093  13.451  1.0976  1.1624 -0.6348
13408TIP3   OH261638   3.126   6.272   0.478  0.6057 -0.5829 -0.1052
13408TIP3    H161639   3.212   6.309   0.502  0.6861 -1.3277  0.8206
13408TIP3    H261640   3.146   6.183   0.450  0.8184  0.7932 -5.2908
13409TIP3   OH261641   6.628   6.083  12.314  0.6574 -0.5000  0.0038
13409TIP3    H161642   6.697   6.027  12.280 -0.8635 -1.9143 -0.8937
13409TIP3    H261643   6.555   6.072  12.253 -1.3360 -1.2326  2.3327
13410TIP3   OH261644   4.792   6.527   0.447 -0.4490 -0.2461  0.4192
13410TIP3    H161645   4.741   6.528   0.366 -2.4164  1.2837  1.6081
13410TIP3    H261646   4.880   6.554   0.419 -0.7693 -0.9103 -1.3675
13411TIP3   OH261647   2.692   1.858  10.681  0.6638 -0.3124  0.3073
13411TIP3    H161648   2.693   1.767  10.712 -0.0337 -0.9983 -1.5336
13411TIP3    H261649   2.694   1.910  10.761 -0.0851 -1.9547  1.4701
13412TIP3   OH261650   1.321   4.563   4.645  0.0837 -0.1912  0.2070
13412TIP3    H161651   1.354   4.593   4.729  1.2990 -0.9155  0.0014
13412TIP3    H261652   1.393   4.577   4.583 -1.1088  1.2200 -0.9349
13413TIP3   OH261653   3.291   4.966   0.309 -0.0316 -1.1992  0.7920
13413TIP3    H161654   3.367   4.997   0.261 -0.1772  0.0202  1.3163
13413TIP3    H261655   3.283   4.874   0.284 -0.4377 -0.5115 -1.9403
13414TIP3   OH261656   1.435   3.325   3.395 -0.4806 -0.0164 -0.2700
13414TIP3    H161657   1.454   3.410   3.357 -1.1597  0.2473 -0.0393
13414TIP3    H261658   1.340   3.325   3.407 -0.2855 -0.0064  1.5934
13415TIP3   OH261659   6.628   4.625  13.504 -0.1801 -0.0705 -0.2395
13415TIP3    H161660   6.551   4.584  13.542 -0.6354  2.0346  1.3210
13415TIP3    H261661   6.607   4.637  13.411 -0.3859 -2.3745 -0.5301
13416TIP3   OH261662   2.721   1.475   2.541  0.3789  0.0169 -0.1886
13416TIP3    H161663   2.637   1.520   2.552  0.2148 -0.5248  1.0305
13416TIP3    H261664   2.736   1.433   2.626  3.1271  2.1970  0.5400
13417TIP3   OH261665   4.194   1.232   3.064  0.4167 -0.9973 -0.3841
13417TIP3    H161666   4.221   1.187   3.144  1.3772 -0.6662 -0.5020
13417TIP3    H261667   4.264   1.213   3.001 -0.3580 -1.3107 -1.1687
13418TIP3   OH261668   4.648   2.284  14.667 -0.2705 -0.6481 -0.0162
13418TIP3    H161669   4.619   2.192  14.665  1.8492 -1.3789 -0.0719
13418TIP3    H261670   4.740   2.280  14.642  0.2090  1.3741  1.2123
13419TIP3   OH261671   6.698   6.032   5.050 -0.1229 -0.1140 -0.0230
13419TIP3    H161672   6.724   6.061   4.963 -2.6868 -1.0731 -1.2345
13419TIP3    H261673   6.752   5.955   5.068  0.4089  0.0781 -0.7693
13420TIP3   OH261674   2.964   4.751  10.496  0.3746 -0.6448 -0.2300
13420TIP3    H161675   2.870   4.733  10.505  0.0793  0.5559 -0.8096
13420TIP3    H261676   2.986   4.722  10.407  0.6245 -1.1880  0.0034
13421TIP3   OH261677   2.176   5.921  12.007  0.4027 -0.2372 -0.2895
13421TIP3    H161678   2.124   6.001  11.996 -0.3378 -0.5416  0.8445
13421TIP3    H261679   2.230   5.937  12.084  0.2316 -0.8262 -0.0381
13422TIP3   OH261680   2.507   2.618  13.037  0.1598 -0.0393  0.2952
13422TIP3    H161681   2.583   2.573  13.001 -0.7502 -1.2853 -0.1556
13422TIP3    H261682   2.456   2.549  13.079 -1.5276  0.4656 -0.8156
13423TIP3   OH261683   2.211   3.976   6.439  0.9808  0.0925  0.6186
13423TIP3    H161684   2.246   3.893   6.472  0.4775 -0.2379  0.3297
13423TIP3    H261685   2.271   4.042   6.474  2.0081 -0.4703 -0.0395
13424TIP3   OH261686   0.981   0.681   0.110  0.5018  0.3629 -0.5379
13424TIP3    H161687   1.051   0.708   0.170  1.4733  0.1928 -1.5604
13424TIP3    H261688   0.979   0.750   0.043 -2.8968  2.4332  1.3927
13425TIP3   OH261689   1.651   3.612  11.477 -0.3127 -0.2153  0.2947
13425TIP3    H161690   1.704   3.579  11.404  0.3569 -0.1957  0.7533
13425TIP3    H261691   1.598   3.682  11.439  1.9425  1.6312  0.3206
13426TIP3   OH261692   1.531   3.223  13.508  0.0340  0.0301 -0.7440
13426TIP3    H161693   1.546   3.293  13.445  0.0530 -0.7634 -1.6279
13426TIP3    H261694   1.524   3.144  13.456 -2.3447 -0.3421  0.0297
13427TIP3   OH261695   1.012   0.984  15.849  0.6682 -0.1921 -0.0093
13427TIP3    H161696   1.095   0.963  15.893  0.1126  1.0108  1.6876
13427TIP3    H261697   0.944   0.949  15.907 -0.1265 -3.5704 -2.6028
13428TIP3   OH261698   3.113   2.871  13.962 -0.2408 -0.0487 -0.1660
13428TIP3    H161699   3.180   2.879  13.895  0.5502 -0.2879  0.5858
13428TIP3    H261700   3.088   2.779  13.961  0.5130 -0.2729  0.5562
13429TIP3   OH261701   6.483   1.036  13.009 -0.2089  0.2110  0.5296
13429TIP3    H161702   6.408   1.066  13.061  0.4135  0.6834  1.1701
13429TIP3    H261703   6.512   0.956  13.054 -1.0924 -0.7019 -0.4542
13430TIP3   OH261704   5.873   4.322   2.435  0.7131  0.2341  0.0259
13430TIP3    H161705   5.876   4.283   2.348  1.3606  1.6092 -0.5969
13430TIP3    H261706   5.839   4.411   2.420  1.4606  0.7194  1.0795
13431TIP3   OH261707   4.375   3.276  12.170  0.6814 -0.0075  0.2281
13431TIP3    H161708   4.367   3.358  12.122  2.2011  0.2739  0.4091
13431TIP3    H261709   4.464   3.277  12.205  0.7059 -1.7007  0.2944
13432TIP3   OH261710   4.138   4.941   4.920 -0.1631 -0.5945 -0.0170
13432TIP3    H161711   4.080   4.877   4.960 -0.1767  0.0472  1.0300
13432TIP3    H261712   4.104   5.026   4.948 -0.7295 -0.0397 -2.1558
13433TIP3   OH261713   2.319   1.059  12.071  0.9387 -0.2823 -0.4607
13433TIP3    H161714   2.280   1.000  12.136  3.1837 -0.6283  0.6602
13433TIP3    H261715   2.250   1.123  12.053 -0.7866 -1.9119 -0.0267
13434TIP3   OH261716   0.298   6.694   4.488 -0.4976 -0.6598  0.0528
13434TIP3    H161717   0.348   6.613   4.478  1.5333  0.3958  1.0958
13434TIP3    H261718   0.292   6.730   4.400 -1.0429 -1.6952 -0.3534
13435TIP3   OH261719   0.233   6.435   1.013  0.0142  0.4045  0.4850
13435TIP3    H161720   0.167   6.375   0.978 -0.6676  1.5978 -0.3821
13435TIP3    H261721   0.186   6.518   1.023  0.5958  0.5242  2.8350
13436TIP3   OH261722   2.073   2.295   6.116 -0.5127  0.3176  0.1631
13436TIP3    H161723   2.032   2.374   6.083 -2.3832 -1.3153 -1.7673
13436TIP3    H261724   2.004   2.251   6.166  0.3746 -0.2733  0.9086
13437TIP3   OH261725   2.906   5.910  11.856 -0.1865 -0.1500 -0.3754
13437TIP3    H161726   2.812   5.897  11.853 -0.2446 -0.3381  1.2733
13437TIP3    H261727   2.943   5.829  11.821 -0.5841  0.9641 -3.7347
13438TIP3   OH261728   6.245   6.264  12.862 -0.0976 -0.5420  0.0621
13438TIP3    H161729   6.159   6.298  12.883  0.0226 -0.3520  0.2511
13438TIP3    H261730   6.272   6.216  12.941  1.2991  2.0205  1.2450
13439TIP3   OH261731   2.734   1.347   1.569  0.1537 -0.2794  0.3656
13439TIP3    H161732   2.680   1.424   1.591  0.6703  0.2369 -0.1363
13439TIP3    H261733   2.824   1.377   1.583  0.4349 -0.3468 -1.1373
13440TIP3   OH261734   3.723   6.141  16.492 -0.2025 -0.2611  0.1757
13440TIP3    H161735   3.634   6.106  16.489 -0.9111  1.5004 -0.6387
13440TIP3    H261736   3.725   6.208  16.424  1.4931  0.3576  0.7766
13441TIP3   OH261737   2.840   4.514  15.390  0.0280 -0.3175  0.0695
13441TIP3    H161738   2.778   4.565  15.338  0.6353  1.2693  0.8264
13441TIP3    H261739   2.788   4.479  15.461  0.1523  2.2684  1.5800
13442TIP3   OH261740   1.617   3.123   0.953 -0.3783  0.9700 -0.0611
13442TIP3    H161741   1.656   3.118   0.866 -0.1270  0.6449  0.0703
13442TIP3    H261742   1.557   3.049   0.957  1.3891 -0.5060  0.9100
13443TIP3   OH261743   1.349   2.107   0.568  0.4986 -0.4484  0.3714
13443TIP3    H161744   1.259   2.140   0.563  0.5805  0.0751  1.8582
13443TIP3    H261745   1.363   2.090   0.661  2.1965  0.2247  0.2740
13444TIP3   OH261746   3.932   0.481   4.977 -0.4026  0.7135  0.1462
13444TIP3    H161747   4.012   0.518   4.938 -0.7159 -0.2387 -1.5017
13444TIP3    H261748   3.881   0.450   4.902 -0.8842 -1.5416  1.3234
13445TIP3   OH261749   1.308   1.320   3.856 -0.0401 -0.1710 -0.0709
13445TIP3    H161750   1.224   1.291   3.821 -0.2114  0.6380 -0.3302
13445TIP3    H261751   1.363   1.333   3.779  0.7274 -1.8454  0.1332
13446TIP3   OH261752   2.612   6.029   1.289  0.6438 -0.0276 -0.0432
13446TIP3    H161753   2.540   6.004   1.347  1.3517  1.8175  1.7510
13446TIP3    H261754   2.623   5.953   1.232 -1.1188 -1.3326  1.1995
13447TIP3   OH261755   5.104   4.685  12.280  0.3182 -0.1319 -0.2119
13447TIP3    H161756   5.025   4.701  12.331  0.1457 -1.9826  0.1712
13447TIP3    H261757   5.076   4.695  12.189  0.1001  1.0025 -0.0365
13448TIP3   OH261758   3.475   1.863   0.944 -0.7508  0.4178  0.4056
13448TIP3    H161759   3.440   1.920   1.012  1.8878 -0.2597  2.5659
13448TIP3    H261760   3.483   1.777   0.987 -1.8966 -0.8909 -1.8129
13449TIP3   OH261761   6.613   5.146   5.094 -0.3854  0.3557  0.0725
13449TIP3    H161762   6.700   5.138   5.056 -0.6163  2.5305 -1.0331
13449TIP3    H261763   6.610   5.077   5.162  2.8079  1.3282  1.3735
13450TIP3   OH261764   0.561   2.224   1.904  0.1934 -0.1350 -0.1428
13450TIP3    H161765   0.585   2.251   1.816  0.5043 -2.1979 -0.7393
13450TIP3    H261766   0.556   2.128   1.900 -0.8400 -0.2292  1.8108
13451TIP3   OH261767   0.182   0.296  15.903 -0.4584  0.4684 -0.3577
13451TIP3    H161768   0.274   0.306  15.927 -0.2244  2.7901 -1.8584
13451TIP3    H261769   0.171   0.202  15.888  1.0385 -0.1646  2.0094
13452TIP3   OH261770   1.540   1.278  14.188 -0.2763  0.0399  0.3475
13452TIP3    H161771   1.493   1.288  14.105  1.0908  0.9974 -0.3433
13452TIP3    H261772   1.551   1.184  14.199  1.4688 -0.0586 -1.7167
13453TIP3   OH261773   3.658   2.632   4.281 -0.0494 -0.6886 -0.3298
13453TIP3    H161774   3.571   2.598   4.297  0.0649 -1.2139 -0.7755
13453TIP3    H261775   3.648   2.689   4.205 -0.4490  1.1922  1.0711
13454TIP3   OH261776   0.051   1.232  16.697 -0.2043 -0.1872 -0.3466
13454TIP3    H161777   0.098   1.313  16.680  0.9579 -0.2164  2.1798
13454TIP3    H261778   0.091   1.168  16.638  1.3474  0.3194  0.1068
13455TIP3   OH261779   6.548   2.743  15.280  0.3993 -0.8433 -0.1302
13455TIP3    H161780   6.492   2.820  15.271 -0.8210 -1.2510  2.8816
13455TIP3    H261781   6.500   2.673  15.237  0.2566 -0.4923 -0.5540
13456TIP3   OH261782   3.466   0.602  12.344  0.1796 -0.1632  0.4832
13456TIP3    H161783   3.529   0.532  12.326 -0.6408 -1.2202  1.4833
13456TIP3    H261784   3.388   0.555  12.375 -0.3731  1.2045  1.2265
13457TIP3   OH261785   3.171   1.183   5.726 -0.2479  0.0129 -0.2798
13457TIP3    H161786   3.242   1.182   5.790 -0.1055 -0.1171 -0.4421
13457TIP3    H261787   3.211   1.154   5.644  0.5212  3.8831 -1.4579
13458TIP3   OH261788   3.469   1.164   3.905  0.3116  0.3463 -0.6297
13458TIP3    H161789   3.440   1.132   3.820 -0.1034 -0.3319 -0.2424
13458TIP3    H261790   3.429   1.251   3.914  0.8924  0.7029 -1.3997
13459TIP3   OH261791   2.968   1.819  12.772 -0.0899 -0.1477  0.5093
13459TIP3    H161792   3.005   1.902  12.742 -0.4813  0.1865  0.9185
13459TIP3    H261793   2.945   1.836  12.864  0.6684 -0.9989  0.8657
13460TIP3   OH261794   4.255   2.838  15.063  0.0859 -0.3989  0.0545
13460TIP3    H161795   4.303   2.786  15.128  0.2025  0.6193  0.8173
13460TIP3    H261796   4.163   2.831  15.090  0.2584  1.0514  1.1253
13461TIP3   OH261797   4.886   4.604   0.395 -0.1495  0.2796  0.0642
13461TIP3    H161798   4.877   4.536   0.463  2.1107 -0.2149 -0.0533
13461TIP3    H261799   4.875   4.557   0.313 -2.8237  0.8696 -0.0001
13462TIP3   OH261800   2.139   2.493  11.199  0.2988 -0.7411 -0.4885
13462TIP3    H161801   2.138   2.400  11.221 -0.0096 -0.8494 -0.9386
13462TIP3    H261802   2.230   2.520  11.214 -0.2267 -0.3608  2.6547
13463TIP3   OH261803   5.621   0.485  13.878  0.2931 -0.4986  0.2980
13463TIP3    H161804   5.685   0.471  13.949 -0.4267 -1.7533  0.7242
13463TIP3    H261805   5.540   0.445  13.911 -0.3869  0.0022 -0.7371
13464TIP3   OH261806   3.577   4.777  14.650  0.8048  0.2079 -0.3813
13464TIP3    H161807   3.651   4.721  14.676  0.6251  0.3162  0.3720
13464TIP3    H261808   3.521   4.719  14.598  0.5462 -0.3621  0.5148
13465TIP3   OH261809   5.274   2.188  16.056 -0.1536 -0.1857  0.0180
13465TIP3    H161810   5.207   2.237  16.009  0.4091  0.1825 -0.4228
13465TIP3    H261811   5.348   2.249  16.061 -0.1416 -0.2696  1.2469
13466TIP3   OH261812   2.406   4.829   3.482  0.3645 -0.1850 -0.1281
13466TIP3    H161813   2.394   4.803   3.574 -0.0940 -1.1487 -0.4498
13466TIP3    H261814   2.380   4.752   3.432  0.9984  0.1979 -1.0664
13467TIP3   OH261815   5.182   0.120  14.465  0.0895 -0.0651 -0.6821
13467TIP3    H161816   5.262   0.117  14.517 -0.1599  0.2200 -0.2793
13467TIP3    H261817   5.116   0.155  14.524 -1.0314 -2.9072 -0.1032
13468TIP3   OH261818   5.701   6.286   4.005  0.2851 -0.0156  0.4634
13468TIP3    H161819   5.760   6.215   4.028  0.4231  0.0138  0.2058
13468TIP3    H261820   5.715   6.299   3.911 -0.3100 -0.1770  0.3474
13469TIP3   OH261821   2.388   3.018  14.075 -0.0442  0.0731  0.4136
13469TIP3    H161822   2.302   3.060  14.081 -1.0503 -1.9512  0.8708
13469TIP3    H261823   2.372   2.933  14.034  1.9029  0.0157 -0.3824
13470TIP3   OH261824   6.713   3.830   5.099  0.2983 -0.8349  0.7667
13470TIP3    H161825   6.716   3.734   5.101 -1.1023 -0.9100  2.3532
13470TIP3    H261826   6.689   3.855   5.189  0.3665  0.9872  0.3264
13471TIP3   OH261827   1.652   6.076   2.979  0.0403 -0.1263  0.3138
13471TIP3    H161828   1.583   6.043   2.921  0.0999 -3.4711  1.8623
13471TIP3    H261829   1.605   6.123   3.048 -0.3611  0.5655 -0.4240
13472TIP3   OH261830   6.618   6.340   0.997  0.1619  0.1253 -0.3321
13472TIP3    H161831   6.650   6.366   0.910 -0.1217  1.6404 -0.0124
13472TIP3    H261832   6.523   6.340   0.989  0.1462 -0.1797 -0.1445
13473TIP3   OH261833   4.402   0.061  15.119  0.1005  0.0812  0.7266
13473TIP3    H161834   4.312   0.037  15.101  1.0530 -2.5060 -1.2192
13473TIP3    H261835   4.424   0.125  15.051 -0.1799  0.5387  1.0617
13474TIP3   OH261836   5.067   4.571  15.860 -0.4597 -0.2411 -0.0010
13474TIP3    H161837   5.039   4.515  15.788 -1.6594  0.8948 -0.4698
13474TIP3    H261838   5.039   4.525  15.939 -0.9038 -0.5862 -0.3569
13475TIP3   OH261839   3.634   6.140  14.229 -0.1401  0.1597  0.1678
13475TIP3    H161840   3.638   6.143  14.134 -0.2748  2.4068  0.1790
13475TIP3    H261841   3.711   6.189  14.258 -1.7205  2.2522  1.1029
13476TIP3   OH261842   2.925   2.460   4.178 -0.5930  0.1265 -0.1193
13476TIP3    H161843   3.010   2.503   4.174 -0.2975 -0.5307 -1.1002
13476TIP3    H261844   2.916   2.433   4.269  1.1617 -1.6096 -0.4069
13477TIP3   OH261845   4.566   5.884  12.689 -0.3343 -0.0007  0.0977
13477TIP3    H161846   4.516   5.877  12.608 -1.5620 -0.9335  0.9082
13477TIP3    H261847   4.654   5.909  12.660 -0.3932 -1.5628 -1.6462
13478TIP3   OH261848   2.479   3.964  16.891 -0.4527  0.2487  0.0137
13478TIP3    H161849   2.507   4.003  16.974 -2.1424  0.4957  0.5085
13478TIP3    H261850   2.403   3.910  16.915  0.4462 -1.5636 -1.0207
13479TIP3   OH261851   0.023   4.041  15.164  0.1338 -0.0472 -0.1188
13479TIP3    H161852  -0.052   4.101  15.161  0.3691  0.3986  1.8925
13479TIP3    H261853   0.089   4.081  15.108 -0.1584  0.9495  0.2430
13480TIP3   OH261854   0.662   5.043   5.461 -0.0060  0.4380  0.0407
13480TIP3    H161855   0.674   5.090   5.379 -1.2350  1.2592  0.2965
13480TIP3    H261856   0.631   5.110   5.522 -2.5376 -0.7931  0.2357
13481TIP3   OH261857   6.655   1.896  16.315 -0.0896  0.0618 -0.2013
13481TIP3    H161858   6.651   1.869  16.407  2.0617 -0.6588 -0.2707
13481TIP3    H261859   6.706   1.978  16.316  0.3168 -0.1745 -0.7756
13482TIP3   OH261860   1.518   3.043   2.582  0.0894  0.1722  0.5228
13482TIP3    H161861   1.483   3.112   2.526  0.7888  0.0171 -0.1098
13482TIP3    H261862   1.581   2.996   2.527 -0.3752 -0.9703  0.9492
13483TIP3   OH261863   4.700   1.495   0.061  0.0404  0.3425 -0.3180
13483TIP3    H161864   4.646   1.527   0.133  0.0290  1.8543 -0.9594
13483TIP3    H261865   4.789   1.502   0.093 -0.0186  0.0399 -0.0869
13484TIP3   OH261866   0.576   1.703  13.974 -0.3880  0.1218 -0.5503
13484TIP3    H161867   0.488   1.699  14.011  0.2130 -1.1198  0.8527
13484TIP3    H261868   0.633   1.666  14.042  1.6180  3.3520 -0.2609
13485TIP3   OH261869   1.943   3.101   0.219 -0.2446 -0.1842  0.3711
13485TIP3    H161870   1.962   3.166   0.151 -2.3657 -0.7723 -0.8721
13485TIP3    H261871   2.012   3.036   0.210  0.1096  0.2985 -0.5283
13486TIP3   OH261872   2.004   1.540  13.327 -0.2478  0.4251  0.4867
13486TIP3    H161873   2.042   1.546  13.415  0.1582  1.8924  0.2380
13486TIP3    H261874   2.036   1.618  13.282 -3.4117  1.7295  0.2323
13487TIP3   OH261875   2.870   6.552  14.524  0.0950 -0.2283  0.0848
13487TIP3    H161876   2.917   6.539  14.606  1.7911 -0.6518 -0.8968
13487TIP3    H261877   2.932   6.525  14.456  0.0009  3.0748 -1.5360
13488TIP3   OH261878   6.218   1.014  12.665  0.1344  0.0769 -0.3341
13488TIP3    H161879   6.265   1.093  12.693  0.7456  0.9477 -3.4617
13488TIP3    H261880   6.287   0.948  12.654 -0.1863 -0.4658  0.8119
13489TIP3   OH261881   3.664   3.280   5.698 -0.2382 -0.4579 -0.7358
13489TIP3    H161882   3.671   3.210   5.634  1.7598 -0.2548 -0.7949
13489TIP3    H261883   3.620   3.351   5.652 -2.9590 -1.8236 -0.4661
13490TIP3   OH261884   3.945   5.911  10.628  0.2139 -0.2143  0.0954
13490TIP3    H161885   3.930   5.836  10.685  0.3963  1.2306  2.1650
13490TIP3    H261886   4.041   5.921  10.627  0.1489  0.7706  0.9998
13491TIP3   OH261887   5.409   4.375   0.654  0.2475 -0.4270  0.4049
13491TIP3    H161888   5.367   4.337   0.577  0.1919  0.6240 -0.1027
13491TIP3    H261889   5.350   4.446   0.680 -0.7538 -1.9445  2.5955
13492TIP3   OH261890   1.211   0.515  17.270  0.0782  0.0805 -0.1051
13492TIP3    H161891   1.177   0.580  17.208  0.3597 -0.5430 -0.9458
13492TIP3    H261892   1.161   0.435  17.250  0.0336 -0.0743  0.6152
13493TIP3   OH261893   0.274   4.412  16.337  0.0063  0.0937  0.0372
13493TIP3    H161894   0.285   4.337  16.397 -1.2594 -1.0000 -1.0367
13493TIP3    H261895   0.180   4.427  16.336 -0.2615 -1.1333 -3.0457
13494TIP3   OH261896   5.601   1.931   0.995  0.5404 -0.8714 -0.0587
13494TIP3    H161897   5.687   1.892   1.010  0.8950 -0.1217 -0.1063
13494TIP3    H261898   5.619   2.011   0.946 -0.2073 -0.8433 -0.3005
13495TIP3   OH261899   5.550   0.696   4.046 -0.9502 -0.0667 -0.2780
13495TIP3    H161900   5.627   0.682   4.101 -0.9506 -1.1261 -0.5149
13495TIP3    H261901   5.556   0.787   4.019 -1.0521  0.5420  1.6063
13496TIP3   OH261902   3.432   3.525  15.140 -0.0336 -0.3126 -0.3257
13496TIP3    H161903   3.490   3.448  15.135 -0.5198 -0.7173  0.1280
13496TIP3    H261904   3.487   3.594  15.177  0.0126 -0.8444  0.6074
13497TIP3   OH261905   0.708   0.033   0.487  0.0270 -0.0391  0.3560
13497TIP3    H161906   0.764  -0.040   0.461  1.3900  0.5822  1.4281
13497TIP3    H261907   0.716   0.037   0.582 -0.2300  1.3400  0.3423
13498TIP3   OH261908   3.863   2.616  11.867 -0.3558 -0.5471 -0.1916
13498TIP3    H161909   3.837   2.528  11.839 -0.7185 -0.5761  0.2362
13498TIP3    H261910   3.905   2.603  11.952 -0.3904 -0.3105 -0.1367
13499TIP3   OH261911   0.557   4.401  13.662  0.5632  0.0240 -0.1958
13499TIP3    H161912   0.574   4.464  13.732  0.4884  0.6216 -0.7057
13499TIP3    H261913   0.621   4.331  13.676  0.0047 -0.2655  0.9545
13500TIP3   OH261914   3.474   5.455   3.836  0.3279 -0.2265  0.6418
13500TIP3    H161915   3.548   5.414   3.880  0.2192 -1.3024 -0.1314
13500TIP3    H261916   3.406   5.461   3.903  1.3832  1.6243  1.6147
13501TIP3   OH261917   5.818   2.729  11.871 -0.1153 -0.4359  0.6303
13501TIP3    H161918   5.858   2.808  11.908 -0.5608 -0.7664  1.8925
13501TIP3    H261919   5.874   2.657  11.901  0.0004 -0.6509 -0.0826
13502TIP3   OH261920   6.670   0.844   4.736  0.5379 -0.3803 -0.5468
13502TIP3    H161921   6.749   0.824   4.686 -0.0500  1.9834 -2.6912
13502TIP3    H261922   6.601   0.797   4.690  0.4426 -0.9855  0.2062
13503TIP3   OH261923   3.650   3.117  16.745 -0.7191  0.3239 -0.2413
13503TIP3    H161924   3.623   3.026  16.736 -1.0171  0.1640  1.8073
13503TIP3    H261925   3.746   3.115  16.737 -0.4799 -0.5672  2.0861
13504TIP3   OH261926   4.365   4.282   2.380  0.3171 -0.5830 -0.2968
13504TIP3    H161927   4.374   4.363   2.330 -0.9993 -0.2598 -0.0561
13504TIP3    H261928   4.439   4.228   2.352  0.5694  0.2536 -1.3137
13505TIP3   OH261929   1.184   2.273  10.924  0.3984  0.3974 -0.0271
13505TIP3    H161930   1.181   2.302  10.832  2.1082  2.0313  0.3586
13505TIP3    H261931   1.103   2.306  10.962  0.4913  1.2653 -0.5512
13506TIP3   OH261932   6.134   6.441   4.952  0.0387 -0.7867  0.2517
13506TIP3    H161933   6.213   6.479   4.989  0.1042 -0.5515 -0.1188
13506TIP3    H261934   6.157   6.424   4.860  0.5533 -3.2065  0.7471
13507TIP3   OH261935   1.789   0.403  13.339 -0.5640  0.0694 -0.2870
13507TIP3    H161936   1.805   0.333  13.402 -1.6414 -1.0845 -1.2439
13507TIP3    H261937   1.774   0.480  13.393  1.1991 -0.2728  0.7789
13508TIP3   OH261938   1.379   0.398  15.231  0.1338  0.3823  0.0039
13508TIP3    H161939   1.371   0.364  15.142  0.0339 -1.2078  0.5902
13508TIP3    H261940   1.362   0.323  15.287  0.6474  1.2559  1.3799
13509TIP3   OH261941   5.329   5.675  14.371  0.4334  0.2086  0.2893
13509TIP3    H161942   5.289   5.755  14.337  1.4362  1.2204  1.3695
13509TIP3    H261943   5.383   5.705  14.444  1.4331 -1.3708  0.2408
13510TIP3   OH261944   2.452   5.804  15.885 -0.1375 -0.4760  0.1498
13510TIP3    H161945   2.471   5.783  15.977  0.9318 -1.6496 -0.3136
13510TIP3    H261946   2.533   5.842  15.852 -1.2071  2.1058  0.2386
13511TIP3   OH261947   1.954   6.517   2.045 -0.0757 -0.1719 -0.0232
13511TIP3    H161948   1.904   6.541   1.966  0.4033  0.7230 -0.0603
13511TIP3    H261949   1.892   6.530   2.117 -0.8053 -1.8381 -0.2968
13512TIP3   OH261950   6.554   4.153  13.010  0.0584  0.5556 -0.1741
13512TIP3    H161951   6.598   4.095  12.948  1.4555 -0.0442  1.3208
13512TIP3    H261952   6.467   4.167  12.971  0.8368  0.1481 -2.1974
13513TIP3   OH261953   1.862   2.627  16.174 -0.3236  0.0754 -0.6198
13513TIP3    H161954   1.948   2.626  16.132  0.1173  0.3600  0.2490
13513TIP3    H261955   1.864   2.705  16.230 -1.5164  0.6438 -1.3447
13514TIP3   OH261956   4.508   6.586   5.175  0.5886  0.3933 -0.0320
13514TIP3    H161957   4.480   6.503   5.213 -2.5031  1.3987  0.1429
13514TIP3    H261958   4.497   6.575   5.080 -0.3779  0.7269  0.0252
13515TIP3   OH261959   6.092   2.114   0.801  0.2995  0.2291  0.3953
13515TIP3    H161960   6.138   2.197   0.811 -0.8568  0.7276  1.7292
13515TIP3    H261961   6.003   2.131   0.830 -0.2108 -1.2463 -0.1879
13516TIP3   OH261962   0.979   5.179  12.782  0.1347  0.2467  0.5315
13516TIP3    H161963   1.062   5.132  12.773  1.6029  2.5586  1.3099
13516TIP3    H261964   0.934   5.165  12.698 -0.3110 -3.7795  1.2203
13517TIP3   OH261965   4.150   1.079   2.358 -0.2101 -0.3296 -0.1718
13517TIP3    H161966   4.221   1.037   2.310  1.5852 -0.1959  2.1806
13517TIP3    H261967   4.070   1.047   2.315  1.0472 -4.7334  0.2512
13518TIP3   OH261968   1.047   1.363  12.719  0.3015 -0.9378 -0.4824
13518TIP3    H161969   1.102   1.348  12.642  1.8249 -2.7245  0.8435
13518TIP3    H261970   0.997   1.282  12.729 -2.0170  0.3219 -1.1317
13519TIP3   OH261971   6.720   4.367  12.825 -0.3482  0.4710  0.3076
13519TIP3    H161972   6.675   4.283  12.835  1.0668 -0.2776  0.5281
13519TIP3    H261973   6.687   4.402  12.742 -0.2216 -0.7486 -0.2675
13520TIP3   OH261974   6.505   4.952   1.538 -0.0844 -0.3147  0.2424
13520TIP3    H161975   6.536   5.020   1.479 -1.9587  0.0607 -0.3716
13520TIP3    H261976   6.518   4.870   1.489 -0.1960 -0.1484 -0.0684
13521TIP3   OH261977   1.854   0.316   4.947 -0.5418 -0.3987  0.4953
13521TIP3    H161978   1.887   0.386   5.004 -0.5915 -0.9447  1.2088
13521TIP3    H261979   1.927   0.255   4.940 -0.3107 -0.0148 -0.5742
13522TIP3   OH261980   5.662   0.511  14.308 -0.4525  0.5306 -0.3170
13522TIP3    H161981   5.586   0.565  14.287  0.4975  2.3181  0.6298
13522TIP3    H261982   5.654   0.494  14.402 -0.6413 -0.8852 -0.5644
13523TIP3   OH261983   5.232   5.702   1.593 -0.6655 -0.1184  0.2325
13523TIP3    H161984   5.171   5.775   1.581 -1.9714 -1.4690 -1.9267
13523TIP3    H261985   5.218   5.675   1.684 -0.8021  1.7099  0.8050
13524TIP3   OH261986   2.478   2.641   3.979 -0.2578 -0.1927 -0.0238
13524TIP3    H161987   2.570   2.618   3.975  0.1000  0.9915  0.8300
13524TIP3    H261988   2.432   2.558   3.988  0.8607 -0.6817  1.4324
13525TIP3   OH261989   0.847   0.366  14.939 -0.0727  0.3613 -0.3088
13525TIP3    H161990   0.918   0.312  14.974 -0.7843 -0.6092 -0.3314
13525TIP3    H261991   0.861   0.367  14.845  0.1019  0.4547 -0.2825
13526TIP3   OH261992   1.047   6.203  15.489 -0.0250  0.1235  0.0043
13526TIP3    H161993   1.067   6.243  15.404  1.9953 -2.2960 -0.7840
13526TIP3    H261994   1.133   6.184  15.527 -0.9034  0.0553  2.0612
13527TIP3   OH261995   4.374   1.490   1.030  0.1087  0.0708  0.2318
13527TIP3    H161996   4.425   1.410   1.013  0.7334  0.0396  1.9984
13527TIP3    H261997   4.336   1.476   1.116  1.5953  2.3235  1.3602
13528TIP3   OH261998   5.556   0.755  12.828 -0.5151 -0.6813 -0.2509
13528TIP3    H161999   5.576   0.675  12.779 -0.6261 -0.8971  0.0564
13528TIP3    H262000   5.509   0.725  12.905  0.6651 -0.4574  0.5925
13529TIP3   OH262001   4.534   0.888   5.613 -0.2040 -0.1506 -0.2395
13529TIP3    H162002   4.452   0.853   5.647 -0.2683  2.0918  2.1933
13529TIP3    H262003   4.513   0.978   5.586  0.9991 -0.2630 -1.6895
13530TIP3   OH262004   2.255   2.043  13.840  0.2776  0.2869 -0.1269
13530TIP3    H162005   2.163   2.060  13.819 -0.0254  0.2323  1.0775
13530TIP3    H262006   2.256   1.952  13.870  0.9793 -0.1669 -1.4643
13531TIP3   OH262007   0.899   5.811   2.543 -0.1348  0.3371 -0.1480
13531TIP3    H162008   0.842   5.886   2.559 -0.0056  0.2750  0.6644
13531TIP3    H262009   0.976   5.848   2.499  0.1983  0.7878  0.7881
13532TIP3   OH262010   1.254   4.113  12.485 -0.4933 -0.6382 -0.2686
13532TIP3    H162011   1.329   4.070  12.527 -0.7123 -1.3445 -0.5710
13532TIP3    H262012   1.231   4.184  12.544  1.7501  0.9840 -1.2002
13533TIP3   OH262013   2.770   5.888  14.393  0.2219 -0.6469 -0.4756
13533TIP3    H162014   2.811   5.854  14.472  0.7531  0.2636 -0.3518
13533TIP3    H262015   2.709   5.819  14.366 -0.6316 -0.5960  1.2159
13534TIP3   OH262016   4.659   1.492  11.624  0.4570 -0.3745  0.4663
13534TIP3    H162017   4.710   1.480  11.544  1.3100  0.4118  0.8687
13534TIP3    H262018   4.723   1.490  11.694 -0.2589 -0.8563  1.1274
13535TIP3   OH262019   1.515   1.736  11.613 -0.0374  0.0688 -0.0913
13535TIP3    H162020   1.574   1.810  11.624  0.9414 -0.6651 -0.2893
13535TIP3    H262021   1.463   1.758  11.536 -2.5657  2.3493  2.0730
13536TIP3   OH262022   4.487   5.898   2.736 -0.4802 -0.5136  0.4023
13536TIP3    H162023   4.573   5.926   2.705 -0.9659  0.5245 -0.0458
13536TIP3    H262024   4.487   5.803   2.725 -0.4253 -0.2807 -2.3708
13537TIP3   OH262025   5.879   1.955   1.443  0.0959 -0.5522 -0.3628
13537TIP3    H162026   5.803   2.000   1.406 -1.0240 -1.2018  1.0861
13537TIP3    H262027   5.935   2.026   1.474 -0.0275 -0.0739 -1.1892
13538TIP3   OH262028   3.959   3.442   2.553  0.1952 -0.0578  0.4607
13538TIP3    H162029   3.882   3.401   2.512 -1.0192  1.4338  1.1408
13538TIP3    H262030   3.971   3.523   2.505  1.4732 -0.3583  0.2591
13539TIP3   OH262031   2.216   0.937  13.286  0.4779 -0.6120 -0.4931
13539TIP3    H162032   2.234   1.031  13.293  2.0281 -1.0126  2.3388
13539TIP3    H262033   2.297   0.900  13.250  0.0021 -0.9227 -1.2612
13540TIP3   OH262034   4.863   1.987   5.650  0.1999  0.2449 -0.7882
13540TIP3    H162035   4.813   1.931   5.591  3.3346 -2.0861 -1.4851
13540TIP3    H262036   4.830   1.965   5.737 -0.0253 -1.1780 -1.2115
13541TIP3   OH262037   3.704   4.749  16.612 -0.9099  0.1250  0.3376
13541TIP3    H162038   3.757   4.814  16.567 -0.7155 -0.2271  0.0497
13541TIP3    H262039   3.762   4.674  16.623 -1.3200 -0.2384  0.0799
13542TIP3   OH262040   1.468   4.288   1.322 -0.2008 -0.1032  0.1895
13542TIP3    H162041   1.496   4.221   1.260 -0.4184 -0.1595  0.1509
13542TIP3    H262042   1.509   4.368   1.291 -1.6197  0.1985 -0.9771
13543TIP3   OH262043   4.574   3.154  13.077  0.5917 -0.1454  0.1539
13543TIP3    H162044   4.480   3.157  13.097  0.4944 -0.3481 -0.2816
13543TIP3    H262045   4.583   3.204  12.997  1.3777  3.1602  2.1082
13544TIP3   OH262046   2.038   3.455  12.365 -0.2325  0.1041  0.1366
13544TIP3    H162047   2.119   3.490  12.405 -0.8197  1.8459 -0.0953
13544TIP3    H262048   2.028   3.506  12.285 -1.0071 -0.8475 -0.3781
13545TIP3   OH262049   0.605   0.141  13.715  0.7665  0.8295  0.5318
13545TIP3    H162050   0.514   0.133  13.686  0.0408  2.8535  2.0307
13545TIP3    H262051   0.648   0.188  13.644  1.1440 -1.5920 -0.9597
13546TIP3   OH262052   2.064   0.502   0.118 -0.4014  0.1665  0.4110
13546TIP3    H162053   2.082   0.413   0.090  0.1738 -0.1359  1.6603
13546TIP3    H262054   2.050   0.551   0.037 -0.9978 -1.1036 -0.2707
13547TIP3   OH262055   5.985   5.212  17.046  0.2706  0.4152  0.8747
13547TIP3    H162056   5.890   5.224  17.054  0.1169 -0.4755  0.4693
13547TIP3    H262057   6.006   5.247  16.959 -0.1461 -1.8883 -0.2212
13548TIP3   OH262058   6.769   0.424  12.311 -0.1481 -0.3225  0.2186
13548TIP3    H162059   6.817   0.346  12.339  0.9446  0.9094  1.9819
13548TIP3    H262060   6.733   0.460  12.392  0.5783  1.7745 -0.3555
13549TIP3   OH262061   1.986   4.633  15.631 -0.3531  0.3973 -0.4578
13549TIP3    H162062   1.919   4.572  15.660  0.1126  0.8680  1.7979
13549TIP3    H262063   2.063   4.578  15.616 -0.8541  0.0268 -1.8168
13550TIP3   OH262064   1.988   0.631  13.138  0.7505  0.5841 -0.5086
13550TIP3    H162065   2.005   0.640  13.044  0.0535 -2.1815 -0.9750
13550TIP3    H262066   2.074   0.615  13.176  0.9158  0.6892 -0.8333
13551TIP3   OH262067   2.788   1.626  16.090  0.7871 -0.1688  0.3795
13551TIP3    H162068   2.698   1.646  16.118  0.4176  0.6979 -1.3160
13551TIP3    H262069   2.782   1.538  16.052  0.2173  0.5728 -1.3651
13552TIP3   OH262070   6.255   6.553   2.701  0.2810  0.0857  0.3391
13552TIP3    H162071   6.205   6.553   2.782  0.1086 -1.3364  0.2575
13552TIP3    H262072   6.210   6.490   2.645  2.3697 -1.5739  0.4229
13553TIP3   OH262073   6.331   3.788   1.579 -0.2425 -0.3574  1.0194
13553TIP3    H162074   6.296   3.768   1.666  2.5271  2.6326  3.0558
13553TIP3    H262075   6.264   3.843   1.539 -1.2266 -1.1481  1.5363
13554TIP3   OH262076   6.417   6.218  11.629  0.5918  0.2965  0.1268
13554TIP3    H162077   6.377   6.198  11.714  2.7626  0.9375  1.3738
13554TIP3    H262078   6.433   6.133  11.589 -2.2932 -0.0039 -0.6624
13555TIP3   OH262079   1.865   0.365  12.065 -0.2256 -0.2936 -0.6704
13555TIP3    H162080   1.893   0.418  11.991 -1.8949  1.3549 -0.1891
13555TIP3    H262081   1.812   0.296  12.026  0.5643 -0.6536 -1.1501
13556TIP3   OH262082   6.171   6.676   0.827  0.1004  0.4942  0.1922
13556TIP3    H162083   6.082   6.654   0.855 -0.1369  0.8780 -0.2396
13556TIP3    H262084   6.213   6.711   0.905 -0.3958  1.0894  0.2007
13557TIP3   OH262085   4.126   1.869  13.927 -0.3478 -0.0757 -0.4589
13557TIP3    H162086   4.129   1.954  13.971  0.5228 -0.3647  0.0703
13557TIP3    H262087   4.097   1.807  13.994  0.2097 -0.3862 -0.4929
13558TIP3   OH262088   5.911   4.813  15.825 -0.1267  0.3059  0.0372
13558TIP3    H162089   5.847   4.782  15.888 -0.9210 -0.1789 -0.9735
13558TIP3    H262090   5.912   4.908  15.836  0.1386  0.1892  1.1158
13559TIP3   OH262091   4.130   1.369  14.754  0.4485 -0.3186  0.0379
13559TIP3    H162092   4.100   1.366  14.663 -0.9415  2.5399  0.2925
13559TIP3    H262093   4.224   1.388  14.748  0.4711 -0.6329 -0.7605
13560TIP3   OH262094   4.073   1.652  11.562  0.0306 -0.5591 -0.3352
13560TIP3    H162095   4.077   1.609  11.476 -1.1008  1.9415 -1.7320
13560TIP3    H262096   3.985   1.630  11.595 -0.8884  1.2696 -1.4441
13561TIP3   OH262097   0.648   4.530  16.640  0.0124 -0.4467 -0.3917
13561TIP3    H162098   0.660   4.465  16.570 -0.8930  0.4859 -1.4604
13561TIP3    H262099   0.715   4.596  16.623 -0.2122 -0.2160 -0.3979
13562TIP3   OH262100   1.716   4.821   5.123  0.0852  0.8647 -0.7226
13562TIP3    H162101   1.672   4.850   5.043  0.9272 -0.9341 -1.9051
13562TIP3    H262102   1.807   4.848   5.112  0.3447  0.0344 -0.6942
13563TIP3   OH262103   1.073   1.858  12.936  0.4150 -0.2224  0.0177
13563TIP3    H162104   1.129   1.885  12.863  0.2414  0.5079  0.1388
13563TIP3    H262105   1.087   1.926  13.003 -0.5941 -0.0346  0.0533
13564TIP3   OH262106   6.521   6.284  12.046  0.2676  0.4233 -0.7189
13564TIP3    H162107   6.464   6.230  11.991 -0.5451  1.2292 -0.6998
13564TIP3    H262108   6.462   6.350  12.083  0.7813 -0.1521  1.1928
13565TIP3   OH262109   0.481   1.966  10.528 -0.8125  0.5845 -0.0386
13565TIP3    H162110   0.403   1.935  10.482 -0.6015 -0.6796  0.4218
13565TIP3    H262111   0.473   2.061  10.527 -2.0756  0.4895 -0.4896
13566TIP3   OH262112   1.353   1.918  17.338 -0.2272 -0.1362 -0.5334
13566TIP3    H162113   1.425   1.949  17.285  1.1510  1.5392  2.0904
13566TIP3    H262114   1.286   1.986  17.331 -0.3416 -0.2668 -0.7027
13567TIP3   OH262115   1.521   0.812  16.235  0.5395 -0.2549  0.1509
13567TIP3    H162116   1.448   0.864  16.267  1.1595 -0.4658  2.0539
13567TIP3    H262117   1.509   0.809  16.140 -0.0188  2.5546  0.0408
13568TIP3   OH262118   0.542   3.178  14.562  0.5197  0.1852  0.4673
13568TIP3    H162119   0.563   3.119  14.490 -2.1416  1.2372 -1.3176
13568TIP3    H262120   0.587   3.260  14.540 -0.1862  0.4654  0.0340
13569TIP3   OH262121   3.531   2.332  12.265 -0.1815 -0.1683 -0.2240
13569TIP3    H162122   3.541   2.392  12.339 -0.5173 -1.5476  1.0023
13569TIP3    H262123   3.552   2.384  12.188 -4.0444  2.6101  0.3075
13570TIP3   OH262124   2.808   3.038  16.622  0.2722  0.4267 -0.7016
13570TIP3    H162125   2.845   3.080  16.700  1.3207 -1.2068 -0.2716
13570TIP3    H262126   2.795   2.947  16.648 -1.1774  0.2678 -1.8656
13571TIP3   OH262127   5.302   6.457  13.924 -0.3546  0.4123 -0.0427
13571TIP3    H162128   5.241   6.469  13.997 -0.3895 -0.3224  0.0582
13571TIP3    H262129   5.339   6.544  13.909  0.0508  0.4809  1.2040
13572TIP3   OH262130   1.652   5.844   4.374  0.0282  0.5954  0.3094
13572TIP3    H162131   1.583   5.811   4.433  1.0248 -2.3490 -0.0021
13572TIP3    H262132   1.604   5.875   4.297 -1.0552 -0.3804  0.5482
13573TIP3   OH262133   3.742   3.159   6.289  0.0926 -0.4443 -0.0819
13573TIP3    H162134   3.784   3.082   6.250  1.3868  0.3902 -0.3854
13573TIP3    H262135   3.810   3.227   6.288 -0.3123  0.0911  2.1494
13574TIP3   OH262136   2.181   3.029   5.596 -0.2619 -0.1135 -0.4635
13574TIP3    H162137   2.250   3.050   5.660 -0.3593 -1.6954  0.1998
13574TIP3    H262138   2.192   3.095   5.528  0.2090  1.2907  0.8894
13575TIP3   OH262139   6.221   4.431   5.148  0.1683  0.3799  0.1051
13575TIP3    H162140   6.224   4.406   5.056 -0.8875 -0.0372  0.1747
13575TIP3    H262141   6.167   4.364   5.189  0.3804  0.7378  0.9755
13576TIP3   OH262142   0.422   1.287  13.672 -0.0073  0.0440 -0.0931
13576TIP3    H162143   0.507   1.261  13.707  0.0066  0.1139 -0.0751
13576TIP3    H262144   0.441   1.359  13.612 -0.1880  0.8831  0.8427
13577TIP3   OH262145   1.459   3.748  17.242 -0.6091 -0.2481 -0.0411
13577TIP3    H162146   1.414   3.811  17.186 -1.1919  0.8649  1.6115
13577TIP3    H262147   1.499   3.801  17.311  0.7150 -1.5083  0.2163
13578TIP3   OH262148   4.994   1.290  11.845 -0.0593 -0.0993 -0.2944
13578TIP3    H162149   4.943   1.212  11.869  0.1160  0.5049  2.3301
13578TIP3    H262150   4.931   1.361  11.845 -0.0098 -0.0169 -1.6410
13579TIP3   OH262151   5.672   5.048   0.080  0.2640  0.0620  0.1253
13579TIP3    H162152   5.677   5.012   0.168  0.9824 -2.7909 -0.9625
13579TIP3    H262153   5.594   5.008   0.041 -0.6326  2.0682 -0.2663
13580TIP3   OH262154   0.561   1.563  12.256 -0.0194  0.0251  0.1674
13580TIP3    H162155   0.470   1.533  12.247  0.6829 -1.7404 -1.9420
13580TIP3    H262156   0.572   1.578  12.350 -2.8759  1.7489  0.3553
13581TIP3   OH262157   1.044   5.595   3.223  0.6255  0.3659  0.4743
13581TIP3    H162158   1.125   5.600   3.171 -0.2782  1.0659 -0.9285
13581TIP3    H262159   1.048   5.671   3.281  0.9150  0.4625  0.3286
13582TIP3   OH262160   5.844   3.057   0.124 -0.1514  0.3939 -0.0957
13582TIP3    H162161   5.759   3.079   0.162 -0.8792  1.6000 -2.2882
13582TIP3    H262162   5.824   3.024   0.037  1.6267  0.6030 -0.6235
13583TIP3   OH262163   1.680   4.003  15.735 -0.5747 -0.7960 -0.0563
13583TIP3    H162164   1.625   4.072  15.773  0.5743 -0.1343  0.4541
13583TIP3    H262165   1.747   3.986  15.801 -1.4842 -3.2444  0.3078
13584TIP3   OH262166   0.089   5.394   5.723 -0.5882 -0.0392  0.0367
13584TIP3    H162167   0.146   5.331   5.678 -0.2631 -0.1940  0.6489
13584TIP3    H262168   0.052   5.344   5.796 -0.5543  0.3957  0.3564
13585TIP3   OH262169   0.080   2.467  14.062  0.0323  0.3872  0.3414
13585TIP3    H162170   0.057   2.495  14.150  0.7763 -0.3360  0.7754
13585TIP3    H262171   0.052   2.376  14.058 -0.5521  0.5862 -0.3869
13586TIP3   OH262172   1.422   6.437   3.011  0.5180  0.3402  0.4423
13586TIP3    H162173   1.470   6.515   2.984  1.0410  0.1277  0.7466
13586TIP3    H262174   1.471   6.403   3.086  0.5430 -0.5256  0.0483
13587TIP3   OH262175   4.085   6.650  12.976  0.1037 -0.1542  0.0622
13587TIP3    H162176   4.136   6.729  12.957 -1.5837  0.5609 -1.8334
13587TIP3    H262177   3.995   6.673  12.952 -0.7503 -2.0972  1.1687
13588TIP3   OH262178   6.361   3.924  15.626  0.2498 -0.2793  0.5918
13588TIP3    H162179   6.276   3.878  15.621  0.3473 -0.6840  2.1207
13588TIP3    H262180   6.338   4.014  15.649  0.2005 -0.2046  0.2557
13589TIP3   OH262181   2.137   4.346  12.453  0.1857 -0.4043 -0.2743
13589TIP3    H162182   2.227   4.312  12.446  1.2489  1.7620  1.6155
13589TIP3    H262183   2.138   4.425  12.400 -1.5980 -1.9177 -2.7650
13590TIP3   OH262184   0.368   2.979   1.724  0.1571 -0.0460 -0.1055
13590TIP3    H162185   0.286   3.005   1.681 -0.5874  0.3329  1.4322
13590TIP3    H262186   0.410   3.062   1.746  0.4913 -0.2273 -0.0652
13591TIP3   OH262187   5.251   0.867   0.038 -0.5921  0.2970 -0.1414
13591TIP3    H162188   5.251   0.896   0.129 -2.5809  0.3056 -0.0895
13591TIP3    H262189   5.269   0.947  -0.012 -0.5816  0.5199  0.2125
13592TIP3   OH262190   6.720   6.608  15.036  0.1455  0.3564 -0.0802
13592TIP3    H162191   6.813   6.599  15.057 -0.0686  1.7147  1.6799
13592TIP3    H262192   6.677   6.542  15.089 -0.0862  1.4392  1.1253
13593TIP3   OH262193   4.217   4.615   0.585 -0.1359 -0.2482 -0.5400
13593TIP3    H162194   4.226   4.520   0.575 -3.4514 -0.5248 -2.2308
13593TIP3    H262195   4.185   4.626   0.675  0.7633 -0.6282 -0.1553
13594TIP3   OH262196   6.731   0.292  11.257 -0.0533  0.1108  0.3281
13594TIP3    H162197   6.750   0.369  11.311  2.1706 -0.4834  0.5087
13594TIP3    H262198   6.699   0.328  11.174 -0.4353  1.1569  0.9042
13595TIP3   OH262199   0.038   1.196  12.674 -0.1845 -0.1263  0.3738
13595TIP3    H162200   0.006   1.183  12.763 -0.7968  0.7980  0.3035
13595TIP3    H262201  -0.028   1.251  12.632  0.3044 -0.1970 -0.5255
13596TIP3   OH262202   0.972   0.160   2.607 -0.4509  0.0963 -0.2108
13596TIP3    H162203   0.989   0.228   2.542 -0.0232  0.6288  0.4460
13596TIP3    H262204   0.890   0.186   2.648 -1.3691 -0.8909 -1.3486
13597TIP3   OH262205   1.058   1.594   1.593 -0.3538  0.0604 -0.1618
13597TIP3    H162206   1.071   1.684   1.563  1.7748  0.0839  0.6650
13597TIP3    H262207   1.073   1.541   1.515 -1.7439  0.4014 -0.6825
13598TIP3   OH262208   4.964   1.554   0.129  0.8932 -0.3849  0.1346
13598TIP3    H162209   4.966   1.645   0.101  1.2108 -0.5388 -0.3563
13598TIP3    H262210   5.020   1.552   0.207  0.6047 -0.0955  0.3503
13599TIP3   OH262211   2.783   3.395   0.439  0.4355 -0.0788  0.0569
13599TIP3    H162212   2.867   3.359   0.411  0.3980  0.0723 -0.2580
13599TIP3    H262213   2.774   3.477   0.389 -0.7956 -1.0588 -1.4279
13600TIP3   OH262214   4.403   6.664   6.467 -0.1724  0.8424 -0.2465
13600TIP3    H162215   4.423   6.583   6.419  0.1469 -0.3681  1.8302
13600TIP3    H262216   4.352   6.716   6.404 -1.2037 -1.3528 -1.3750
13601TIP3   OH262217   2.360   6.241   2.702 -0.1378 -0.1354  0.0819
13601TIP3    H162218   2.443   6.199   2.729  0.5674  0.6828 -0.7427
13601TIP3    H262219   2.294   6.174   2.718  0.7190 -0.9129  0.5131
13602TIP3   OH262220   3.844   5.157   4.217 -0.0235 -0.7422  0.1448
13602TIP3    H162221   3.823   5.064   4.218 -0.0522 -0.7397 -0.1638
13602TIP3    H262222   3.899   5.170   4.295  1.5948 -1.4020 -0.8225
13603TIP3   OH262223   6.000   3.417   5.285  0.4432 -0.2732  0.4353
13603TIP3    H162224   5.924   3.372   5.322  0.1077  1.6582  2.2793
13603TIP3    H262225   5.980   3.423   5.191 -1.2884 -0.5552  0.7468
13604TIP3   OH262226   2.198   2.179  15.047  0.1535  0.4094  0.1783
13604TIP3    H162227   2.248   2.098  15.059 -0.3489 -0.2272 -1.7017
13604TIP3    H262228   2.261   2.240  15.009  0.5005  0.9008  1.4868
13605TIP3   OH262229   2.376   4.434  13.275  0.3384 -0.3711 -0.0145
13605TIP3    H162230   2.401   4.455  13.365  0.1066 -0.3235  0.0393
13605TIP3    H262231   2.281   4.424  13.278  0.3420 -0.4777 -0.2327
13606TIP3   OH262232   5.148   5.409  11.401  0.3640  0.6566  0.2782
13606TIP3    H162233   5.055   5.393  11.387  0.5693 -1.0402  0.5893
13606TIP3    H262234   5.155   5.504  11.414 -1.3800  0.7457  0.8139
13607TIP3   OH262235   3.268   0.208  11.442  0.4252  0.5188  0.1433
13607TIP3    H162236   3.289   0.119  11.471  0.6731  0.8468  1.0243
13607TIP3    H262237   3.175   0.206  11.421  0.6777 -0.2238 -0.9348
13608TIP3   OH262238   0.003   2.299  14.767 -0.1406 -0.5420 -0.0988
13608TIP3    H162239  -0.085   2.266  14.748 -1.0212  1.0986  0.8446
13608TIP3    H262240   0.035   2.333  14.683 -1.0338  0.1740 -0.1639
13609TIP3   OH262241   0.066   1.437  13.370  0.3665 -0.2176 -0.3383
13609TIP3    H162242   0.081   1.374  13.299  0.8363 -0.2524 -0.2054
13609TIP3    H262243   0.097   1.392  13.449 -1.2349 -0.6498  0.0874
13610TIP3   OH262244   5.058   0.570   2.230 -0.0418 -0.0541  0.3326
13610TIP3    H162245   5.037   0.480   2.206 -1.6534  0.1290  0.9401
13610TIP3    H262246   5.079   0.565   2.324 -1.3438  0.3686  0.6587
13611TIP3   OH262247   5.391   5.254   2.146  0.2500  0.2238  0.1117
13611TIP3    H162248   5.410   5.210   2.063 -0.9542  0.6673 -0.4267
13611TIP3    H262249   5.342   5.189   2.196  0.2512  0.2447  0.1398
13612TIP3   OH262250   3.690   5.197  12.846 -0.3364 -0.4314  0.6703
13612TIP3    H162251   3.626   5.162  12.909 -2.4803  1.4058 -0.3238
13612TIP3    H262252   3.736   5.265  12.895 -2.3950  1.3983  0.2466
13613TIP3   OH262253   0.807   3.965  13.342 -0.1173 -0.0424  0.2484
13613TIP3    H162254   0.781   3.976  13.251 -1.5841 -2.7440  0.2384
13613TIP3    H262255   0.732   3.999  13.392  0.6875  1.4484  0.5248
13614TIP3   OH262256   4.783   4.012   2.512  0.1886  0.4698  0.0188
13614TIP3    H162257   4.788   4.078   2.581  1.4174  0.0294  0.3823
13614TIP3    H262258   4.711   3.955   2.540  0.3326  0.5949  0.6749
13615TIP3   OH262259   5.876   0.768   3.666  0.3494  0.1517  0.2832
13615TIP3    H162260   5.910   0.795   3.580 -0.5485 -0.1580 -0.1793
13615TIP3    H262261   5.859   0.674   3.656  0.6809  0.0193  0.9526
13616TIP3   OH262262   4.842   3.722   0.973 -0.4381  0.5631 -0.6162
13616TIP3    H162263   4.768   3.726   1.034 -0.4142  0.9685 -0.6159
13616TIP3    H262264   4.903   3.788   1.004  0.6282 -0.7922  0.3014
13617TIP3   OH262265   2.290   3.499  15.498  0.4281 -0.4887  0.2008
13617TIP3    H162266   2.361   3.561  15.481 -1.0787  0.9239 -1.2905
13617TIP3    H262267   2.293   3.438  15.424  0.6779 -1.0109  0.6374
13618TIP3   OH262268   1.925   1.761  14.179 -0.1784  0.0825  0.2699
13618TIP3    H162269   1.916   1.740  14.272  0.7006 -0.7130  0.1951
13618TIP3    H262270   1.855   1.711  14.137  0.2603 -0.6504  0.3791
13619TIP3   OH262271   2.675   4.149  17.029  0.4078  0.0516 -0.3242
13619TIP3    H162272   2.614   4.223  17.030  0.2660  0.0466 -2.7709
13619TIP3    H262273   2.736   4.169  16.958  3.1056 -0.1280  1.7805
13620TIP3   OH262274   3.735   5.635   3.103 -0.0517  0.0911  0.0179
13620TIP3    H162275   3.829   5.651   3.101 -0.2583  1.5705  0.5092
13620TIP3    H262276   3.719   5.597   3.190  0.0824 -0.0472 -0.0185
13621TIP3   OH262277   0.412   2.707  14.072  0.2540 -0.1195  0.1137
13621TIP3    H162278   0.359   2.690  13.994 -0.7450 -0.4651  0.8517
13621TIP3    H262279   0.474   2.775  14.044  0.8864 -1.2390 -1.3830
13622TIP3   OH262280   0.655   4.688   4.416  0.2391  0.1153 -0.1666
13622TIP3    H162281   0.572   4.710   4.374  0.5397  0.1514 -0.7591
13622TIP3    H262282   0.706   4.770   4.412  0.6712 -0.1758 -0.7096
13623TIP3   OH262283   2.047   2.867  12.493  0.3429 -0.1295  0.2443
13623TIP3    H162284   2.019   2.880  12.402 -1.4130 -3.3608  0.1704
13623TIP3    H262285   1.966   2.874  12.544  1.1305  0.4995  1.4572
13624TIP3   OH262286   1.405   6.155  13.683  0.8508  0.0063 -0.7469
13624TIP3    H162287   1.389   6.129  13.592  0.5499 -0.3867 -0.5841
13624TIP3    H262288   1.317   6.165  13.720  0.9244  1.9730 -0.9917
13625TIP3   OH262289   0.024   5.886  12.176  0.3821  0.0010 -0.1704
13625TIP3    H162290   0.040   5.798  12.212  0.1988 -0.4092 -1.0725
13625TIP3    H262291  -0.007   5.870  12.087  0.7173  1.0010 -0.4758
13626TIP3   OH262292   1.885   3.974   1.206 -0.3856 -0.0998  0.5134
13626TIP3    H162293   1.891   3.892   1.256  1.1980 -0.5770 -0.3799
13626TIP3    H262294   1.910   4.042   1.268  0.2332 -0.5313  0.7498
13627TIP3   OH262295   3.929   5.057  17.204 -0.8085  0.0304 -0.0170
13627TIP3    H162296   3.859   5.097  17.153 -1.5315 -1.0558  0.0739
13627TIP3    H262297   3.895   4.970  17.227  0.4875 -0.4447  0.2086
13628TIP3   OH262298   1.807   6.545  16.255  0.1495  0.1392  0.1496
13628TIP3    H162299   1.830   6.584  16.340  2.5028 -1.5282  0.3590
13628TIP3    H262300   1.886   6.555  16.202 -0.2665 -1.4653 -0.8322
13629TIP3   OH262301   4.316   6.429  17.309  0.3846  0.0334  0.1091
13629TIP3    H162302   4.277   6.353  17.353 -0.8098  0.0972 -0.7805
13629TIP3    H262303   4.301   6.412  17.216 -1.9538  2.4028 -0.0438
13630TIP3   OH262304   6.021   1.447   6.507 -0.1686  0.5665 -0.1146
13630TIP3    H162305   6.084   1.429   6.438 -2.2124 -0.4905 -1.8400
13630TIP3    H262306   6.035   1.377   6.572  2.0183  1.7870  0.8529
13631TIP3   OH262307   4.410   3.061  10.576 -0.3504 -0.6849  0.2759
13631TIP3    H162308   4.492   3.092  10.539 -0.5154 -0.7034 -0.1109
13631TIP3    H262309   4.342   3.107  10.527 -0.5744 -0.7727  0.4989
13632TIP3   OH262310   3.049   2.089   1.706  0.0002  0.0892 -0.0615
13632TIP3    H162311   2.985   2.068   1.774 -0.6880 -1.2389 -1.0775
13632TIP3    H262312   2.999   2.138   1.640  0.4078  0.4172 -0.1314
13633TIP3   OH262313   5.886   3.955   4.864  0.5341 -0.6841 -0.5137
13633TIP3    H162314   5.951   3.885   4.863  1.2019 -0.1239  0.7946
13633TIP3    H262315   5.919   4.020   4.802 -0.6483 -1.9397 -2.5920
13634TIP3   OH262316   6.034   3.828  12.464 -0.7814  0.1406 -0.3871
13634TIP3    H162317   6.085   3.890  12.517 -0.5290  0.0661 -0.5394
13634TIP3    H262318   5.944   3.839  12.494 -0.3637 -1.6177  1.8381
13635TIP3   OH262319   5.615   4.184  13.947  1.0608 -0.4960  0.0326
13635TIP3    H162320   5.540   4.137  13.911  0.1351 -0.2433  1.5384
13635TIP3    H262321   5.665   4.117  13.994  2.4476 -0.8937 -1.8861
13636TIP3   OH262322   0.783   1.561  13.236 -0.1309  0.3103 -0.4846
13636TIP3    H162323   0.770   1.470  13.263 -0.8711  0.6701  0.4186
13636TIP3    H262324   0.705   1.607  13.268 -1.7462  0.5915 -4.1822
13637TIP3   OH262325   4.829   4.626   2.657 -0.6222  0.3850  0.3558
13637TIP3    H162326   4.772   4.553   2.632  1.1822 -0.6713 -0.8868
13637TIP3    H262327   4.809   4.641   2.749 -0.8146 -1.9545  0.7651
13638TIP3   OH262328   2.426   6.675  13.991  0.3836 -0.2835  0.0524
13638TIP3    H162329   2.496   6.631  14.040  0.2678  0.0156  0.4952
13638TIP3    H262330   2.352   6.614  13.997  0.7213 -0.7929 -0.7735
13639TIP3   OH262331   3.866   2.974   6.124 -0.0520  0.0533  0.1627
13639TIP3    H162332   3.941   3.011   6.170  0.3059 -0.5102  0.0404
13639TIP3    H262333   3.885   2.990   6.031 -0.6625  0.9836  0.1836
13640TIP3   OH262334   3.338   5.646  17.260  0.3177  0.0193 -0.2786
13640TIP3    H162335   3.385   5.562  17.264 -0.2361 -0.3054 -0.5042
13640TIP3    H262336   3.404   5.711  17.283  0.7544 -0.4792 -0.0935
13641TIP3   OH262337   3.182   5.258   5.953  0.0601 -0.1250 -0.4380
13641TIP3    H162338   3.270   5.219   5.949  0.2643  0.1936  0.6189
13641TIP3    H262339   3.126   5.194   5.908  0.7626 -0.5338 -0.7534
13642TIP3   OH262340   1.655   2.834  13.527 -0.1244  0.7175  0.0942
13642TIP3    H162341   1.751   2.834  13.526 -0.1037  1.6461 -1.5087
13642TIP3    H262342   1.632   2.871  13.612  0.9676  1.8318 -0.0636
13643TIP3   OH262343   0.968   0.840  14.795  0.0777  0.3886 -0.8679
13643TIP3    H162344   1.051   0.854  14.840 -0.8219 -0.3608  1.1710
13643TIP3    H262345   0.919   0.921  14.808 -0.0209  0.3264 -0.8412
13644TIP3   OH262346   4.443   2.761  15.256 -0.2713 -0.2517  0.2645
13644TIP3    H162347   4.500   2.831  15.226  0.4519 -0.0621  1.9921
13644TIP3    H262348   4.490   2.680  15.232 -1.2640 -0.2414 -2.0362
13645TIP3   OH262349   6.687   2.673   5.936  0.4515  0.4303  0.4819
13645TIP3    H162350   6.616   2.734   5.917 -0.4835 -0.4801  0.9945
13645TIP3    H262351   6.751   2.726   5.985  0.2620  1.3134 -0.1972
13646TIP3   OH262352   4.965   5.541   1.698 -0.5933  0.3620  0.5768
13646TIP3    H162353   4.905   5.611   1.673  0.1934  0.8603  0.0342
13646TIP3    H262354   4.983   5.494   1.617 -1.4602 -0.7697  1.0092
13647TIP3   OH262355   2.486   5.075  13.164  0.3168  0.2991  0.4887
13647TIP3    H162356   2.438   5.009  13.214  0.1952  1.4913  2.0192
13647TIP3    H262357   2.577   5.046  13.167  0.0550 -0.6999 -0.3808
13648TIP3   OH262358   0.034   2.477   5.455  0.2848  0.0420 -0.3013
13648TIP3    H162359   0.088   2.402   5.428  0.0265  0.3098 -1.6163
13648TIP3    H262360   0.050   2.543   5.388 -1.0387  0.4267 -0.2556
13649TIP3   OH262361   1.143   2.722  14.041 -0.7733  0.3738  0.2184
13649TIP3    H162362   1.095   2.723  13.958 -1.3485  1.5513  0.5524
13649TIP3    H262363   1.076   2.702  14.107 -0.1100 -1.8614  0.3157
13650TIP3   OH262364   3.839   6.540   0.732 -0.1219 -0.6611 -0.2502
13650TIP3    H162365   3.762   6.597   0.729 -1.3215 -2.2336 -0.7935
13650TIP3    H262366   3.818   6.475   0.799  0.4293 -1.5318 -0.9010
13651TIP3   OH262367   5.948   3.410  11.773  0.7481  0.1260 -0.2004
13651TIP3    H162368   5.870   3.400  11.718  1.6619 -1.6255 -1.2734
13651TIP3    H262369   5.967   3.321  11.804  1.3525  0.7959  1.4423
13652TIP3   OH262370   6.178   5.223  13.413 -0.2013 -0.3367  0.1414
13652TIP3    H162371   6.247   5.203  13.350 -1.7530 -0.1734 -1.6811
13652TIP3    H262372   6.117   5.150  13.406 -0.3483 -0.3946  1.6052
13653TIP3   OH262373   3.649   4.596  10.745  0.3872 -0.2274  0.2209
13653TIP3    H162374   3.577   4.534  10.738 -1.0772  1.5062 -0.6519
13653TIP3    H262375   3.692   4.593  10.660 -0.0908  0.4087 -0.0489
13654TIP3   OH262376   0.261   4.852  15.967 -0.1716 -0.2020 -0.0112
13654TIP3    H162377   0.265   4.782  16.031 -2.7649 -0.2142  0.2592
13654TIP3    H262378   0.315   4.821  15.894 -2.2675 -3.1662 -0.4771
13655TIP3   OH262379   5.654   3.041   1.498 -0.5076  0.4405 -0.3019
13655TIP3    H162380   5.618   3.125   1.467 -1.1349  0.0508 -0.6535
13655TIP3    H262381   5.749   3.052   1.492 -0.5827  1.1387 -0.3096
13656TIP3   OH262382   2.702   0.248   3.112 -0.2613  0.4690  0.2295
13656TIP3    H162383   2.638   0.282   3.175  1.4467  0.9729  1.7753
13656TIP3    H262384   2.711   0.319   3.047 -0.3486  0.9105  0.6926
13657TIP3   OH262385   1.473   1.049   2.711 -0.9204  0.1064 -0.1033
13657TIP3    H162386   1.485   1.086   2.798 -0.4161  1.4931 -0.7325
13657TIP3    H262387   1.523   1.107   2.653  1.1511 -2.3775 -1.0044
13658TIP3   OH262388   1.657   3.357  11.071 -0.5210 -0.2380  0.2502
13658TIP3    H162389   1.714   3.334  10.998 -0.6709 -0.2759  0.1459
13658TIP3    H262390   1.636   3.274  11.113 -2.4994 -0.5270 -1.1731
13659TIP3   OH262391   1.772   1.473  12.375 -0.4121  0.8703  0.3575
13659TIP3    H162392   1.775   1.568  12.385  1.1990  0.7620  1.4017
13659TIP3    H262393   1.796   1.439  12.461 -0.7945 -0.4858 -0.0407
13660TIP3   OH262394   0.685   0.772   5.325  0.1301  0.5599 -0.2565
13660TIP3    H162395   0.653   0.857   5.297  0.8645  0.8750 -0.1732
13660TIP3    H262396   0.620   0.710   5.294  0.0345  1.0718 -1.0979
13661TIP3   OH262397   1.379   2.168   2.161  0.2048 -0.0907 -0.6683
13661TIP3    H162398   1.436   2.148   2.236  0.0984  0.9404 -0.3022
13661TIP3    H262399   1.378   2.263   2.156  1.2692 -0.1302 -2.7964
13662TIP3   OH262400   3.146   3.671   1.761 -0.0845 -0.0964  0.1921
13662TIP3    H162401   3.192   3.611   1.704 -0.4556  0.2636 -0.5037
13662TIP3    H262402   3.067   3.624   1.788 -0.8202  0.3698 -1.0588
13663TIP3   OH262403   5.709   2.919  13.327 -0.5148  0.3719  0.1435
13663TIP3    H162404   5.715   2.945  13.235 -0.1790  0.2398  0.1294
13663TIP3    H262405   5.730   2.998  13.376  0.2195  0.2022  0.1023
13664TIP3   OH262406   3.560   4.733   3.608 -0.2593 -0.1091  0.3499
13664TIP3    H162407   3.507   4.654   3.597  2.6985 -2.4030  1.2680
13664TIP3    H262408   3.594   4.752   3.521 -0.5311 -0.1361  0.2353
13665TIP3   OH262409   2.892   4.880  15.741 -0.2719  0.1349 -0.6877
13665TIP3    H162410   2.812   4.931  15.755 -0.2554  0.2761 -1.1015
13665TIP3    H262411   2.961   4.946  15.738 -0.0099 -0.0475  0.5883
13666TIP3   OH262412   5.349   4.689   0.400  0.3736  0.2899 -0.0205
13666TIP3    H162413   5.306   4.675   0.316  1.6199  0.7097 -0.7470
13666TIP3    H262414   5.338   4.782   0.418  1.3762  0.5006 -0.4495
13667TIP3   OH262415   2.844   3.519   0.033  0.5037  0.4412  0.0844
13667TIP3    H162416   2.751   3.518   0.010  0.3559 -2.3790  0.3764
13667TIP3    H262417   2.847   3.565   0.117 -0.8435 -0.4612  0.6723
13668TIP3   OH262418   5.824   2.056   3.692 -0.0754 -0.3674  0.1612
13668TIP3    H162419   5.759   2.126   3.687  0.3153  0.0706  1.1263
13668TIP3    H262420   5.908   2.100   3.673 -0.0426 -0.9406 -1.1535
13669TIP3   OH262421   1.990   1.418   4.706  0.1031  0.0235  0.1246
13669TIP3    H162422   2.052   1.371   4.761 -2.0263 -1.5236  1.3437
13669TIP3    H262423   1.986   1.367   4.625  0.3317  0.0442  0.1015
13670TIP3   OH262424   1.400   4.320   1.999 -0.7349  0.1096 -0.1126
13670TIP3    H162425   1.433   4.323   1.909 -0.8464 -0.2548 -0.1647
13670TIP3    H262426   1.313   4.282   1.992  0.2831 -2.5548  0.4293
13671TIP3   OH262427   2.564   2.586  12.711  0.4281 -0.4436 -0.0675
13671TIP3    H162428   2.623   2.511  12.711 -0.8902 -1.7542 -4.2422
13671TIP3    H262429   2.602   2.646  12.647 -2.1809 -0.9806 -2.2827
13672TIP3   OH262430   2.983   2.159   2.756 -0.2900  0.1567 -0.0604
13672TIP3    H162431   3.063   2.130   2.714 -0.2930 -2.1563  1.3462
13672TIP3    H262432   2.964   2.091   2.822 -2.4762  1.4822  0.8064
13673TIP3   OH262433   1.209   2.321   5.342 -0.4320 -0.2391 -0.2260
13673TIP3    H162434   1.255   2.247   5.383  0.4130 -1.3915 -2.9895
13673TIP3    H262435   1.278   2.383   5.320 -0.8062  0.1592 -0.2970
13674TIP3   OH262436   0.373   1.879  14.073  0.1303 -0.3320 -0.2958
13674TIP3    H162437   0.317   1.823  14.127 -1.9509  0.0515 -1.9385
13674TIP3    H262438   0.416   1.937  14.136 -1.3945 -0.5759  1.0403
13675TIP3   OH262439   1.889   1.206  10.473  0.2184  0.1845  0.4055
13675TIP3    H162440   1.946   1.129  10.472  0.7253  0.5411  0.8723
13675TIP3    H262441   1.942   1.274  10.516  0.4524  1.3153 -1.5437
13676TIP3   OH262442   4.223   0.629  15.337  0.3983  0.0015 -0.9460
13676TIP3    H162443   4.159   0.693  15.306  0.9195 -0.0193 -2.1154
13676TIP3    H262444   4.308   0.664  15.309  0.8458 -0.3099 -0.0148
13677TIP3   OH262445   2.349   0.465  16.668  0.0642  0.0640 -0.7711
13677TIP3    H162446   2.254   0.469  16.671  0.0936  0.6127  2.1949
13677TIP3    H262447   2.368   0.375  16.642 -1.2726 -0.3761 -0.3033
13678TIP3   OH262448   3.303   6.070   2.595  0.1008  0.1504 -0.4554
13678TIP3    H162449   3.364   6.129   2.551  0.7846 -0.6255 -0.5670
13678TIP3    H262450   3.357   5.997   2.623 -0.8873 -0.8660 -1.1366
13679TIP3   OH262451   4.162   6.266   3.759 -0.5571  0.1976 -0.3775
13679TIP3    H162452   4.093   6.315   3.715  0.3144  0.8225 -1.0732
13679TIP3    H262453   4.120   6.185   3.787 -1.6833  0.7668 -0.3729
13680TIP3   OH262454   0.596   2.070   1.512  0.2695 -0.1447 -0.2077
13680TIP3    H162455   0.626   2.152   1.550 -0.2741 -0.0454  0.0177
13680TIP3    H262456   0.517   2.048   1.562  0.1362 -0.5530 -0.5905
13681TIP3   OH262457   5.303   0.395   6.790  0.4525  0.2807  0.5237
13681TIP3    H162458   5.374   0.420   6.730  0.2418  0.0339  0.1719
13681TIP3    H262459   5.335   0.317   6.834 -0.3381 -0.9321 -0.9785
13682TIP3   OH262460   5.762   6.655   3.809 -0.3143 -0.5598  0.5209
13682TIP3    H162461   5.801   6.668   3.723 -2.4208  0.8334 -0.2891
13682TIP3    H262462   5.830   6.683   3.870  0.8495 -0.6202 -0.6957
13683TIP3   OH262463   1.040   1.124   1.095 -0.5628  0.0600 -0.3509
13683TIP3    H162464   1.057   1.178   1.172 -0.1357  1.4696 -1.3967
13683TIP3    H262465   1.003   1.185   1.030 -1.6559 -1.2448 -1.0161
13684TIP3   OH262466   4.584   4.530  13.117 -0.2321  0.0334  0.0063
13684TIP3    H162467   4.591   4.441  13.150  0.9840  0.4077  0.8414
13684TIP3    H262468   4.552   4.521  13.027 -2.7114 -1.0777  0.9359
13685TIP3   OH262469   3.465   3.491   2.550 -0.1859  0.6601 -0.1478
13685TIP3    H162470   3.424   3.535   2.476 -1.8552  0.0538  0.3525
13685TIP3    H262471   3.395   3.437   2.587  0.8458  0.2644  1.3308
13686TIP3   OH262472   4.055   4.637   6.143 -0.3991 -0.9150  0.0249
13686TIP3    H162473   4.043   4.728   6.113 -0.3399 -0.3753  1.5327
13686TIP3    H262474   4.150   4.628   6.155 -0.4640 -0.9650  0.5015
13687TIP3   OH262475   6.488   5.463   0.878  0.4174 -0.4502  0.4852
13687TIP3    H162476   6.413   5.510   0.914  0.1022  0.6023 -1.4238
13687TIP3    H262477   6.564   5.512   0.909  0.2379 -0.3974  0.8551
13688TIP3   OH262478   6.678   1.220  14.481  0.3356  0.7067 -0.0780
13688TIP3    H162479   6.743   1.284  14.454  2.3051 -0.2561  2.0225
13688TIP3    H262480   6.662   1.167  14.403  0.3951  2.2961 -1.2102
13689TIP3   OH262481   0.825   6.596   1.553 -0.3655 -0.2855  0.5990
13689TIP3    H162482   0.846   6.688   1.571  0.4041 -1.0392  4.7103
13689TIP3    H262483   0.729   6.593   1.553 -0.3955  0.4872  0.6715
13690TIP3   OH262484   3.415   2.880  12.077 -0.4705 -0.9411  0.0252
13690TIP3    H162485   3.503   2.867  12.041  0.1518  0.2076  1.0537
13690TIP3    H262486   3.377   2.948  12.022 -0.1059 -0.2975  0.5612
13691TIP3   OH262487   4.586   4.169   2.085  0.0695  0.5164  0.9285
13691TIP3    H162488   4.540   4.251   2.069 -0.2682  0.0619 -0.5657
13691TIP3    H262489   4.612   4.139   1.998 -1.4068 -1.8779  1.2390
13692TIP3   OH262490   3.554   4.495   1.301 -0.1195 -0.9809  1.0118
13692TIP3    H162491   3.583   4.560   1.238 -1.3176  0.6694  2.0724
13692TIP3    H262492   3.545   4.414   1.250 -0.3131  0.1088 -0.7659
13693TIP3   OH262493   5.635   6.384  15.198 -0.2473  0.0094 -0.1874
13693TIP3    H162494   5.563   6.446  15.186  0.0349  0.8487  1.9687
13693TIP3    H262495   5.591   6.302  15.221 -0.5641  0.5119  1.1017
13694TIP3   OH262496   1.769   0.239  15.188  0.6133 -0.4523  0.0977
13694TIP3    H162497   1.721   0.206  15.264  0.4629 -0.8540 -0.1693
13694TIP3    H262498   1.734   0.189  15.115 -0.2445  0.8979 -0.4525
13695TIP3   OH262499   3.314   1.247   6.516  0.2732 -0.9410 -0.2701
13695TIP3    H162500   3.255   1.278   6.585  1.1241 -0.5789  0.3124
13695TIP3    H262501   3.256   1.205   6.452 -0.6023 -0.6714  0.3247
13696TIP3   OH262502   4.063   2.709   2.344 -0.1671  0.0529  0.3689
13696TIP3    H162503   4.051   2.614   2.350  0.9336 -0.2993 -2.0279
13696TIP3    H262504   4.101   2.734   2.429 -0.9267 -1.5439  1.2179
13697TIP3   OH262505   3.144   3.561   0.637  0.2062  0.5669 -0.3497
13697TIP3    H162506   3.188   3.645   0.653 -0.7983  1.1134 -0.3611
13697TIP3    H262507   3.073   3.559   0.701  1.7355 -1.4631  1.4195
13698TIP3   OH262508   2.649   4.053   2.686 -0.1480  0.5481 -0.3968
13698TIP3    H162509   2.690   3.967   2.694 -1.0656  0.1991  0.9395
13698TIP3    H262510   2.713   4.106   2.639  0.4422 -0.8519 -1.2259
13699TIP3   OH262511   4.294   3.613   0.650  0.8066  0.8853  1.0415
13699TIP3    H162512   4.381   3.573   0.656 -0.3013 -1.6451  1.7834
13699TIP3    H262513   4.252   3.591   0.734 -0.3521  2.5736  0.9488
13700TIP3   OH262514   4.861   1.155  13.248  0.9467 -0.0996  0.2369
13700TIP3    H162515   4.884   1.099  13.322 -0.8469  1.1071  1.7883
13700TIP3    H262516   4.806   1.100  13.193  0.0189 -0.2169  1.2438
13701TIP3   OH262517   1.540   1.006  14.263 -0.0835  0.0546 -0.5620
13701TIP3    H162518   1.625   1.025  14.303 -1.1153 -0.4345  2.0393
13701TIP3    H262519   1.498   0.945  14.323 -2.5994  0.8785 -1.3488
13702TIP3   OH262520   5.982   2.124  12.866  0.1749 -0.1114  0.6916
13702TIP3    H162521   6.034   2.055  12.908 -0.9608 -1.6679 -0.3568
13702TIP3    H262522   5.896   2.118  12.907  0.4998  1.9095  1.8313
13703TIP3   OH262523   0.935   5.984  13.810 -0.0878  0.7741 -0.5945
13703TIP3    H162524   0.854   6.001  13.762 -0.8110 -0.4992  0.1215
13703TIP3    H262525   0.918   6.019  13.898 -0.5239 -0.9636  0.0485
13704TIP3   OH262526   2.431   6.123   1.655 -0.5798  0.0469 -0.4409
13704TIP3    H162527   2.511   6.172   1.639 -0.4665 -0.4105 -1.3433
13704TIP3    H262528   2.429   6.057   1.586 -1.8712  0.2204 -0.5937
13705TIP3   OH262529   1.810   0.937  12.908  0.4740 -0.2026 -0.4844
13705TIP3    H162530   1.744   0.948  12.977  0.1795  0.0071 -0.7977
13705TIP3    H262531   1.770   0.874  12.848  0.7822 -0.4792 -0.4037
13706TIP3   OH262532   5.604   3.155   4.252 -0.0767  0.1716  0.2016
13706TIP3    H162533   5.523   3.179   4.298 -1.4404 -0.8314 -1.5593
13706TIP3    H262534   5.621   3.065   4.280 -0.1729  0.0171 -0.2278
13707TIP3   OH262535   3.439   3.408   2.235  0.2281 -0.1884 -0.5145
13707TIP3    H162536   3.479   3.494   2.240 -0.9796  0.4314 -1.0379
13707TIP3    H262537   3.468   3.373   2.151  0.8874 -0.3946 -0.2091
13708TIP3   OH262538   5.815   4.759  14.544 -0.4831 -0.0043 -0.1600
13708TIP3    H162539   5.835   4.853  14.538  1.0536 -0.3132 -0.3984
13708TIP3    H262540   5.898   4.720  14.573 -1.0868 -1.2952 -0.1422
13709TIP3   OH262541   4.568   4.810  13.845 -0.1002 -0.2248 -0.2853
13709TIP3    H162542   4.503   4.866  13.886  1.0255  0.2592  0.9077
13709TIP3    H262543   4.641   4.868  13.825  1.2972 -1.2761  1.4341
13710TIP3   OH262544   2.288   5.676   0.377  0.0249  0.2186 -0.6608
13710TIP3    H162545   2.196   5.661   0.398 -0.0820  2.5308  0.9649
13710TIP3    H262546   2.287   5.745   0.311  0.5856 -0.2422 -1.1582
13711TIP3   OH262547   3.683   2.283   4.239 -0.2732 -0.8974  0.2272
13711TIP3    H162548   3.687   2.335   4.319  1.1330  0.1476 -0.4967
13711TIP3    H262549   3.664   2.346   4.170  2.8139 -1.0370 -0.8734
13712TIP3   OH262550   4.696   6.590  11.585 -0.2296 -0.9041 -0.0490
13712TIP3    H162551   4.706   6.506  11.630 -1.5577 -1.1782 -0.2210
13712TIP3    H262552   4.722   6.656  11.650 -1.1024 -1.3555  0.7872
13713TIP3   OH262553   1.229   5.724   1.743  0.0762  0.2497  0.1173
13713TIP3    H162554   1.170   5.738   1.669  0.9477  1.8118 -0.3249
13713TIP3    H262555   1.218   5.632   1.765 -1.2081  0.0845 -1.0854
13714TIP3   OH262556   1.610   3.844   3.668  0.2413 -0.4445  0.4558
13714TIP3    H162557   1.609   3.915   3.604 -1.5882 -1.2172 -0.4682
13714TIP3    H262558   1.645   3.883   3.747  0.2755  1.2052 -0.3385
13715TIP3   OH262559   0.475   3.674  12.244 -0.0474 -0.3092 -0.3957
13715TIP3    H162560   0.538   3.667  12.316  0.1341  1.6550 -0.3288
13715TIP3    H262561   0.390   3.661  12.286  0.1404 -0.5258 -0.0684
13716TIP3   OH262562   6.393   5.515  12.859 -0.0500  0.1248 -0.4229
13716TIP3    H162563   6.400   5.485  12.768  0.6472 -0.6690 -0.1159
13716TIP3    H262564   6.473   5.484  12.901 -1.2633 -1.3016  0.9596
13717TIP3   OH262565   6.083   4.662   4.916  0.2501  0.6691 -0.2796
13717TIP3    H162566   6.088   4.588   4.976 -1.4019  1.0326  0.3663
13717TIP3    H262567   6.127   4.632   4.837 -1.3914 -1.4907 -0.4873
13718TIP3   OH262568   3.004   6.684   1.127  0.1338  0.0253  0.2817
13718TIP3    H162569   3.091   6.723   1.122  1.4180 -2.6154  0.5402
13718TIP3    H262570   2.956   6.740   1.187  1.7465  1.3559  0.4007
13719TIP3   OH262571   6.036   1.326  11.846  0.4639  0.0185 -0.2722
13719TIP3    H162572   5.993   1.241  11.847  0.1335  0.0737 -2.7803
13719TIP3    H262573   6.129   1.306  11.854  0.2699 -0.3006  2.0862
13720TIP3   OH262574   4.112   3.718   2.664  0.1400  0.3232 -0.7154
13720TIP3    H162575   4.049   3.696   2.595  0.6975 -3.9504 -0.1753
13720TIP3    H262576   4.062   3.713   2.745  0.8139 -2.2230 -0.3579
13721TIP3   OH262577   0.957   5.464  17.056  0.3392  0.8155 -0.0488
13721TIP3    H162578   1.044   5.493  17.029  0.4546  0.1812 -0.3758
13721TIP3    H262579   0.964   5.451  17.150  0.9862 -0.5303 -0.2626
13722TIP3   OH262580   3.456   5.325   2.374 -0.4593 -0.4604 -0.2139
13722TIP3    H162581   3.552   5.326   2.379 -0.4863 -1.3521  1.1728
13722TIP3    H262582   3.427   5.344   2.464 -1.5488 -1.5445 -0.3112
13723TIP3   OH262583   0.228   1.541   2.319  0.0632 -0.5455 -0.7864
13723TIP3    H162584   0.183   1.509   2.241 -1.9880  1.7702 -0.6844
13723TIP3    H262585   0.196   1.485   2.390 -1.4407  0.0170 -0.9875
13724TIP3   OH262586   2.318   4.479   5.471  0.0590 -0.3520 -0.2215
13724TIP3    H162587   2.270   4.529   5.405  0.4576 -1.2080 -1.1846
13724TIP3    H262588   2.410   4.487   5.445  0.3308  0.1466  0.8316
13725TIP3   OH262589   3.487   2.886  14.493  0.7470  0.2190 -0.4979
13725TIP3    H162590   3.424   2.814  14.499 -0.8230  1.6236  1.4509
13725TIP3    H262591   3.567   2.853  14.533 -0.2613 -0.1966  1.2766
13726TIP3   OH262592   3.001   6.252  14.242 -0.0767 -0.0263  0.4358
13726TIP3    H162593   2.952   6.175  14.214 -0.2762  0.5257 -0.7943
13726TIP3    H262594   2.997   6.249  14.338 -1.9222 -0.3761  0.3885
13727TIP3   OH262595   2.478   5.076  12.335 -0.2828  0.0221 -0.4256
13727TIP3    H162596   2.439   4.996  12.371  0.7001 -0.0239  0.6149
13727TIP3    H262597   2.570   5.053  12.321 -0.0639  0.8718 -0.4305
13728TIP3   OH262598   2.143   4.166  14.708  0.1888  0.1217 -0.5125
13728TIP3    H162599   2.104   4.124  14.785 -0.1541  0.9652 -0.2125
13728TIP3    H262600   2.234   4.137  14.708 -0.3227 -1.5531 -0.9932
13729TIP3   OH262601   3.756   1.153   3.808 -0.3212  0.1634 -0.5398
13729TIP3    H162602   3.778   1.168   3.716 -0.0536 -0.0160 -0.5064
13729TIP3    H262603   3.662   1.137   3.808 -0.5433  1.4166 -0.6221
13730TIP3   OH262604   0.969   3.856   2.180 -0.1255 -0.1649 -0.2485
13730TIP3    H162605   1.008   3.783   2.131 -1.5507 -2.0821  1.3295
13730TIP3    H262606   1.003   3.847   2.269  0.3543  1.6731 -0.1989
13731TIP3   OH262607   6.615   0.123   4.354 -0.1629 -0.2335 -0.2293
13731TIP3    H162608   6.624   0.047   4.297  0.3050 -0.8467  0.6434
13731TIP3    H262609   6.613   0.198   4.295 -1.7277 -0.9771 -1.1886
13732TIP3   OH262610   5.564   0.612   4.575  0.3568  0.8378  0.0172
13732TIP3    H162611   5.525   0.607   4.663 -2.4769 -0.2397 -1.2031
13732TIP3    H262612   5.516   0.682   4.531 -0.3668 -0.6141 -1.6060
13733TIP3   OH262613   6.754   1.126  12.946 -0.1138  0.1897  0.7696
13733TIP3    H162614   6.676   1.165  12.984  0.5578  3.1752 -0.6116
13733TIP3    H262615   6.766   1.044  12.994 -2.7300  0.7547  2.5960
13734TIP3   OH262616   5.699   3.825   3.724 -0.3079  0.0754  0.0419
13734TIP3    H162617   5.714   3.864   3.811 -2.5162 -0.2384  0.6294
13734TIP3    H262618   5.604   3.811   3.721 -0.3036  0.2255 -2.5066
13735TIP3   OH262619   2.783   1.068  16.657 -0.4188  0.5102 -0.5667
13735TIP3    H162620   2.779   1.151  16.611 -3.9914  1.5605  1.3253
13735TIP3    H262621   2.767   1.002  16.590 -1.2223  1.6541 -1.5283
13736TIP3   OH262622   6.602   5.650   2.713 -0.1853  0.4796 -0.1696
13736TIP3    H162623   6.656   5.644   2.634  0.2074 -3.0982  0.2019
13736TIP3    H262624   6.570   5.740   2.713  2.1297  1.4595 -2.8159
13737TIP3   OH262625   1.655   2.903   2.853 -0.3457 -0.1983  0.4762
13737TIP3    H162626   1.662   2.816   2.812  0.8974  0.0102  0.2075
13737TIP3    H262627   1.564   2.929   2.837 -0.0821 -0.3625 -1.7303
13738TIP3   OH262628   0.456   3.328   4.505  0.4663 -0.4042 -0.1807
13738TIP3    H162629   0.408   3.288   4.432  0.4456  1.8778 -1.4901
13738TIP3    H262630   0.391   3.381   4.550  0.9743 -0.1168  0.2264
13739TIP3   OH262631   4.151   4.783  13.608 -0.0153 -0.2746  0.3015
13739TIP3    H162632   4.112   4.711  13.558  0.3044  0.2134 -0.6648
13739TIP3    H262633   4.199   4.739  13.679  1.0369 -1.0859 -0.8698
13740TIP3   OH262634   5.130   4.989   1.086 -0.0430  0.3218 -0.3410
13740TIP3    H162635   5.154   5.081   1.096 -0.6244  0.4535 -0.0744
13740TIP3    H262636   5.205   4.940   1.118 -0.0660  0.7097  0.3105
13741TIP3   OH262637   1.466   2.155  13.599  0.1007  0.5985  0.0229
13741TIP3    H162638   1.516   2.075  13.583  0.2938  0.6481  0.3750
13741TIP3    H262639   1.471   2.203  13.516 -1.2925 -0.4347 -0.7256
13742TIP3   OH262640   2.477   3.198   3.495 -0.3377  0.1137  0.3948
13742TIP3    H162641   2.506   3.221   3.583 -0.9466 -0.7566  0.8363
13742TIP3    H262642   2.429   3.116   3.506  0.8922 -0.8391 -0.9901
13743TIP3   OH262643   0.991   5.575  12.236  0.1590  0.2952 -0.1858
13743TIP3    H162644   1.049   5.651  12.229  2.0350 -1.1646 -1.4565
13743TIP3    H262645   0.940   5.575  12.155  2.0056 -1.1473 -1.4300
13744TIP3   OH262646   3.624   5.227  12.170  0.5675 -0.2254  0.3630
13744TIP3    H162647   3.683   5.260  12.238  1.3076 -3.1197  1.2527
13744TIP3    H262648   3.674   5.161  12.124 -1.0156 -0.6182 -0.8879
13745TIP3   OH262649   3.290   2.720  12.254 -0.0422 -0.3852  0.3122
13745TIP3    H162650   3.330   2.764  12.179 -2.6412 -1.1010 -1.6251
13745TIP3    H262651   3.288   2.786  12.323 -0.4335  1.3400 -1.2846
13746TIP3   OH262652   1.246   3.753   6.909 -0.1785 -0.6061 -0.7704
13746TIP3    H162653   1.315   3.793   6.962 -0.8660  1.9587 -1.6572
13746TIP3    H262654   1.291   3.725   6.829 -0.1201  1.1737 -1.4033
13747TIP3   OH262655   5.825   5.320   5.800 -0.6728 -0.4383  0.1080
13747TIP3    H162656   5.906   5.357   5.835  0.7925 -0.9259 -2.5476
13747TIP3    H262657   5.839   5.226   5.801 -0.8128 -0.4885 -1.2196
13748TIP3   OH262658   5.427   3.014   5.146 -0.4189 -0.5485  0.0096
13748TIP3    H162659   5.350   2.976   5.188  0.8871 -1.6606  1.5114
13748TIP3    H262660   5.461   2.944   5.090  0.0929 -0.4391  0.1787
13749TIP3   OH262661   4.655   5.142   3.896 -0.0428 -0.8643 -0.1934
13749TIP3    H162662   4.591   5.126   3.826 -0.7345  0.6058  0.0612
13749TIP3    H262663   4.607   5.126   3.977  0.2641 -0.8915 -0.0152
13750TIP3   OH262664   2.683   1.513  13.296 -0.1383 -0.3623  0.6224
13750TIP3    H162665   2.710   1.605  13.296 -1.1412 -0.0555  0.6374
13750TIP3    H262666   2.601   1.512  13.346  0.1588 -1.3573  1.1188
13751TIP3   OH262667   0.136   1.920   6.176 -0.2445  0.0494  0.1477
13751TIP3    H162668   0.183   1.839   6.159 -0.1850  0.6250 -2.9213
13751TIP3    H262669   0.061   1.894   6.228  0.3550 -1.7860  0.1517
13752TIP3   OH262670   0.840   6.466  11.655 -0.0860  0.1608  0.6235
13752TIP3    H162671   0.784   6.432  11.725  2.3621 -0.2964  2.5324
13752TIP3    H262672   0.895   6.391  11.631 -0.4613  0.4880 -1.4340
13753TIP3   OH262673   4.874   2.366   2.356 -0.0438  0.0348 -0.4130
13753TIP3    H162674   4.940   2.317   2.308 -0.6766  0.1256 -1.4277
13753TIP3    H262675   4.808   2.301   2.380  0.6826 -0.1693  1.1465
13754TIP3   OH262676   0.000   2.348  12.036 -0.1013  0.5660 -0.4567
13754TIP3    H162677   0.080   2.394  12.011  2.2311 -2.3406  0.9547
13754TIP3    H262678   0.023   2.255  12.031 -2.8130 -0.3812  1.7583
13755TIP3   OH262679   5.370   2.359  13.177 -0.3862  0.2049 -0.3766
13755TIP3    H162680   5.360   2.411  13.257 -0.8376 -2.2444  1.2746
13755TIP3    H262681   5.465   2.357  13.161 -0.4560  3.1177 -1.6954
13756TIP3   OH262682   4.441   6.646   2.829  0.8200 -0.1760 -0.5963
13756TIP3    H162683   4.472   6.676   2.914  3.3995  2.2231 -2.2421
13756TIP3    H262684   4.447   6.722   2.772 -1.3824 -1.5320 -2.8572
13757TIP3   OH262685   2.248   2.755  14.007  0.3585  0.8940  0.3827
13757TIP3    H162686   2.322   2.695  14.015 -2.3976 -3.1539 -1.1018
13757TIP3    H262687   2.201   2.746  14.090 -0.9321 -0.4099 -0.4464
13758TIP3   OH262688   1.369   1.000   1.441  0.0309  0.1419 -0.2214
13758TIP3    H162689   1.426   0.931   1.474  0.3177  1.3952  2.1599
13758TIP3    H262690   1.281   0.971   1.464  0.3024  1.9040  4.0429
13759TIP3   OH262691   3.149   0.808   0.245  0.4620  0.5733  0.5257
13759TIP3    H162692   3.094   0.865   0.191  0.6421 -0.0231 -0.2873
13759TIP3    H262693   3.093   0.733   0.265  0.9142  0.0553 -0.1413
13760TIP3   OH262694   5.997   3.018   6.110 -0.3034  0.6761 -0.7838
13760TIP3    H162695   6.013   3.089   6.172 -1.4453  0.7889 -0.6064
13760TIP3    H262696   6.075   3.018   6.054  1.4762 -0.4223  1.5382
13761TIP3   OH262697   4.348   4.734  14.567  0.3654 -0.4848 -0.2854
13761TIP3    H162698   4.416   4.698  14.623 -0.3127  0.0172  0.9087
13761TIP3    H262699   4.395   4.790  14.506  1.1944 -1.5950 -0.6988
13762TIP3   OH262700   0.530   5.712   5.542  0.0643 -0.2782  0.0516
13762TIP3    H162701   0.606   5.691   5.597 -0.4364  0.1645  0.9359
13762TIP3    H262702   0.464   5.648   5.568  0.1213 -0.6463 -0.6986
13763TIP3   OH262703   3.525   0.596  16.377  0.2743 -0.0415 -0.0140
13763TIP3    H162704   3.545   0.521  16.432 -0.0914 -1.0318 -1.1736
13763TIP3    H262705   3.607   0.645  16.372  0.6153 -0.5503  0.4906
13764TIP3   OH262706   0.489   1.452   2.868  0.2118  0.1719 -0.2329
13764TIP3    H162707   0.475   1.483   2.778  0.0563  0.1592 -0.2126
13764TIP3    H262708   0.447   1.366   2.870 -1.1908  0.8400  0.3123
13765TIP3   OH262709   1.904   6.712  11.040  0.3751 -0.2227 -0.2699
13765TIP3    H162710   1.873   6.701  10.950 -1.2829  1.0891  0.0877
13765TIP3    H262711   1.973   6.778  11.033  0.2792 -0.1534 -0.5937
13766TIP3   OH262712   3.101   5.916   3.015 -0.9592 -0.0056 -0.6689
13766TIP3    H162713   3.099   5.985   2.949 -2.4553  0.7919  0.1629
13766TIP3    H262714   3.138   5.958   3.093 -0.7666 -0.4654 -0.5102
13767TIP3   OH262715   2.153   6.711   6.133 -0.2573 -0.7276 -0.9846
13767TIP3    H162716   2.134   6.805   6.123 -0.7672 -0.3900  2.1251
13767TIP3    H262717   2.248   6.707   6.140 -0.3499  0.0745  2.0290
13768TIP3   OH262718   2.483   0.695  13.199 -0.1834  0.4559 -0.7430
13768TIP3    H162719   2.518   0.607  13.212 -0.1304  0.6324  0.4488
13768TIP3    H262720   2.506   0.741  13.280 -0.6215  1.4225 -1.1635
13769TIP3   OH262721   4.596   5.510  14.900 -0.9523  0.1569 -0.4390
13769TIP3    H162722   4.602   5.551  14.986 -2.6399 -0.5633  0.0766
13769TIP3    H262723   4.552   5.575  14.845 -1.9435 -0.2154 -0.1166
13770TIP3   OH262724   5.021   2.304  13.433 -0.6260 -1.0321 -0.0527
13770TIP3    H162725   4.942   2.343  13.395 -0.1553  0.7777  0.7159
13770TIP3    H262726   5.042   2.231  13.374 -3.2622 -2.0567  0.1402
13771TIP3   OH262727   0.425   3.493  14.292  0.0565  0.3530 -0.5780
13771TIP3    H162728   0.473   3.570  14.323 -0.1272  0.2538 -0.0199
13771TIP3    H262729   0.400   3.448  14.373  1.5703 -1.1653 -0.9036
13772TIP3   OH262730   5.701   4.877  12.129  0.1141  0.4328 -0.3700
13772TIP3    H162731   5.746   4.840  12.053 -1.7837  0.6959 -1.6885
13772TIP3    H262732   5.706   4.809  12.196  5.9040  1.8121  1.1787
13773TIP3   OH262733   6.280   5.962   1.179 -1.0962 -0.4099  0.0770
13773TIP3    H162734   6.233   5.943   1.261 -0.4790 -3.7047 -0.1948
13773TIP3    H262735   6.253   5.892   1.120  0.6322  0.2864 -1.6183
13774TIP3   OH262736   0.556   0.792   0.812  0.0913 -0.1293 -0.0781
13774TIP3    H162737   0.490   0.746   0.761  0.3978  0.0205 -0.6182
13774TIP3    H262738   0.536   0.885   0.801 -0.5717 -0.1181  1.0719
13775TIP3   OH262739   3.256   2.032   1.876  0.2758 -0.4587  0.1703
13775TIP3    H162740   3.213   2.005   1.957 -0.9528 -3.0921 -1.2507
13775TIP3    H262741   3.184   2.046   1.814  1.2748 -0.8414 -1.1151
13776TIP3   OH262742   1.136   3.621   7.171 -0.5215  0.6436 -0.6091
13776TIP3    H162743   1.118   3.671   7.092 -0.8861 -0.6771 -1.4047
13776TIP3    H262744   1.218   3.575   7.152  0.8093  2.3052  0.8170
13777TIP3   OH262745   5.349   0.257  15.824  0.4792 -0.6460 -0.0958
13777TIP3    H162746   5.254   0.246  15.816  0.5879 -1.3578 -0.4823
13777TIP3    H262747   5.361   0.351  15.836 -0.4174 -0.7312  2.0269
13778TIP3   OH262748   1.435   4.918  14.093 -0.0678  0.4790  0.2257
13778TIP3    H162749   1.516   4.870  14.078  0.6758  1.4399  1.0298
13778TIP3    H262750   1.377   4.854  14.135  0.5813  0.0313  0.4553
13779TIP3   OH262751   5.017   4.452   5.627  0.1273  0.6724 -0.1050
13779TIP3    H162752   4.940   4.422   5.675 -0.6958 -1.6966 -2.6146
13779TIP3    H262753   5.091   4.423   5.680 -0.6880  0.4804  0.9752
13780TIP3   OH262754   3.672   3.819   3.288  0.0330  0.1464  0.8510
13780TIP3    H162755   3.688   3.747   3.349  1.1228  1.0149  1.6196
13780TIP3    H262756   3.749   3.875   3.296  0.1953  0.3198 -1.3009
13781TIP3   OH262757   3.907   0.212  14.935  0.5275 -0.5908  0.3333
13781TIP3    H162758   3.873   0.272  15.001  1.0971  1.0355 -0.8014
13781TIP3    H262759   4.001   0.206  14.954  0.3390 -1.8836  0.9909
13782TIP3   OH262760   1.468   6.170   1.051  0.5400 -0.3042  1.0025
13782TIP3    H162761   1.460   6.258   1.015  4.2527 -0.5149 -0.7308
13782TIP3    H262762   1.397   6.120   1.008  0.4595  1.0889 -0.5652
13783TIP3   OH262763   3.771   2.329   1.941 -0.6467 -0.0431 -0.0820
13783TIP3    H162764   3.770   2.236   1.965  0.4943  0.2218  1.0846
13783TIP3    H262765   3.679   2.351   1.925 -1.0877 -1.0236  1.0206
13784TIP3   OH262766   6.306   4.807   6.104 -0.1274 -0.1298 -0.2508
13784TIP3    H162767   6.344   4.876   6.159 -1.2722  0.8126 -0.6038
13784TIP3    H262768   6.217   4.796   6.137 -1.1325  1.0392 -2.3800
13785TIP3   OH262769   1.655   3.688   4.768  0.5105 -1.0822  0.5645
13785TIP3    H162770   1.586   3.701   4.704  0.5943 -1.3109  0.4280
13785TIP3    H262771   1.690   3.601   4.749  0.0396 -1.4680  1.3941
13786TIP3   OH262772   5.649   1.588   2.810 -0.2833  0.5959  0.1303
13786TIP3    H162773   5.595   1.571   2.733  0.5135 -0.8839 -0.1400
13786TIP3    H262774   5.670   1.501   2.844  0.3444  1.1978  1.3479
13787TIP3   OH262775   6.596   0.791   0.810 -0.5653 -0.2089  0.5062
13787TIP3    H162776   6.604   0.803   0.715 -1.1128 -1.6924  0.2455
13787TIP3    H262777   6.680   0.753   0.836 -0.5479 -0.1264  0.5732
13788TIP3   OH262778   6.573   5.101   0.672 -0.5153 -0.0068 -0.0979
13788TIP3    H162779   6.659   5.074   0.639 -0.0359  0.4684  0.7136
13788TIP3    H262780   6.538   5.158   0.603  0.3053  0.6711  0.0164
13789TIP3   OH262781   1.938   3.814  15.198  0.0838 -0.2749  0.4829
13789TIP3    H162782   1.895   3.818  15.283 -0.0408  2.3556  0.3951
13789TIP3    H262783   1.869   3.834  15.135  0.7191  0.6906  0.0599
13790TIP3   OH262784   4.414   5.427  15.259 -0.6412 -0.0638  0.2302
13790TIP3    H162785   4.447   5.346  15.297  1.9818  1.1590  0.7585
13790TIP3    H262786   4.455   5.496  15.311 -1.7386  1.6203 -1.0494
13791TIP3   OH262787   6.142   5.252  13.692 -0.2754 -0.6661 -0.3023
13791TIP3    H162788   6.170   5.256  13.601 -1.1377  0.0136 -0.5522
13791TIP3    H262789   6.223   5.247  13.742  0.3176  1.2007 -0.9908
13792TIP3   OH262790   6.242   2.284   2.771  0.2186 -0.4538 -0.3956
13792TIP3    H162791   6.151   2.293   2.744  0.4250 -0.8712 -1.2665
13792TIP3    H262792   6.290   2.343   2.712  0.2768  1.6759  1.6469
13793TIP3   OH262793   1.647   4.259   2.111  0.2149  0.8971 -0.2232
13793TIP3    H162794   1.555   4.274   2.136  0.7667  4.0710  0.3759
13793TIP3    H262795   1.649   4.275   2.017  0.1350  0.7529 -0.2494
13794TIP3   OH262796   6.019   0.844  16.605  0.5624  0.1171 -0.7987
13794TIP3    H162797   5.988   0.915  16.549 -1.1602 -0.5628 -0.7753
13794TIP3    H262798   6.043   0.775  16.543  1.2597  0.3342 -0.7815
13795TIP3   OH262799   3.260   2.459  11.320 -0.0583  0.8825 -0.6999
13795TIP3    H162800   3.343   2.429  11.358  0.0640  1.4201 -0.5303
13795TIP3    H262801   3.285   2.529  11.260 -0.2818  0.2172 -1.5921
13796TIP3   OH262802   3.062   4.778  15.004  0.1356  1.0579  0.1105
13796TIP3    H162803   2.983   4.789  15.057 -1.0252  0.3293 -1.4141
13796TIP3    H262804   3.132   4.768  15.068 -1.3790 -1.0992  1.5494
13797TIP3   OH262805   2.199   4.086   3.862 -0.5552 -0.1822 -0.4673
13797TIP3    H162806   2.261   4.014   3.875  0.2212  0.6747  0.7976
13797TIP3    H262807   2.156   4.065   3.779 -0.1944 -1.9780 -0.2527
13798TIP3   OH262808   2.771   2.864  11.444  0.0899 -0.1757  0.0791
13798TIP3    H162809   2.799   2.822  11.526 -0.9646  3.0031  2.2779
13798TIP3    H262810   2.852   2.882  11.398  0.6514 -3.1316 -0.2975
13799TIP3   OH262811   3.901   6.474  12.076  0.1656  0.1225  0.2552
13799TIP3    H162812   3.811   6.508  12.070  0.0381 -0.4023 -0.9782
13799TIP3    H262813   3.956   6.552  12.080 -0.3692  0.4651  1.9384
13800TIP3   OH262814   3.825   2.686   6.346 -0.3417 -0.0546  0.6576
13800TIP3    H162815   3.888   2.675   6.275  0.9754 -0.8556  1.9086
13800TIP3    H262816   3.759   2.619   6.330  0.5735 -1.0139  0.8220
13801TIP3   OH262817   4.744   5.373  14.696 -0.5870  0.5978  0.0872
13801TIP3    H162818   4.832   5.349  14.727 -0.7808 -0.1449  0.0763
13801TIP3    H262819   4.700   5.409  14.773  0.8423  4.3235 -0.6226
13802TIP3   OH262820   6.544   4.621  12.625  0.0090 -0.2037  0.5295
13802TIP3    H162821   6.607   4.693  12.621 -0.4830  0.2374  0.6135
13802TIP3    H262822   6.476   4.651  12.685 -0.7678 -0.2761 -0.2740
13803TIP3   OH262823   5.240   5.087  13.921  0.2812  0.2479 -0.3183
13803TIP3    H162824   5.237   4.995  13.949 -1.1814  0.4532  0.3174
13803TIP3    H262825   5.250   5.084  13.826 -3.4149 -0.7135 -0.8178
13804TIP3   OH262826   1.928   0.714  12.451  0.1548  0.4934  0.3186
13804TIP3    H162827   1.958   0.671  12.371 -0.4337 -0.6767  0.7119
13804TIP3    H262828   2.001   0.703  12.513  0.3640  0.8664  0.1440
13805TIP3   OH262829   0.595   6.337   0.399  0.1579 -0.1170  0.1740
13805TIP3    H162830   0.689   6.351   0.410  0.0515 -1.1240  3.2538
13805TIP3    H262831   0.574   6.267   0.460 -2.8924  1.2888  0.9383
13806TIP3   OH262832   6.014   3.685   1.709  0.2007 -0.4001  0.4025
13806TIP3    H162833   6.015   3.737   1.789  0.8691  1.3607 -0.6961
13806TIP3    H262834   6.029   3.748   1.639  2.4254 -2.2232 -0.9219
13807TIP3   OH262835   4.332   1.037  15.260 -0.0398 -0.1879 -0.1455
13807TIP3    H162836   4.402   1.006  15.317  0.1129  0.3306 -0.0453
13807TIP3    H262837   4.328   1.132  15.276 -2.3722 -0.4975  1.6804
13808TIP3   OH262838   3.587   1.534  10.960  0.2015 -0.0693  0.1750
13808TIP3    H162839   3.679   1.533  10.936  0.1106 -1.5050 -0.1541
13808TIP3    H262840   3.574   1.622  10.998  1.3502  0.6563 -1.0252
13809TIP3   OH262841   5.768   4.641   3.956 -0.6523  0.1307 -0.0913
13809TIP3    H162842   5.702   4.655   4.024 -0.6875  0.8000 -0.2557
13809TIP3    H262843   5.805   4.728   3.941  2.7301 -0.6414  2.4657
13810TIP3   OH262844   4.962   4.071  16.697  0.4118 -0.4155 -0.9832
13810TIP3    H162845   5.006   4.125  16.762  0.0025 -2.8762  1.5224
13810TIP3    H262846   5.027   4.056  16.629  1.0420  1.7957 -0.9300
13811TIP3   OH262847   0.544   4.293   4.403  0.0632 -0.3724  0.1327
13811TIP3    H162848   0.549   4.229   4.332 -0.1312  0.9590 -1.1306
13811TIP3    H262849   0.623   4.278   4.454  1.0858 -0.2691 -1.3554
13812TIP3   OH262850   3.553   4.296  16.837 -0.0255  0.1637 -0.1198
13812TIP3    H162851   3.610   4.337  16.772  0.6226  0.3286  0.5439
13812TIP3    H262852   3.611   4.275  16.910 -0.3818 -1.6928 -0.3145
13813TIP3   OH262853   1.400   3.763  16.203 -0.4393  0.2869  0.0077
13813TIP3    H162854   1.460   3.802  16.266 -1.3346  1.2522  0.3030
13813TIP3    H262855   1.358   3.838  16.161  2.1663 -0.1613 -3.8848
13814TIP3   OH262856   2.818   4.588   5.757  0.4809 -0.1708 -0.3169
13814TIP3    H162857   2.725   4.569   5.764  0.8269 -1.3900  2.4677
13814TIP3    H262858   2.822   4.682   5.741 -1.1908 -0.5258 -3.5116
13815TIP3   OH262859   4.693   3.621   3.914 -0.2231 -0.1907  0.2330
13815TIP3    H162860   4.752   3.697   3.914  0.8359 -0.9928 -0.4738
13815TIP3    H262861   4.708   3.580   3.999 -1.3750  0.7938  0.9475
13816TIP3   OH262862   2.782   2.489   3.923  0.5587  0.1171 -0.2303
13816TIP3    H162863   2.842   2.472   3.995  2.6230  0.4717 -1.7738
13816TIP3    H262864   2.801   2.421   3.859  2.2313  2.4452 -2.4386
13817TIP3   OH262865   0.838   3.727   5.966  0.3902  0.1139  0.4835
13817TIP3    H162866   0.745   3.719   5.948  0.6671  0.1054 -1.0660
13817TIP3    H262867   0.875   3.641   5.947  0.9506  0.5688 -0.6099
13818TIP3   OH262868   4.009   1.407   2.906  0.3360 -0.4831  0.2428
13818TIP3    H162869   3.964   1.356   2.839 -0.6259 -1.1563  1.3676
13818TIP3    H262870   4.060   1.343   2.955  0.4762 -0.1005  0.6029
13819TIP3   OH262871   5.506   5.792   2.315  0.2872  0.0295 -0.6483
13819TIP3    H162872   5.449   5.721   2.345  1.2529 -0.7958 -0.7100
13819TIP3    H262873   5.550   5.756   2.239  1.5104  0.3376 -0.1032
13820TIP3   OH262874   5.085   0.282  11.463  0.2976 -0.1710  0.3299
13820TIP3    H162875   5.078   0.297  11.369  0.1094  0.7740  0.4889
13820TIP3    H262876   5.031   0.205  11.479 -0.4238  0.2121 -0.2017
13821TIP3   OH262877   0.363   5.727   5.335 -0.1156 -0.1380 -0.0956
13821TIP3    H162878   0.277   5.703   5.369  0.0292 -3.3079 -1.6051
13821TIP3    H262879   0.417   5.739   5.413 -1.0677 -1.7025  0.8527
13822TIP3   OH262880   2.901   2.432  12.368 -0.1185 -0.3332 -0.0987
13822TIP3    H162881   2.986   2.392  12.349 -0.6920 -1.4027 -0.4706
13822TIP3    H262882   2.914   2.526  12.350  1.1637 -0.3783  0.5005
13823TIP3   OH262883   4.474   5.750   3.786  0.0639  0.3923  0.0417
13823TIP3    H162884   4.475   5.841   3.755  1.0667 -0.1100 -1.5185
13823TIP3    H262885   4.554   5.743   3.839 -1.2671  1.0426  2.2908
13824TIP3   OH262886   3.331   1.207  15.892 -0.4801 -0.0531  0.2048
13824TIP3    H162887   3.342   1.112  15.894 -0.2229 -0.0159  0.6522
13824TIP3    H262888   3.269   1.225  15.963 -0.5979  0.1054  0.0623
13825TIP3   OH262889   3.284   0.882   2.025  0.9114 -0.9723 -0.4644
13825TIP3    H162890   3.314   0.960   2.073  0.8426 -0.6312 -0.9656
13825TIP3    H262891   3.249   0.917   1.943 -1.2694 -1.3099  0.2610
13826TIP3   OH262892   6.334   1.519  13.940  0.0131 -0.2428 -0.4050
13826TIP3    H162893   6.390   1.446  13.915  2.8443  2.2413 -1.9545
13826TIP3    H262894   6.262   1.516  13.876 -1.3240 -2.9298  1.0349
13827TIP3   OH262895   5.344   1.088   2.514 -0.0362 -0.2631  0.2701
13827TIP3    H162896   5.333   1.139   2.434 -2.0135 -0.4312  0.3869
13827TIP3    H262897   5.404   1.140   2.568 -2.2783  2.2276  0.5620
13828TIP3   OH262898   2.365   5.379  15.979  0.3336  0.7377  0.2745
13828TIP3    H162899   2.460   5.392  15.975  0.1575  2.2408  0.4885
13828TIP3    H262900   2.330   5.437  15.912 -0.4893  0.8891  0.8181
13829TIP3   OH262901   5.111   0.120  13.351 -1.2726  0.3222  0.1442
13829TIP3    H162902   5.135   0.098  13.441 -2.6905 -1.4591  0.1516
13829TIP3    H262903   5.025   0.161  13.358 -1.9430 -0.9168 -0.4348
13830TIP3   OH262904   4.186   3.255   0.738 -0.1231  0.9951 -0.5191
13830TIP3    H162905   4.271   3.218   0.762 -0.7827 -0.9059 -0.9950
13830TIP3    H262906   4.204   3.305   0.658  0.4451  0.1380 -0.9432
13831TIP3   OH262907   1.107   5.933   2.386 -0.0845  0.2385  0.4243
13831TIP3    H162908   1.128   5.949   2.294 -0.3359  0.3445  0.3838
13831TIP3    H262909   1.179   5.880   2.419  1.5597  2.6498  0.9423
13832TIP3   OH262910   6.541   6.501   3.700 -0.0547  0.5639 -0.0696
13832TIP3    H162911   6.583   6.471   3.781 -0.5900 -1.7918 -0.5929
13832TIP3    H262912   6.511   6.589   3.720  1.0135  0.5471  1.8484
13833TIP3   OH262913   6.342   3.715  14.682 -0.3581  0.5698 -0.3051
13833TIP3    H162914   6.335   3.636  14.737 -0.4926  0.9076  0.1717
13833TIP3    H262915   6.417   3.697  14.625  1.1544  1.0449  1.4169
13834TIP3   OH262916   3.654   5.140   3.526  0.0976 -0.0532  0.2849
13834TIP3    H162917   3.612   5.224   3.545 -1.5131 -1.2293  2.1936
13834TIP3    H262918   3.649   5.091   3.608 -0.0467 -2.4603 -1.0848
13835TIP3   OH262919   2.986   0.676  15.999  0.2005  0.2240  0.3822
13835TIP3    H162920   3.074   0.700  16.026  1.2350 -3.5312  0.9534
13835TIP3    H262921   2.944   0.759  15.978  3.6673  2.2190  0.5431
13836TIP3   OH262922   0.527   6.344  13.540 -0.0596 -0.2252  0.2096
13836TIP3    H162923   0.600   6.306  13.491  0.7859  1.3938  0.1651
13836TIP3    H262924   0.567   6.384  13.617 -0.8896  0.7314  0.1666
13837TIP3   OH262925   5.392   0.002  16.237  0.0981 -0.4264 -0.3337
13837TIP3    H162926   5.362  -0.080  16.198  0.6577 -0.5920 -0.4278
13837TIP3    H262927   5.325   0.066  16.213  0.5345 -0.4721 -1.7573
13838TIP3   OH262928   3.373   4.263  12.339  0.0903  0.4105  0.1932
13838TIP3    H162929   3.304   4.207  12.374 -0.7751 -0.1620 -2.2190
13838TIP3    H262930   3.364   4.345  12.387 -1.8722  0.1248  0.4092
13839TIP3   OH262931   4.990   2.344   4.912  0.1494  0.3367  0.5239
13839TIP3    H162932   5.015   2.252   4.912  1.4431  0.6660  1.5107
13839TIP3    H262933   4.901   2.345   4.948  0.0144 -0.5445  0.2243
13840TIP3   OH262934   5.728   2.106  11.030 -0.5156  0.1563  0.0609
13840TIP3    H162935   5.647   2.057  11.015 -0.8357  0.0610  1.9247
13840TIP3    H262936   5.797   2.048  11.000 -1.1155  0.7413 -2.8242
13841TIP3   OH262937   3.675   5.957  14.749 -0.1230 -0.2619  0.5395
13841TIP3    H162938   3.697   5.995  14.664 -0.0893 -1.0888  0.1640
13841TIP3    H262939   3.711   6.018  14.813  2.3896 -1.0134 -0.0338
13842TIP3   OH262940   6.529   2.169   0.733  0.2244  0.2183 -0.3145
13842TIP3    H162941   6.624   2.156   0.737 -0.0027 -1.3402  2.2406
13842TIP3    H262942   6.494   2.081   0.718 -0.8472  0.7612 -1.0646
13843TIP3   OH262943   2.624   5.619  15.211  0.2511  0.3410  0.2729
13843TIP3    H162944   2.581   5.548  15.164  1.2376  0.1098 -0.3280
13843TIP3    H262945   2.649   5.681  15.143  0.2651  0.7920  0.6826
13844TIP3   OH262946   2.762   3.865   6.237 -0.4426  0.0372  0.6303
13844TIP3    H162947   2.769   3.784   6.288  0.6400 -1.1917 -1.3266
13844TIP3    H262948   2.687   3.852   6.180  1.1166 -0.7000 -1.3863
13845TIP3   OH262949   0.859   3.117  12.063  0.8931  0.1154 -0.1681
13845TIP3    H162950   0.809   3.199  12.068  0.0622 -0.3853 -0.0554
13845TIP3    H262951   0.940   3.135  12.111 -0.3216  0.1459  2.0264
13846TIP3   OH262952   5.154   2.113  10.928 -0.3959  0.3877 -0.8760
13846TIP3    H162953   5.061   2.129  10.946 -0.4227  0.2215 -0.8677
13846TIP3    H262954   5.170   2.024  10.957 -0.2377  0.4080 -0.8970
13847TIP3   OH262955   1.587   1.082  16.086  0.4955  0.3682  0.3188
13847TIP3    H162956   1.573   0.987  16.080  2.0921  0.1313 -0.1071
13847TIP3    H262957   1.562   1.116  16.001 -1.0955  0.5137  0.8034
13848TIP3   OH262958   4.088   1.659  15.537 -0.1099  1.0131 -0.1347
13848TIP3    H162959   4.027   1.644  15.610  0.6125 -0.3320  0.2233
13848TIP3    H262960   4.040   1.629  15.460  0.1408 -0.2215  0.1708
13849TIP3   OH262961   1.875   0.263   1.185 -0.0868 -0.5023 -0.3511
13849TIP3    H162962   1.891   0.318   1.262 -0.5207 -0.4305 -0.3086
13849TIP3    H262963   1.948   0.283   1.126 -0.1325 -0.0263 -0.2551
13850TIP3   OH262964   6.275   5.514  11.495  0.1897 -0.2239  0.1723
13850TIP3    H162965   6.297   5.456  11.569  1.9708  0.3521  0.1245
13850TIP3    H262966   6.306   5.467  11.418  1.7976  0.8001  0.1442
13851TIP3   OH262967   4.160   0.369  15.274  0.1196  0.0521 -0.8776
13851TIP3    H162968   4.152   0.375  15.369 -0.2235 -1.0856 -0.8217
13851TIP3    H262969   4.182   0.458  15.246  0.1305  0.4174  0.2516
13852TIP3   OH262970   1.459   4.030  12.627  0.2896  0.3956  0.0860
13852TIP3    H162971   1.544   4.063  12.600  0.2862  1.0283  0.8249
13852TIP3    H262972   1.478   3.948  12.673  0.3699 -0.1917 -0.9524
13853TIP3   OH262973   6.176   0.426   0.792  0.3893  0.1560  0.0142
13853TIP3    H162974   6.209   0.361   0.855  2.7791  1.7095  0.5138
13853TIP3    H262975   6.107   0.472   0.838  1.0814  0.2588  0.9817
13854TIP3   OH262976   6.427   3.191   3.759 -0.1518 -0.4364  0.6602
13854TIP3    H162977   6.448   3.151   3.844  0.8964 -0.2335  0.5195
13854TIP3    H262978   6.415   3.284   3.780 -0.6888 -0.5104  0.6984
13855TIP3   OH262979   2.909   1.398   3.083  0.4261 -0.0146 -0.2119
13855TIP3    H162980   2.890   1.337   3.154 -0.3213 -0.9059 -1.1538
13855TIP3    H262981   2.986   1.447   3.113  2.2940 -2.7455 -0.2212
13856TIP3   OH262982   5.535   0.952  16.686  0.3044  0.1844 -0.0278
13856TIP3    H162983   5.459   1.011  16.687 -0.4570 -0.7713  0.7514
13856TIP3    H262984   5.576   0.965  16.772  0.9812  0.6081 -0.3987
13857TIP3   OH262985   0.024   1.174   2.299 -0.2149  0.0640 -0.2067
13857TIP3    H162986   0.078   1.214   2.367 -0.9893  0.5985  0.1107
13857TIP3    H262987  -0.065   1.202   2.319 -1.0124 -2.7831  0.7500
13858TIP3   OH262988   0.676   2.655   5.749 -0.2983 -0.2728 -0.6524
13858TIP3    H162989   0.641   2.578   5.793 -0.5806 -0.3650 -1.0297
13858TIP3    H262990   0.726   2.700   5.816 -1.6891  0.2275  0.0857
13859TIP3   OH262991   4.679   3.666  13.774 -0.1300  0.4372  0.5516
13859TIP3    H162992   4.722   3.713  13.703  1.7712 -1.5756  0.2479
13859TIP3    H262993   4.625   3.600  13.730 -1.7346  1.4022  0.9829
13860TIP3   OH262994   2.847   1.056   5.247  0.3059 -0.0321  0.1415
13860TIP3    H162995   2.872   1.010   5.167  0.7047  0.0976  0.1889
13860TIP3    H262996   2.809   0.989   5.303 -0.6618  0.0125 -0.4445
13861TIP3   OH262997   4.974   1.689  12.889  0.5181 -0.0482  0.7071
13861TIP3    H162998   4.908   1.759  12.882 -2.6465 -2.7730  0.7553
13861TIP3    H262999   5.052   1.726  12.849 -1.8519  2.4564 -2.1243
13862TIP3   OH263000   6.646   6.629   2.697  0.5530  0.5679  0.1788
13862TIP3    H163001   6.561   6.659   2.728  0.6577  1.0803 -0.0145
13862TIP3    H263002   6.635   6.618   2.602  0.1390 -1.3159  0.4030
13863TIP3   OH263003   1.306   5.786  10.875 -0.2828  0.6186 -0.4861
13863TIP3    H163004   1.268   5.709  10.832 -0.3340  0.7644 -0.7023
13863TIP3    H263005   1.393   5.757  10.904  0.4754  1.0115 -2.2209
13864TIP3   OH263006   3.135   0.784  15.035  0.4048 -0.7862  0.2339
13864TIP3    H163007   3.055   0.811  14.990  1.0864 -0.8406 -1.0652
13864TIP3    H263008   3.205   0.831  14.990  1.1498 -1.0720  1.0656
13865TIP3   OH263009   6.123   3.183   2.828  0.2295 -0.3668  0.5327
13865TIP3    H163010   6.165   3.108   2.868  1.8390  0.0974 -0.1997
13865TIP3    H263011   6.137   3.171   2.734  1.8225  1.5113  0.4518
13866TIP3   OH263012   3.654   1.496   4.852 -0.6242 -0.6514  0.5635
13866TIP3    H163013   3.607   1.558   4.797 -0.7169  0.0214  1.3851
13866TIP3    H263014   3.591   1.425   4.867 -1.3418  0.1518  1.4951
13867TIP3   OH263015   5.253   3.604  13.832 -0.7020 -0.1492 -0.4359
13867TIP3    H163016   5.159   3.615  13.841 -1.1237 -2.0718 -1.9812
13867TIP3    H263017   5.287   3.693  13.828 -2.3109  0.5931  1.0651
13868TIP3   OH263018   2.444   5.622  11.426 -1.0175 -0.5113 -0.3295
13868TIP3    H163019   2.433   5.533  11.458 -3.1252  0.3698  1.6998
13868TIP3    H263020   2.397   5.624  11.343  0.4972 -1.6362 -1.2832
13869TIP3   OH263021   1.416   0.864  14.534 -0.5033  0.2562  1.0875
13869TIP3    H163022   1.469   0.785  14.525  1.2095  1.2194  2.2161
13869TIP3    H263023   1.326   0.835  14.517  0.2905 -1.5301 -0.4013
13870TIP3   OH263024   6.041   3.128   0.958 -0.4397 -0.2164 -0.8486
13870TIP3    H163025   6.023   3.047   0.911 -0.4181  0.4121 -1.9829
13870TIP3    H263026   6.046   3.103   1.050  0.3230 -1.6262 -1.2589
13871TIP3   OH263027   2.884   4.365   4.429  0.2496  0.3844 -0.2997
13871TIP3    H163028   2.884   4.423   4.353  2.7753  2.1986  0.9336
13871TIP3    H263029   2.830   4.411   4.494  1.0026  0.6520  0.1564
13872TIP3   OH263030   1.503   1.636  17.136 -0.5939  0.2985 -0.1598
13872TIP3    H163031   1.434   1.583  17.175 -0.1120  0.0303  0.3424
13872TIP3    H263032   1.498   1.619  17.042  0.1349 -1.3395  0.0695
13873TIP3   OH263033   3.369   3.964  11.759 -0.3435  0.7778  0.1777
13873TIP3    H163034   3.293   3.970  11.817 -0.3615  0.3254  0.2054
13873TIP3    H263035   3.366   4.045  11.707  0.0296  1.4814  1.2270
13874TIP3   OH263036   2.256   1.178   1.385  0.1159  0.0888 -0.6034
13874TIP3    H163037   2.168   1.186   1.422  0.4845 -1.0002  0.5606
13874TIP3    H263038   2.302   1.117   1.443  0.9015 -1.2619 -2.5324
13875TIP3   OH263039   1.609   5.922  11.410 -0.8408 -0.2603 -0.1070
13875TIP3    H163040   1.565   5.845  11.374 -0.6400 -0.6681  0.5188
13875TIP3    H263041   1.699   5.895  11.425 -1.6501 -1.3455  4.1386
13876TIP3   OH263042   6.467   4.289  17.059  0.7498 -0.0802 -0.1823
13876TIP3    H163043   6.467   4.365  17.000  0.2381 -1.0720 -1.5004
13876TIP3    H263044   6.410   4.316  17.132  0.7794  0.8851 -0.5013
13877TIP3   OH263045   4.116   1.246  13.297  0.4998 -0.1955  0.3153
13877TIP3    H163046   4.175   1.221  13.368  1.8563 -0.3880 -0.8276
13877TIP3    H263047   4.029   1.245  13.336  0.8812 -3.0065  1.2697
13878TIP3   OH263048   3.240   0.426  14.151  0.2902 -0.1332  0.5527
13878TIP3    H163049   3.202   0.416  14.238 -0.0853  4.1018  1.0875
13878TIP3    H263050   3.165   0.443  14.094  0.5490 -2.6774 -0.6594
13879TIP3   OH263051   0.119   1.840   5.061 -0.2713  0.6223 -0.3794
13879TIP3    H163052   0.080   1.796   5.137 -0.0986 -0.6455 -1.0080
13879TIP3    H263053   0.210   1.853   5.084 -0.4467  1.1728  0.0278
13880TIP3   OH263054   6.314   0.641  15.160 -0.0623  0.1188 -0.2013
13880TIP3    H163055   6.404   0.608  15.158 -0.2191 -0.2946 -0.8181
13880TIP3    H263056   6.286   0.630  15.250 -0.1401 -1.5384 -0.4095
13881TIP3   OH263057   6.102   6.143  13.713  0.1280  0.1588  0.1170
13881TIP3    H163058   6.115   6.135  13.618  1.0319  0.4243  0.2194
13881TIP3    H263059   6.010   6.169  13.722  0.1676  0.6027 -0.7013
13882TIP3   OH263060   0.945   1.814  14.726 -0.7570  0.6049  0.0245
13882TIP3    H163061   0.870   1.867  14.753 -0.1909  0.5738  1.7775
13882TIP3    H263062   0.994   1.799  14.806  1.6487  1.3868 -1.2133
13883TIP3   OH263063   2.813   3.339   3.582 -0.1968  0.7769 -0.3617
13883TIP3    H163064   2.816   3.243   3.576  0.0474  0.5391  2.2174
13883TIP3    H263065   2.871   3.369   3.513  1.1262 -1.0289 -0.1173
13884TIP3   OH263066   6.153   5.519  11.819 -0.0295  0.5357  0.2642
13884TIP3    H163067   6.064   5.510  11.854  0.4407  0.3421  1.4782
13884TIP3    H263068   6.167   5.614  11.814 -0.4940  0.5735 -0.4686
13885TIP3   OH263069   0.590   2.175   6.516 -0.2285  0.3876 -0.1948
13885TIP3    H163070   0.598   2.254   6.463 -0.3945  1.2148  0.9859
13885TIP3    H263071   0.499   2.175   6.546 -0.6831 -1.0910 -1.4209
13886TIP3   OH263072   3.707   3.092  14.851 -0.3906  0.1841 -0.0452
13886TIP3    H163073   3.744   3.114  14.766  0.6985  2.0266  0.8458
13886TIP3    H263074   3.774   3.119  14.914 -1.4484 -0.5076  1.4364
13887TIP3   OH263075   1.884   5.404  11.837  0.2469  0.4964 -0.0166
13887TIP3    H163076   1.932   5.352  11.901  1.1217  1.0095 -0.2466
13887TIP3    H263077   1.945   5.472  11.809 -0.8567  1.6438  0.2551
13888TIP3   OH263078   2.050   0.815  11.977 -0.4725  0.2886  0.4046
13888TIP3    H163079   2.106   0.849  12.046 -0.8860 -1.9681  1.9801
13888TIP3    H263080   2.070   0.721  11.974 -1.4761  0.0835 -1.5969
13889TIP3   OH263081   2.920   0.463  11.843 -0.0209  0.2175 -0.7908
13889TIP3    H163082   2.837   0.506  11.862 -0.1135  0.1503 -1.0289
13889TIP3    H263083   2.971   0.529  11.795  0.1178  0.3061 -0.5221
13890TIP3   OH263084   4.813   5.775   4.382  0.1367  0.9693 -0.1169
13890TIP3    H163085   4.879   5.707   4.365 -1.1988 -0.2977 -0.4507
13890TIP3    H263086   4.761   5.778   4.302 -1.6318  0.2529  0.9444
13891TIP3   OH263087   3.127   4.650   5.640  0.4139  0.1735 -0.1975
13891TIP3    H163088   3.161   4.623   5.554 -0.5050  0.0395 -0.5391
13891TIP3    H263089   3.134   4.571   5.694  0.5562  0.1164 -0.2985
13892TIP3   OH263090   3.991   2.445   6.444  0.0060 -0.1499 -0.1933
13892TIP3    H163091   3.999   2.481   6.356  0.0406  1.5871  0.4970
13892TIP3    H263092   4.009   2.518   6.503 -2.0467 -0.7386  1.3061
13893TIP3   OH263093   2.173   6.333  12.436  0.1202 -0.1396  0.1120
13893TIP3    H163094   2.170   6.249  12.480  1.7343 -0.2911  0.0027
13893TIP3    H263095   2.138   6.396  12.499  1.5340 -0.4855  1.2775
13894TIP3   OH263096   2.920   6.433   1.466 -0.0338 -0.4670 -0.8163
13894TIP3    H163097   2.975   6.472   1.534 -0.4319  1.9343 -1.7590
13894TIP3    H263098   2.912   6.341   1.491  1.8877 -0.2169  0.9799
13895TIP3   OH263099   0.272   0.733  16.201  0.3563  0.1285 -0.0269
13895TIP3    H163100   0.230   0.784  16.270  0.3634 -0.3502  0.3421
13895TIP3    H263101   0.273   0.790  16.125  0.8645  0.8780  0.5321
13896TIP3   OH263102   0.620   6.693  16.531 -0.0193 -0.0136 -0.4399
13896TIP3    H163103   0.641   6.630  16.462 -1.7704  0.3441 -1.3572
13896TIP3    H263104   0.527   6.680  16.549  0.0844  0.8399  0.9032
13897TIP3   OH263105   5.989   5.686  14.053 -0.1571  0.0835 -0.0648
13897TIP3    H163106   6.075   5.653  14.026 -0.5764 -1.4693  0.4158
13897TIP3    H263107   6.004   5.721  14.141  0.0150 -0.0244 -0.0510
13898TIP3   OH263108   3.643   2.787  12.292  0.0443  0.4126  0.4155
13898TIP3    H163109   3.593   2.864  12.319  0.3578  1.2286 -1.1729
13898TIP3    H263110   3.721   2.824  12.248  0.3222 -0.8032 -0.1559
13899TIP3   OH263111   0.460   2.839   6.575  0.1010 -0.1098 -0.1596
13899TIP3    H163112   0.519   2.903   6.535 -1.5777  0.6578 -1.5472
13899TIP3    H263113   0.412   2.889   6.641 -0.1897 -0.3005 -0.2262
13900TIP3   OH263114   5.070   2.090  16.482 -0.1869 -0.4119 -0.7242
13900TIP3    H163115   5.089   2.009  16.434 -1.4239 -0.0859 -1.8217
13900TIP3    H263116   5.061   2.157  16.413 -0.6415  0.3602  0.0682
13901TIP3   OH263117   3.601   5.898   2.620 -0.8445  0.2606  0.2249
13901TIP3    H163118   3.532   5.832   2.620  0.6329 -1.4055 -1.7405
13901TIP3    H263119   3.669   5.863   2.677  0.1905 -0.2447 -1.2773
13902TIP3   OH263120   6.374   1.247   2.696 -0.1623 -0.4770  0.1901
13902TIP3    H163121   6.319   1.209   2.628 -1.0258  0.6867  0.2028
13902TIP3    H263122   6.312   1.291   2.755  0.6688 -0.3840  1.0179
13903TIP3   OH263123   5.088   0.162  16.058  0.5095 -0.5507 -0.6301
13903TIP3    H163124   5.092   0.256  16.039  0.6023 -0.6010 -0.8626
13903TIP3    H263125   5.107   0.120  15.974  1.6710 -0.7790 -0.2643
13904TIP3   OH263126   3.316   5.155  15.754 -0.1350  0.5060 -0.4240
13904TIP3    H163127   3.367   5.225  15.713  0.0486  0.1575 -0.8025
13904TIP3    H263128   3.381   5.103  15.801 -0.5854  2.2147  2.3419
13905TIP3   OH263129   6.661   3.791   2.791  0.8642 -0.0487  0.2590
13905TIP3    H163130   6.728   3.757   2.850  1.3987 -1.0529 -0.9013
13905TIP3    H263131   6.653   3.725   2.722 -0.3655  0.6888 -0.3437
13906TIP3   OH263132   2.401   1.860   3.898 -0.1533  0.0543 -0.0856
13906TIP3    H163133   2.437   1.841   3.985  1.7036  0.1010 -0.7891
13906TIP3    H263134   2.306   1.852   3.909 -0.1093  1.7043  2.3292
13907TIP3   OH263135   5.780   1.324   4.933 -0.1469 -0.0471 -0.0108
13907TIP3    H163136   5.739   1.410   4.921 -0.6442 -0.1627  0.8001
13907TIP3    H263137   5.777   1.309   5.027  0.9220 -0.4842 -0.0397
13908TIP3   OH263138   2.313   4.797   5.384  0.0764 -0.0636  0.5818
13908TIP3    H163139   2.244   4.790   5.318  0.5953 -0.2866  0.0606
13908TIP3    H263140   2.270   4.840   5.458 -0.4163  0.5452 -0.0364
13909TIP3   OH263141   4.096   1.928  15.855 -0.0458 -0.0013  0.0645
13909TIP3    H163142   4.024   1.978  15.817  0.4316  0.7946  0.1928
13909TIP3    H263143   4.085   1.839  15.820 -0.9236  0.1774 -0.1272
13910TIP3   OH263144   3.206   3.470   5.693 -0.3629  0.1431  0.2572
13910TIP3    H163145   3.110   3.467   5.688 -0.2967 -1.4907 -0.7913
13910TIP3    H263146   3.233   3.378   5.695  1.1240  0.5346  2.8822
13911TIP3   OH263147   6.448   5.981   2.109  0.2128  0.3665 -0.2512
13911TIP3    H163148   6.490   5.954   2.190  0.8527  0.6454 -0.4874
13911TIP3    H263149   6.368   5.928   2.105  0.6958 -0.4105  0.0424
13912TIP3   OH263150   5.180   6.768   3.192 -0.6954  0.4154 -0.0666
13912TIP3    H163151   5.246   6.816   3.242 -0.7054 -0.4540  0.8238
13912TIP3    H263152   5.146   6.832   3.130  1.0864  0.8327 -0.6677
13913TIP3   OH263153   6.145   6.224  17.024 -0.2085  0.1844  0.2395
13913TIP3    H163154   6.166   6.292  17.087  0.2095 -0.3975  0.7502
13913TIP3    H263155   6.050   6.213  17.029 -0.9407  3.4076 -2.6615
13914TIP3   OH263156   5.772   0.640   6.092 -0.1067 -0.2345  0.4386
13914TIP3    H163157   5.820   0.647   6.009 -0.7891  0.4187  0.0975
13914TIP3    H263158   5.810   0.562   6.134  1.0321  0.0850  0.0376
13915TIP3   OH263159   0.793   0.963   3.369  0.3444  0.2344 -0.7863
13915TIP3    H163160   0.846   1.029   3.324  1.3987  0.2465  0.4122
13915TIP3    H263161   0.738   1.012   3.429  1.4528  0.0384  0.4344
13916TIP3   OH263162   3.576   5.476   2.941  0.6163  0.0242 -0.1553
13916TIP3    H163163   3.603   5.524   3.019  0.4227 -0.6055  0.3090
13916TIP3    H263164   3.485   5.451   2.957  0.7932 -0.7280 -0.2558
13917TIP3   OH263165   1.469   5.163  14.858 -0.5650  0.8403 -0.3069
13917TIP3    H163166   1.397   5.181  14.918  1.2721 -0.2530  2.4422
13917TIP3    H263167   1.449   5.076  14.823 -1.5316  1.3797 -1.1373
13918TIP3   OH263168   1.816   4.420  15.693  0.0272 -0.1755 -0.2147
13918TIP3    H163169   1.877   4.347  15.706 -0.6363 -0.7141 -0.0215
13918TIP3    H263170   1.747   4.383  15.637 -2.2824 -0.9095  2.8454
13919TIP3   OH263171   3.258   4.615  13.428 -0.0730  0.2145 -0.2891
13919TIP3    H163172   3.218   4.560  13.495  1.4296 -1.5552 -0.7546
13919TIP3    H263173   3.312   4.677  13.477 -0.8334  0.5156  0.1916
13920TIP3   OH263174   4.834   4.410  13.741  0.2722 -0.3357 -0.1503
13920TIP3    H163175   4.744   4.397  13.769 -0.3151  1.2736 -1.1127
13920TIP3    H263176   4.841   4.363  13.658  0.2737 -0.3719 -0.1290
13921TIP3   OH263177   2.038   2.338   4.329 -0.4477  0.4884  0.1442
13921TIP3    H163178   2.105   2.270   4.335 -0.3919  0.5816  0.5933
13921TIP3    H263179   1.956   2.293   4.351 -0.5622  0.3396 -0.5536
13922TIP3   OH263180   5.069   5.750   3.631 -0.0571  0.0924  0.1961
13922TIP3    H163181   5.007   5.821   3.611 -0.9885 -0.2033  1.8693
13922TIP3    H263182   5.013   5.675   3.653  0.8928 -0.2254  1.6218
13923TIP3   OH263183   5.825   3.160  15.320  0.3328  0.0932  0.0717
13923TIP3    H163184   5.907   3.193  15.357 -0.1779  0.8066  0.5960
13923TIP3    H263185   5.852   3.113  15.241  1.0064  3.2783 -1.7977
13924TIP3   OH263186   3.603   5.579  15.971  0.3616 -0.4812  0.3850
13924TIP3    H163187   3.667   5.601  15.903 -0.5468 -1.2527 -0.7609
13924TIP3    H263188   3.555   5.504  15.935 -2.4997  1.2268  0.2996
13925TIP3   OH263189   3.750   5.667  16.387 -0.5640  0.0953 -0.5527
13925TIP3    H163190   3.748   5.747  16.334 -0.8195 -0.4363 -1.3686
13925TIP3    H263191   3.757   5.698  16.477 -0.2561  1.0300 -0.8837
13926TIP3   OH263192   5.159   2.498  15.808  0.3576 -0.2406  0.8178
13926TIP3    H163193   5.239   2.459  15.774  0.0944  1.0278 -1.4669
13926TIP3    H263194   5.189   2.565  15.869  1.4708  2.9855 -2.8279
13927TIP3   OH263195   5.219   1.810  14.604 -0.5216  0.0019  0.7667
13927TIP3    H163196   5.163   1.737  14.579 -1.8684  1.2220  0.0925
13927TIP3    H263197   5.299   1.797  14.552 -1.0491 -0.5745  0.0664
13928TIP3   OH263198   0.602   3.432   2.985  0.2298 -0.0868 -0.2000
13928TIP3    H163199   0.618   3.494   2.914 -3.1266  3.4697  1.7440
13928TIP3    H263200   0.545   3.365   2.947  2.1555 -0.8973 -1.8221
13929TIP3   OH263201   4.850   6.233   5.749  0.0682  0.1623  0.0409
13929TIP3    H163202   4.939   6.256   5.720  0.3526 -1.5293 -0.5544
13929TIP3    H263203   4.793   6.283   5.691  0.6419 -0.1493 -0.8185
13930TIP3   OH263204   0.179   2.524  11.921 -0.0804  0.1765 -0.5984
13930TIP3    H163205   0.169   2.618  11.906  1.0158  0.2659 -0.8260
13930TIP3    H263206   0.203   2.488  11.836 -0.1782 -0.2673 -0.4433
13931TIP3   OH263207   5.885   6.498   4.847  0.0061 -0.1751  0.1676
13931TIP3    H163208   5.972   6.478   4.882 -0.0185  0.7104  0.7647
13931TIP3    H263209   5.824   6.454   4.906  0.0443 -1.1766 -0.5120
13932TIP3   OH263210   2.384   6.098   5.726 -0.0218  0.0390  0.2943
13932TIP3    H163211   2.394   6.045   5.805 -0.5521 -1.5532 -0.6730
13932TIP3    H263212   2.473   6.118   5.699  0.1686  0.9523  1.4880
13933TIP3   OH263213   5.155   3.714  15.679 -0.3804 -0.4735  0.6220
13933TIP3    H163214   5.140   3.691  15.770 -0.0803 -1.4873  0.4272
13933TIP3    H263215   5.243   3.681  15.660 -0.4628 -0.3250 -0.0528
13934TIP3   OH263216   0.531   5.777  12.883  0.3236 -0.1088 -0.5383
13934TIP3    H163217   0.549   5.870  12.894 -1.3570  0.0695  1.4060
13934TIP3    H263218   0.603   5.733  12.929 -0.2850  0.3474  0.9040
13935TIP3   OH263219   2.347   6.238  12.960 -0.5465  0.4638  0.3939
13935TIP3    H163220   2.339   6.328  12.990  0.1980  0.5969  0.1932
13935TIP3    H263221   2.257   6.204  12.964 -0.6858  0.9011  1.4257
13936TIP3   OH263222   3.016   3.532  12.201  0.1756  0.0026 -0.6906
13936TIP3    H163223   3.016   3.583  12.282 -0.7890 -1.3141  0.1899
13936TIP3    H263224   2.924   3.513  12.185  0.5420 -2.1874 -0.4726
13937TIP3   OH263225   2.328   2.363   5.703 -0.2210  0.6414 -0.3927
13937TIP3    H163226   2.342   2.458   5.710 -1.7615  0.8025  4.1577
13937TIP3    H263227   2.416   2.326   5.702  0.5372  2.1507  1.5066
13938TIP3   OH263228   0.788   5.562   1.110  0.1116 -0.1703 -0.1249
13938TIP3    H163229   0.849   5.575   1.037  0.1948  1.5857  0.2200
13938TIP3    H263230   0.709   5.610   1.084 -0.4082 -0.7775  0.3033
13939TIP3   OH263231   3.003   1.047   2.080  0.0056  0.6168  0.0523
13939TIP3    H163232   3.089   1.077   2.109 -0.0189  0.8461 -0.1184
13939TIP3    H263233   2.972   0.993   2.153 -0.2002  1.4724  0.6096
13940TIP3   OH263234   0.815   0.364   1.252 -0.0660  0.0841 -0.0539
13940TIP3    H163235   0.728   0.403   1.243  0.1870  1.2095  1.7782
13940TIP3    H263236   0.812   0.319   1.337  0.8184 -0.7545 -0.4522
13941TIP3   OH263237   0.107   4.553  17.241  0.2428  0.8991 -0.3989
13941TIP3    H163238   0.094   4.549  17.146 -1.2917  1.1236 -0.2113
13941TIP3    H263239   0.161   4.477  17.261 -0.5338  0.0921 -1.2832
13942TIP3   OH263240   2.657   0.887  12.065 -0.4396 -0.0786 -0.0875
13942TIP3    H163241   2.619   0.953  12.122 -1.2212 -0.4835 -0.1399
13942TIP3    H263242   2.612   0.806  12.087  0.8304 -0.7041  0.2910
13943TIP3   OH263243   1.350   3.849  15.007  0.5315  0.3898  0.3674
13943TIP3    H163244   1.432   3.899  15.007  1.3720 -0.9471  1.1550
13943TIP3    H263245   1.376   3.760  14.984 -0.6494 -0.1389  1.0112
13944TIP3   OH263246   0.933   2.455   4.739  0.5616 -0.1425  1.4197
13944TIP3    H163247   0.985   2.532   4.714  1.2475 -0.5280  1.6136
13944TIP3    H263248   0.876   2.439   4.664  1.7616 -0.5686  0.5499
13945TIP3   OH263249   3.125   2.805  14.760  0.2950  0.0219  0.4083
13945TIP3    H163250   3.059   2.811  14.830  1.3175 -0.7110  1.4782
13945TIP3    H263251   3.208   2.801  14.807  1.1284  1.1354 -0.9179
13946TIP3   OH263252   4.167   3.576  16.789  0.7027  0.1733  0.2324
13946TIP3    H163253   4.125   3.661  16.778  0.2058  0.1146  1.4967
13946TIP3    H263254   4.104   3.526  16.842  0.7560 -1.1526 -0.9126
13947TIP3   OH263255   6.631   1.932  11.832  0.2751 -0.4099  0.3940
13947TIP3    H163256   6.687   1.985  11.775  0.2032  0.7080  1.3350
13947TIP3    H263257   6.593   1.867  11.773  1.4441 -0.2980 -0.5336
13948TIP3   OH263258   4.035   1.276  15.247  0.8187  0.3145  0.2300
13948TIP3    H163259   4.090   1.347  15.281  1.2304  0.4664 -0.7230
13948TIP3    H263260   4.075   1.252  15.164  0.1235 -0.3906  0.0831
13949TIP3   OH263261   3.815   4.891  16.299  0.0691  0.2790  0.4065
13949TIP3    H163262   3.867   4.887  16.379  1.2065  1.7270 -0.2209
13949TIP3    H263263   3.810   4.984  16.278 -0.3667 -0.0627 -1.1079
13950TIP3   OH263264   1.514   2.345   3.248 -0.6188 -0.7474  0.1080
13950TIP3    H163265   1.460   2.367   3.173  0.6367 -1.2449 -0.9775
13950TIP3    H263266   1.598   2.387   3.231 -0.6714  0.1316  1.8224
13951TIP3   OH263267   4.773   3.045   3.379  0.0414  0.2948  0.6576
13951TIP3    H163268   4.750   2.953   3.381 -0.8288  0.3212 -2.4340
13951TIP3    H263269   4.694   3.089   3.346  1.1793  1.8188 -0.1770
13952TIP3   OH263270   1.297   5.783  12.983  0.0581  0.0334 -0.4574
13952TIP3    H163271   1.324   5.696  13.012 -2.1246 -2.2470 -4.4753
13952TIP3    H263272   1.232   5.810  13.048  1.0523 -1.1101  1.0896
13953TIP3   OH263273   5.221   1.290   2.644  0.3348 -0.0973  0.2875
13953TIP3    H163274   5.239   1.198   2.624  2.3142  0.7133 -2.1740
13953TIP3    H263275   5.131   1.304   2.613 -0.2359 -1.3186  1.3007
13954TIP3   OH263276   3.146   4.207   2.958 -0.1252  0.4012  0.0555
13954TIP3    H163277   3.052   4.225   2.955 -0.3940 -0.2905  2.2186
13954TIP3    H263278   3.162   4.184   3.049  1.8095 -1.3589 -0.6703
13955TIP3   OH263279   5.826   5.142  12.102  0.2013 -0.1295  0.1574
13955TIP3    H163280   5.754   5.082  12.085 -0.5646  1.2485 -1.8253
13955TIP3    H263281   5.901   5.103  12.057 -0.6322  0.9832 -2.4049
13956TIP3   OH263282   1.604   0.216   1.393  0.1016 -0.6927 -0.0133
13956TIP3    H163283   1.593   0.140   1.337 -1.1670  1.5814 -3.1343
13956TIP3    H263284   1.685   0.257   1.363 -0.9175  0.9033 -0.7227
13957TIP3   OH263285   1.813   5.117   1.216  0.3973  0.1577  0.4098
13957TIP3    H163286   1.727   5.113   1.257  0.8587 -0.2270  1.3622
13957TIP3    H263287   1.845   5.205   1.235  0.0163  0.4852 -0.3918
13958TIP3   OH263288   0.231   5.346  13.702  0.4075 -0.2952  0.2428
13958TIP3    H163289   0.207   5.345  13.609  0.9147  0.0026  0.1061
13958TIP3    H263290   0.256   5.255  13.721  0.3722 -0.3418  0.0732
13959TIP3   OH263291   4.278   1.433   4.494  0.4601 -0.7610  0.5360
13959TIP3    H163292   4.268   1.525   4.469 -0.6885 -0.6805  1.1898
13959TIP3    H263293   4.238   1.385   4.422  0.0723 -0.6874  0.6986
13960TIP3   OH263294   4.704   1.900  16.987 -1.0795 -0.2363  1.0229
13960TIP3    H163295   4.642   1.892  17.059 -0.3761 -0.9499  1.5753
13960TIP3    H263296   4.650   1.893  16.908 -1.6852 -0.9908  1.4906
13961TIP3   OH263297   2.794   0.550  14.400 -0.1698  1.1480  0.5376
13961TIP3    H163298   2.709   0.594  14.402 -0.0776  1.7567 -2.9410
13961TIP3    H263299   2.778   0.470  14.351  0.7081 -0.3717  2.5833
13962TIP3   OH263300   1.082   6.014  15.210  0.1090 -0.2564 -0.0322
13962TIP3    H163301   1.062   6.106  15.193  1.7675  0.5056  1.7800
13962TIP3    H263302   1.166   5.999  15.167  0.0977 -0.7806  0.1167
13963TIP3   OH263303   4.217   2.349   5.941  0.2912 -0.3363  0.3649
13963TIP3    H163304   4.246   2.327   6.029 -0.6859 -1.5854  0.4060
13963TIP3    H263305   4.158   2.278   5.917 -2.6868  1.9648  0.2593
13964TIP3   OH263306   6.278   6.244   2.600 -0.0371 -0.0063  0.8940
13964TIP3    H163307   6.265   6.150   2.589  3.7502 -0.5707 -0.2076
13964TIP3    H263308   6.327   6.252   2.682  0.2675  0.9454  0.6400
13965TIP3   OH263309   0.143   5.031  15.601  0.4058  0.0647  0.0621
13965TIP3    H163310   0.087   4.967  15.557  0.0216  0.5185 -0.1097
13965TIP3    H263311   0.109   5.035  15.690 -0.2686  0.8304 -0.2180
13966TIP3   OH263312   6.514   1.300   0.697 -0.1225  0.1564 -0.2545
13966TIP3    H163313   6.530   1.384   0.740 -0.8096  0.2914 -0.2587
13966TIP3    H263314   6.434   1.313   0.646  0.0711 -0.3338 -0.6982
13967TIP3   OH263315   1.906   1.955   6.000 -0.1473  0.0373 -0.0115
13967TIP3    H163316   1.909   1.977   6.093 -0.4548  3.7557 -0.7329
13967TIP3    H263317   1.976   1.890   5.989  2.0250  1.7439  2.3658
13968TIP3   OH263318   2.356   3.923   1.250  0.2556  0.6202 -0.4719
13968TIP3    H163319   2.448   3.913   1.272  0.1317 -0.3302 -0.3417
13968TIP3    H263320   2.311   3.923   1.334 -0.1423 -2.1955 -0.5963
13969TIP3   OH263321   4.922   2.094   4.415  0.7378 -0.4787  0.3526
13969TIP3    H163322   4.889   2.046   4.339  0.6497  0.1606 -0.0156
13969TIP3    H263323   4.987   2.154   4.379 -0.1027  0.6120  0.6265
13970TIP3   OH263324   4.381   5.252   4.761 -0.1549 -0.1266  0.7624
13970TIP3    H163325   4.434   5.321   4.722  0.3455 -0.3320  1.0630
13970TIP3    H263326   4.427   5.230   4.842 -1.3004  0.4582  1.5954
13971TIP3   OH263327   5.909   3.863   1.237  0.1286 -0.1302 -0.0590
13971TIP3    H163328   5.874   3.782   1.200 -0.4640  0.1111 -0.0252
13971TIP3    H263329   5.843   3.929   1.219  1.7012  0.9283 -2.3509
13972TIP3   OH263330   0.406   3.269   2.908 -0.4008 -0.2806 -0.0446
13972TIP3    H163331   0.444   3.257   2.821 -0.8206 -0.9173 -0.1425
13972TIP3    H263332   0.384   3.181   2.937  0.9964 -0.2314  1.2886
13973TIP3   OH263333   4.130   4.476  14.990 -0.7654  0.3236 -0.3421
13973TIP3    H163334   4.202   4.529  14.958 -0.1450 -1.3366 -1.8790
13973TIP3    H263335   4.064   4.539  15.019  0.3702  1.8849 -1.0270
13974TIP3   OH263336   5.687   4.055   4.356  0.2524 -1.2694  0.9901
13974TIP3    H163337   5.643   4.101   4.284 -1.2586 -1.3953  1.7854
13974TIP3    H263338   5.622   4.054   4.426  1.1421 -2.4962  1.8302
13975TIP3   OH263339   2.745   1.811   2.686 -0.2835 -0.2381 -0.3671
13975TIP3    H163340   2.840   1.819   2.684 -0.3368  1.2490  1.1329
13975TIP3    H263341   2.729   1.716   2.684  1.1931 -0.5025 -0.9484
13976TIP3   OH263342   0.715   0.501  15.975  0.2463 -0.6162  0.1298
13976TIP3    H163343   0.667   0.580  15.949  1.4460 -0.0987 -0.5875
13976TIP3    H263344   0.687   0.485  16.065 -1.9424 -0.8653 -0.5236
13977TIP3   OH263345   4.824   0.927  12.099  0.0325 -0.0878  0.3345
13977TIP3    H163346   4.884   0.986  12.145  0.6081 -0.5154  0.1375
13977TIP3    H263347   4.761   0.900  12.166  0.0921  0.3129  0.5581
13978TIP3   OH263348   3.973   2.580   1.239 -0.9614  0.0447  0.0271
13978TIP3    H163349   4.044   2.640   1.262  0.8572 -1.9018 -0.1569
13978TIP3    H263350   4.016   2.495   1.227 -3.1270 -0.9442 -1.5305
13979TIP3   OH263351   3.995   0.756   0.254 -0.4034 -0.2126  0.6082
13979TIP3    H163352   3.939   0.724   0.183 -0.7925  0.3745  0.6354
13979TIP3    H263353   3.939   0.752   0.332 -1.1998  2.3814  0.2871
13980TIP3   OH263354   0.364   2.385   5.443  0.0414  0.2864 -0.7021
13980TIP3    H163355   0.325   2.352   5.524 -1.1366 -0.8469 -1.7043
13980TIP3    H263356   0.355   2.480   5.450  1.5997  0.3701  1.2875
13981TIP3   OH263357   2.457   0.890   0.133  0.2485  0.4167 -0.7303
13981TIP3    H163358   2.417   0.887   0.046  0.1738 -0.6652 -0.6700
13981TIP3    H263359   2.462   0.984   0.154 -2.5654  0.6190 -0.6051
13982TIP3   OH263360   0.572   2.739   1.686 -0.4462 -0.6375 -0.6049
13982TIP3    H163361   0.642   2.683   1.720  1.2412  1.2925 -0.7173
13982TIP3    H263362   0.513   2.750   1.761 -1.0764 -2.8589 -0.7094
13983TIP3   OH263363   4.238   0.990  12.682 -0.1482 -0.4734  0.3524
13983TIP3    H163364   4.176   0.971  12.611 -0.1183  1.7551 -0.3822
13983TIP3    H263365   4.209   0.936  12.755 -3.0635  0.5393  0.0765
13984TIP3   OH263366   1.616   5.324  14.172 -0.1585 -0.6718 -0.3008
13984TIP3    H163367   1.681   5.311  14.241 -0.0446 -1.3020 -0.5230
13984TIP3    H263368   1.535   5.346  14.219 -0.2347 -1.7089  0.0687
13985TIP3   OH263369   5.076   2.058  13.338  0.0478 -0.0649  0.8665
13985TIP3    H163370   5.135   2.016  13.276 -1.4019  0.1206 -0.7110
13985TIP3    H263371   5.060   1.992  13.405  1.0193 -0.5584  0.6296
13986TIP3   OH263372   1.528   1.726  11.923 -0.4056 -0.7235  0.3077
13986TIP3    H163373   1.573   1.783  11.861 -1.2130  0.4776  0.7921
13986TIP3    H263374   1.576   1.643  11.919 -0.0093 -0.4419 -1.3754
13987TIP3   OH263375   1.428   4.291   4.710 -0.1681  0.1272 -0.0959
13987TIP3    H163376   1.477   4.216   4.743 -0.5006 -0.8454 -1.6662
13987TIP3    H263377   1.492   4.361   4.701 -0.0131  0.3425  2.1896
13988TIP3   OH263378   5.390   5.685  14.065  0.0522  0.2040  0.4042
13988TIP3    H163379   5.457   5.740  14.106 -0.6477  0.5242  1.1458
13988TIP3    H263380   5.316   5.690  14.124 -0.2136 -1.1291  0.2058
13989TIP3   OH263381   2.361   5.168   1.352 -0.3283  0.3330  0.2805
13989TIP3    H163382   2.403   5.090   1.316 -0.0314 -0.3754  2.0542
13989TIP3    H263383   2.433   5.228   1.368 -0.4724  0.6891 -0.3651
13990TIP3   OH263384   4.796   4.255   2.630  0.2434  0.0482  0.5218
13990TIP3    H163385   4.718   4.309   2.618 -0.9425 -1.7124  0.0027
13990TIP3    H263386   4.784   4.214   2.716  0.7975  0.0530  0.6078
13991TIP3   OH263387   3.903   3.532  11.430 -0.1178  0.1593  0.3694
13991TIP3    H163388   3.986   3.577  11.414  0.0553  0.8075  2.7886
13991TIP3    H263389   3.897   3.468  11.359  1.7248  1.0770 -0.6952
13992TIP3   OH263390   1.677   5.598   4.522 -0.1949  0.8543  0.0650
13992TIP3    H163391   1.707   5.680   4.483  0.6877  0.2333 -0.6144
13992TIP3    H263392   1.591   5.583   4.484  0.3693  0.6027 -1.1586
13993TIP3   OH263393   6.629   6.290  15.380  0.4351  0.2218 -0.2523
13993TIP3    H163394   6.708   6.310  15.430  0.6376 -1.0734 -0.0251
13993TIP3    H263395   6.650   6.211  15.331  0.6507  2.0479 -3.3744
13994TIP3   OH263396   2.290   0.475   0.904 -0.0267  0.4767  0.2660
13994TIP3    H163397   2.364   0.439   0.951 -0.7275  2.5666  3.3235
13994TIP3    H263398   2.216   0.418   0.927  0.2773 -0.5896 -1.3343
13995TIP3   OH263399   5.397   6.731   4.569  0.0754  0.3780 -0.0017
13995TIP3    H163400   5.401   6.655   4.627  0.8460  0.3568 -0.0809
13995TIP3    H263401   5.480   6.777   4.583  0.1358  0.5472 -0.8513
13996TIP3   OH263402   1.718   2.928  14.997 -0.2285 -0.3274  0.7154
13996TIP3    H163403   1.715   2.833  15.013 -0.5787 -0.0212  2.8676
13996TIP3    H263404   1.764   2.963  15.073 -0.4355  1.2609  0.1375
13997TIP3   OH263405   2.567   0.744   6.392  0.0756 -0.0918  0.0348
13997TIP3    H163406   2.527   0.830   6.404  2.0976  0.8768  0.4487
13997TIP3    H263407   2.497   0.682   6.407 -1.1964  1.4693  0.8510
13998TIP3   OH263408   3.059   0.796  10.666 -0.9211  0.0854 -0.8790
13998TIP3    H163409   3.012   0.852  10.728 -0.6495  0.2019 -0.7784
13998TIP3    H263410   3.137   0.768  10.714 -1.2634 -0.7189 -0.7793
13999TIP3   OH263411   5.535   0.423   1.669  0.4918 -0.0475 -0.0567
13999TIP3    H163412   5.592   0.467   1.733  0.4701 -0.7691  0.4701
13999TIP3    H263413   5.480   0.365   1.722  0.4050 -0.5836 -0.7295
14000TIP3   OH263414   6.074   2.954  17.319  0.1562 -0.3411  0.3378
14000TIP3    H163415   5.979   2.964  17.326  0.0516 -1.5343  0.8559
14000TIP3    H263416   6.099   3.010  17.245 -1.4143 -2.6430 -2.1115
14001TIP3   OH263417   3.768   3.245  13.484  0.1304  0.3764 -0.3743
14001TIP3    H163418   3.830   3.245  13.557 -0.6053 -0.7910  0.2988
14001TIP3    H263419   3.695   3.192  13.516 -0.3290  0.0709 -1.8690
14002TIP3   OH263420   1.109   1.051   0.175 -0.1263  0.4023  0.0272
14002TIP3    H163421   1.038   1.101   0.216 -0.2288 -0.5232  1.0462
14002TIP3    H263422   1.186   1.107   0.184 -0.5109  0.9756 -0.1535
14003TIP3   OH263423   2.435   0.272   2.354 -0.2221  0.6278  0.0735
14003TIP3    H163424   2.421   0.295   2.446  1.7580  2.1634  0.0547
14003TIP3    H263425   2.397   0.345   2.306 -2.4119 -0.7662 -0.4626
14004TIP3   OH263426   2.354   2.190  16.909  0.3754 -0.5065  0.3229
14004TIP3    H163427   2.410   2.179  16.986 -1.2584 -0.4127  1.5665
14004TIP3    H263428   2.303   2.109  16.904  0.1708 -0.3465 -0.4292
14005TIP3   OH263429   5.539   4.762   4.534  0.0802  0.3910 -0.5386
14005TIP3    H163430   5.579   4.696   4.591  0.0433 -0.1257 -1.1000
14005TIP3    H263431   5.459   4.720   4.502 -0.7864  1.3061  0.3515
14006TIP3   OH263432   3.916   3.638  17.068 -0.1239 -0.0596 -0.1533
14006TIP3    H163433   3.823   3.651  17.050  0.1417  0.2895 -1.3130
14006TIP3    H263434   3.936   3.701  17.137 -0.6200  0.2462 -0.2874
14007TIP3   OH263435   5.963   5.607  12.599  0.0233  0.2451 -0.2138
14007TIP3    H163436   5.923   5.653  12.672 -0.7758 -1.1979  0.2926
14007TIP3    H263437   5.987   5.676  12.537  1.1303  1.5524  1.5674
14008TIP3   OH263438   2.334   3.446   5.098 -0.9445  0.1846 -0.0269
14008TIP3    H163439   2.242   3.471   5.092 -0.6752  1.3653  0.4437
14008TIP3    H263440   2.345   3.411   5.186 -1.0470 -0.4676 -0.2651
14009TIP3   OH263441   0.388   4.667  11.866 -0.6741 -0.9768  0.0968
14009TIP3    H163442   0.413   4.582  11.831 -0.7998 -0.8490 -0.3112
14009TIP3    H263443   0.298   4.656  11.897 -1.1331 -0.6686 -1.0906
14010TIP3   OH263444   5.706   5.594   0.178  0.0595  0.1534  0.0036
14010TIP3    H163445   5.779   5.655   0.176  1.4536 -1.4265  0.4105
14010TIP3    H263446   5.633   5.644   0.215  1.2271  1.4749  0.5916
14011TIP3   OH263447   1.565   2.597   4.679  0.1965 -0.3060  0.3519
14011TIP3    H163448   1.550   2.556   4.764 -0.9731 -0.5394  0.0498
14011TIP3    H263449   1.655   2.574   4.658  0.2291 -0.9737  1.1419
14012TIP3   OH263450   4.013   4.803  11.285  0.5499 -0.1580  0.2165
14012TIP3    H163451   3.986   4.843  11.368 -1.8166 -1.0459 -0.0467
14012TIP3    H263452   3.932   4.793  11.236  1.4264 -2.5526 -0.9200
14013TIP3   OH263453   4.548   5.547  17.040 -0.1225  0.2141 -0.1137
14013TIP3    H163454   4.639   5.565  17.064 -0.4155  1.2602  0.2843
14013TIP3    H263455   4.530   5.460  17.075  0.2085  0.7008  1.3072
14014TIP3   OH263456   0.325   4.623  15.757  0.3854  0.1034  0.8130
14014TIP3    H163457   0.247   4.623  15.701  2.2245  1.2269 -1.9398
14014TIP3    H263458   0.335   4.532  15.783 -0.5497 -0.4930 -0.7483
14015TIP3   OH263459   6.230   4.017   6.186  0.4261  0.2773  0.4048
14015TIP3    H163460   6.220   4.045   6.277  0.2164  1.4348  0.0421
14015TIP3    H263461   6.324   4.005   6.174  0.2887 -4.7735  2.1311
14016TIP3   OH263462   1.647   0.678   4.397 -0.2648 -0.1404  0.3010
14016TIP3    H163463   1.721   0.617   4.392 -0.7384 -0.8117  1.2150
14016TIP3    H263464   1.618   0.687   4.306 -1.0879 -2.4471  0.2571
14017TIP3   OH263465   3.945   3.561   2.201  0.4957 -0.1564  0.0064
14017TIP3    H163466   4.017   3.503   2.226  1.9816  0.5742 -2.2457
14017TIP3    H263467   3.940   3.552   2.105 -0.2649  2.2405 -0.2354
14018TIP3   OH263468   3.627   4.517  15.395 -1.0255  0.5437 -0.1210
14018TIP3    H163469   3.561   4.488  15.332  1.2133 -3.9126 -0.7877
14018TIP3    H263470   3.635   4.444  15.457  2.5021  1.2759  0.4922
14019TIP3   OH263471   6.236   1.014  13.644 -0.3090  0.1025 -0.1724
14019TIP3    H163472   6.325   0.979  13.653 -0.1374  1.0958  3.8895
14019TIP3    H263473   6.180   0.950  13.688 -1.2552  0.7322 -0.4253
14020TIP3   OH263474   5.118   0.121  11.912 -0.1036 -0.2459  0.1062
14020TIP3    H163475   5.150   0.124  11.822  1.2077  1.0800  0.5737
14020TIP3    H263476   5.043   0.180  11.914  0.3753  0.3799  0.0431
14021TIP3   OH263477   5.784   1.268  12.037 -0.0042  0.3145  0.0264
14021TIP3    H163478   5.699   1.300  12.068  0.0794 -0.6889  1.4143
14021TIP3    H263479   5.767   1.177  12.012  0.5457  0.2704 -0.2022
14022TIP3   OH263480   5.909   4.943  16.747 -0.3543  0.2664  0.3872
14022TIP3    H163481   5.832   4.925  16.801 -1.3411 -0.1548 -1.0962
14022TIP3    H263482   5.941   4.856  16.723  0.0472  0.4513  0.2565
14023TIP3   OH263483   4.152   4.362   0.017 -0.3258 -0.5817  0.3620
14023TIP3    H163484   4.080   4.408  -0.026 -0.2221  0.2197  1.0145
14023TIP3    H263485   4.229   4.387  -0.035 -0.2929 -0.1283  0.6204
14024TIP3   OH263486   0.438   1.328  16.861 -0.0727  0.1569 -0.2801
14024TIP3    H163487   0.487   1.410  16.848 -0.6954  0.2747 -2.0924
14024TIP3    H263488   0.449   1.309  16.954  2.0882  1.0163 -0.2868
14025TIP3   OH263489   1.285   2.182   0.845 -0.2763  0.1970  0.6850
14025TIP3    H163490   1.346   2.250   0.815  0.7230  0.0432  2.2199
14025TIP3    H263491   1.222   2.230   0.899 -0.8539  0.1910  0.0253
14026TIP3   OH263492   3.274   0.373   4.318 -0.1508 -0.1364 -0.4275
14026TIP3    H163493   3.342   0.314   4.351 -0.5398 -0.5244 -0.3047
14026TIP3    H263494   3.279   0.364   4.223  0.0716 -0.0493 -0.4235
14027TIP3   OH263495   4.400   1.064   4.826 -0.3700  0.0130 -0.2332
14027TIP3    H163496   4.439   1.021   4.749  2.1195  2.6687 -0.6318
14027TIP3    H263497   4.339   0.999   4.860  0.6857 -2.5053 -2.6442
14028TIP3   OH263498   0.916   1.537  11.894  0.3844  0.3588  0.4369
14028TIP3    H163499   0.908   1.592  11.816 -2.2672 -1.6763 -0.8913
14028TIP3    H263500   0.963   1.460  11.864 -1.2861 -0.7659  0.5858
14029TIP3   OH263501   3.894   2.834  14.885  0.0749 -0.3917  0.1227
14029TIP3    H163502   3.910   2.758  14.829  0.2574 -0.6537  0.5282
14029TIP3    H263503   3.935   2.907  14.839  1.8116 -0.9136  0.7831
14030TIP3   OH263504   0.830   5.835  10.840  0.5449  0.2874  1.0348
14030TIP3    H163505   0.819   5.752  10.794 -2.0986  2.2229 -2.2964
14030TIP3    H263506   0.742   5.858  10.869  1.7910  0.1716  5.6975
14031TIP3   OH263507   6.087   6.419   4.600  0.3921  0.0846  0.7583
14031TIP3    H163508   6.008   6.368   4.618 -0.4215  0.0300 -2.2846
14031TIP3    H263509   6.131   6.369   4.531  2.4185  0.8122  1.4624
14032TIP3   OH263510   1.872   5.407   6.638  0.0641  0.2378 -0.4135
14032TIP3    H163511   1.944   5.407   6.700 -0.1010  0.8009 -0.2182
14032TIP3    H263512   1.834   5.495   6.644 -0.8752 -0.1704 -0.2363
14033TIP3   OH263513   3.419   3.550   3.443  0.1156 -0.2011 -0.0943
14033TIP3    H163514   3.423   3.464   3.485 -2.9613  0.2962  1.4576
14033TIP3    H263515   3.390   3.532   3.354  1.6856 -0.8747 -0.5055
14034TIP3   OH263516   2.585   0.426   3.780 -0.0627 -0.1026 -0.2782
14034TIP3    H163517   2.564   0.367   3.852  0.3941  1.8918  1.6048
14034TIP3    H263518   2.502   0.468   3.758 -0.0188 -0.0076 -0.2614
14035TIP3   OH263519   3.819   0.908   5.104  0.2074 -0.1519 -0.3474
14035TIP3    H163520   3.738   0.889   5.057 -0.4237  0.3041  0.5267
14035TIP3    H263521   3.887   0.863   5.055 -0.3527  0.7064 -1.9794
14036TIP3   OH263522   3.738   3.207   2.200  0.2401 -0.1205  0.5527
14036TIP3    H163523   3.723   3.263   2.277  1.6304  0.8448  0.1589
14036TIP3    H263524   3.650   3.186   2.169 -0.3332  0.6649  1.5580
14037TIP3   OH263525   4.909   6.473   4.823  0.1262 -0.1601  0.6329
14037TIP3    H163526   4.919   6.470   4.919 -0.7885 -0.9814  0.7152
14037TIP3    H263527   4.979   6.532   4.794  1.7081 -1.4730  1.6232
14038TIP3   OH263528   2.416   4.195   3.417 -0.7255 -0.0572 -0.4169
14038TIP3    H163529   2.427   4.178   3.510 -1.9947 -0.8609 -0.3971
14038TIP3    H263530   2.416   4.290   3.410 -0.1370  0.0054  0.3345
14039TIP3   OH263531   3.170   2.497  15.645  0.8435  0.1069 -0.3853
14039TIP3    H163532   3.153   2.587  15.618  2.5979  1.4399  2.5213
14039TIP3    H263533   3.249   2.472  15.596  0.8520  0.4711 -0.5647
14040TIP3   OH263534   5.194   0.460   4.198  0.0924 -0.4472  0.0131
14040TIP3    H163535   5.246   0.489   4.123 -0.9213  0.6552 -0.2889
14040TIP3    H263536   5.259   0.443   4.267  1.2160 -3.2498 -1.6059
14041TIP3   OH263537   5.396   4.116   4.660  0.3071  0.4745  0.2095
14041TIP3    H163538   5.325   4.168   4.622  0.5234 -1.1580 -2.7496
14041TIP3    H263539   5.475   4.170   4.646  0.0351  1.0966  0.9886
14042TIP3   OH263540   2.113   6.563   1.684 -0.0952  1.0112 -0.6532
14042TIP3    H163541   2.199   6.601   1.670  0.6256 -0.5620 -0.6711
14042TIP3    H263542   2.127   6.469   1.680 -1.9040  0.7203 -1.1680
14043TIP3   OH263543   4.017   4.681   0.199 -0.2665 -0.2904 -0.5251
14043TIP3    H163544   4.107   4.670   0.168 -0.6592 -0.3578 -1.6880
14043TIP3    H263545   4.006   4.776   0.210 -0.0327 -0.2898 -0.2767
14044TIP3   OH263546   0.360   3.118  15.679 -0.7075  0.4172  0.2370
14044TIP3    H163547   0.358   3.023  15.668 -0.3117  0.5140 -0.7821
14044TIP3    H263548   0.278   3.149  15.640  0.0738  0.6482 -1.2857
14045TIP3   OH263549   2.334   4.893   2.308  0.2870 -0.7530  0.2579
14045TIP3    H163550   2.240   4.876   2.304  0.4932 -2.1187  0.6278
14045TIP3    H263551   2.374   4.814   2.271  1.2827  0.1848 -0.7652
14046TIP3   OH263552   4.468   2.570  15.924 -0.3454 -0.0068  0.0191
14046TIP3    H163553   4.544   2.614  15.962 -0.6093 -0.4163  1.0573
14046TIP3    H263554   4.416   2.640  15.885  0.7765  0.2287 -1.1041
14047TIP3   OH263555   1.937   5.824  13.784  0.4006 -0.9275  0.4516
14047TIP3    H163556   1.889   5.907  13.781  0.1114 -1.1119 -0.2631
14047TIP3    H263557   1.979   5.817  13.698 -2.0725 -2.9453 -0.7504
14048TIP3   OH263558   3.822   6.630   1.066 -0.0864 -0.0060  0.9489
14048TIP3    H163559   3.807   6.539   1.041  0.9294 -0.4241  1.8034
14048TIP3    H263560   3.913   6.633   1.094 -0.1102  1.2771  0.9557
14049TIP3   OH263561   0.553   3.642   3.787  0.4345  0.3671  0.1801
14049TIP3    H163562   0.594   3.576   3.844  0.2608  0.8411  0.8577
14049TIP3    H263563   0.471   3.601   3.759  1.0894 -0.3665 -0.7442
14050TIP3   OH263564   4.358   2.557   4.844 -0.1796  0.7493  0.0285
14050TIP3    H163565   4.304   2.479   4.836  0.6345  0.2967 -1.4420
14050TIP3    H263566   4.296   2.630   4.835 -0.7645  0.2689  0.1105
14051TIP3   OH263567   4.629   3.143  17.124  0.3874 -0.3967  0.0484
14051TIP3    H163568   4.566   3.212  17.145 -0.4022 -1.4734  1.3288
14051TIP3    H263569   4.595   3.065  17.166  2.6922 -1.0003  0.9766
14052TIP3   OH263570   3.301   4.845   1.592  0.1281  0.9067 -0.3727
14052TIP3    H163571   3.328   4.756   1.569  1.6620  1.5125 -1.0955
14052TIP3    H263572   3.285   4.887   1.508 -2.7299  0.7570  0.0102
14053TIP3   OH263573   2.050   3.365  14.615  0.1998  0.0813  0.3870
14053TIP3    H163574   2.087   3.292  14.565 -0.4087  0.5084 -0.7269
14053TIP3    H263575   2.119   3.431  14.617  1.0475 -0.7927  2.0821
14054TIP3   OH263576   6.156   3.439   1.724  0.3490  0.6498  0.2754
14054TIP3    H163577   6.124   3.526   1.699 -1.3373  0.0912  0.3496
14054TIP3    H263578   6.155   3.440   1.820 -0.5209  0.2648  0.2746
14055TIP3   OH263579   4.223   5.892   4.591  0.0561  0.2307 -0.4461
14055TIP3    H163580   4.294   5.889   4.527  0.1218 -1.4182 -0.3508
14055TIP3    H263581   4.152   5.843   4.550  0.4145 -1.6552  1.0619
14056TIP3   OH263582   4.773   3.226   3.113  0.3065 -0.2067  0.2923
14056TIP3    H163583   4.696   3.233   3.170  0.9979  1.2384  1.1251
14056TIP3    H263584   4.831   3.165   3.158 -0.3947 -1.4229 -0.4173
14057TIP3   OH263585   4.278   5.539  12.904 -0.4164  0.4329 -0.1842
14057TIP3    H163586   4.312   5.602  12.967  1.2246 -0.6709  0.0972
14057TIP3    H263587   4.216   5.486  12.955  0.0836  0.2386  0.2344
14058TIP3   OH263588   4.979   5.645   3.930 -0.2172 -0.4233  0.4593
14058TIP3    H163589   5.056   5.593   3.955  1.4385  2.0539  0.8630
14058TIP3    H263590   4.998   5.733   3.962 -2.3424  0.7416 -1.2298
14059TIP3   OH263591   3.006   0.973  14.190  0.1831 -0.4179 -0.1182
14059TIP3    H163592   2.955   0.898  14.222  0.8851 -1.2371 -0.8578
14059TIP3    H263593   2.940   1.040  14.170 -0.5527 -1.2114 -0.4241
14060TIP3   OH263594   0.025   6.764   5.011  0.4069 -0.2551  0.2347
14060TIP3    H163595   0.013   6.846   4.963  2.7643 -0.0876 -0.1910
14060TIP3    H263596   0.019   6.696   4.944  2.1471 -0.1332 -0.0728
14061TIP3   OH263597   1.790   6.601   2.240  0.1054 -0.1629  0.3739
14061TIP3    H163598   1.816   6.553   2.318 -0.2539  0.4379  0.8701
14061TIP3    H263599   1.699   6.626   2.255 -0.3930 -1.1743 -0.8094
14062TIP3   OH263600   1.564   1.394  16.798  0.2744 -0.0897  0.1173
14062TIP3    H163601   1.642   1.381  16.745  1.0087  0.2900  1.0915
14062TIP3    H263602   1.578   1.477  16.842 -0.9298  0.2578 -0.1114
14063TIP3   OH263603   3.997   6.614   1.525 -0.7239 -0.6976 -0.7415
14063TIP3    H163604   4.084   6.586   1.495 -0.1692  1.8148 -1.6897
14063TIP3    H263605   3.947   6.532   1.532  1.7198 -2.2572  0.0011
14064TIP3   OH263606   5.340   5.050  11.741  0.7924  0.5015  0.1018
14064TIP3    H163607   5.287   5.121  11.706  0.8322 -0.0450 -1.1467
14064TIP3    H263608   5.335   4.981  11.674  0.9948 -0.5529  1.1337
14065TIP3   OH263609   4.985   0.021   4.034  0.1125  0.3658  0.0308
14065TIP3    H163610   4.933   0.049   4.109  0.7931  0.1100  0.6097
14065TIP3    H263611   4.987   0.097   3.976 -1.8260  0.0502 -0.5481
14066TIP3   OH263612   4.855   3.184   4.874 -0.1829  0.3836 -0.4487
14066TIP3    H163613   4.935   3.139   4.900  0.1904  1.0120 -0.5062
14066TIP3    H263614   4.863   3.196   4.780 -0.7776 -0.3875 -0.6097
14067TIP3   OH263615   3.924   2.055  13.212  0.3440  0.6854  0.6161
14067TIP3    H163616   3.875   2.107  13.275  0.6222  0.6229  0.8884
14067TIP3    H263617   3.919   2.105  13.130 -0.8157  0.2982  0.4417
14068TIP3   OH263618   3.997   0.343  11.340 -0.4326  0.3150 -0.4427
14068TIP3    H163619   3.919   0.390  11.370 -0.1694 -0.1787  1.1060
14068TIP3    H263620   4.070   0.403  11.357 -0.2452 -0.0998  0.2822
14069TIP3   OH263621   4.474   5.809   5.240 -0.0560 -0.0916 -0.1102
14069TIP3    H163622   4.475   5.752   5.318 -0.7690  0.4298  0.2959
14069TIP3    H263623   4.389   5.793   5.200 -0.0005  0.2153 -0.3544
14070TIP3   OH263624   4.259   1.800  16.577 -0.4655 -0.1264 -0.3589
14070TIP3    H163625   4.277   1.855  16.501 -0.5706 -2.4570 -2.1739
14070TIP3    H263626   4.169   1.771  16.564  0.0773 -1.9163 -0.2816
14071TIP3   OH263627   1.423   2.899  16.487 -0.3760 -0.6130 -0.0119
14071TIP3    H163628   1.483   2.834  16.522 -0.3014 -0.6089 -0.1306
14071TIP3    H263629   1.452   2.913  16.397  0.9608  1.1689  0.6185
14072TIP3   OH263630   5.679   5.212   3.609  0.3450  0.0040  0.4529
14072TIP3    H163631   5.693   5.177   3.521 -1.0033 -0.7278  0.4987
14072TIP3    H263632   5.584   5.214   3.619  0.4367  1.7796  1.2444
14073TIP3   OH263633   1.697   5.581  11.695  0.2784  0.4035  0.4150
14073TIP3    H163634   1.679   5.568  11.602 -0.0935  2.0590  0.2398
14073TIP3    H263635   1.701   5.492  11.731 -1.3753 -0.2209 -0.8368
14074TIP3   OH263636   6.683   3.705  11.678  0.3212 -0.0934  0.1326
14074TIP3    H163637   6.706   3.684  11.588 -1.2210  1.2106 -0.6134
14074TIP3    H263638   6.687   3.801  11.683  0.8888 -0.1650  1.6026
14075TIP3   OH263639   6.083   0.301  12.357 -0.2035  0.2918 -0.6539
14075TIP3    H163640   6.080   0.218  12.309 -0.5795 -0.3343  0.4346
14075TIP3    H263641   6.097   0.276  12.448 -0.3816  1.4306 -0.3005
14076TIP3   OH263642   4.726   0.199   5.100  0.4844  0.2992  0.0529
14076TIP3    H163643   4.804   0.174   5.050  0.5328 -2.0335  1.1582
14076TIP3    H263644   4.658   0.138   5.070 -1.3267  2.9238 -1.6506
14077TIP3   OH263645   6.246   0.500  13.968 -0.2488 -0.1630 -0.0152
14077TIP3    H163646   6.196   0.553  14.031  0.6069 -0.2714  0.7641
14077TIP3    H263647   6.273   0.423  14.017  1.7329  0.4584 -0.0401
14078TIP3   OH263648   0.204   1.364   5.589  0.0927 -0.4921 -0.3476
14078TIP3    H163649   0.281   1.412   5.559  0.7247 -1.9830 -1.1789
14078TIP3    H263650   0.226   1.336   5.678 -0.6344  1.4238  0.5127
14079TIP3   OH263651   3.333   6.205   3.666 -0.0118 -0.7290 -0.1360
14079TIP3    H163652   3.254   6.229   3.716 -0.1428 -1.4216 -0.0017
14079TIP3    H263653   3.397   6.182   3.733  0.8025  1.2339 -0.1759
14080TIP3   OH263654   6.478   1.398  16.836 -0.5367  0.2191 -0.0731
14080TIP3    H163655   6.505   1.360  16.920  0.8519  0.1820 -0.5146
14080TIP3    H263656   6.521   1.343  16.770  0.8859  2.0187 -0.7445
14081TIP3   OH263657   1.956   3.798   1.428 -0.3056  0.1504 -0.5441
14081TIP3    H163658   1.870   3.808   1.471 -0.0559 -2.2805  0.7192
14081TIP3    H263659   2.019   3.826   1.495 -0.0368 -0.8915 -0.3346
14082TIP3   OH263660   0.189   6.490   5.300  0.1754  0.1538  0.1360
14082TIP3    H163661   0.261   6.496   5.363 -0.0174 -0.5930  0.4439
14082TIP3    H263662   0.162   6.580   5.285 -0.3099  0.3137  1.7747
14083TIP3   OH263663   0.365   5.642  10.827 -0.1798 -0.1819 -0.2270
14083TIP3    H163664   0.366   5.558  10.781 -0.4166 -1.0844  1.3728
14083TIP3    H263665   0.289   5.637  10.885 -0.8426  1.5904 -0.8779
14084TIP3   OH263666   0.455   3.116  11.511  0.3283 -0.1628  0.3200
14084TIP3    H163667   0.372   3.071  11.493  0.4821 -0.9417  1.4048
14084TIP3    H263668   0.505   3.108  11.430 -0.6566  0.3137 -0.3479
14085TIP3   OH263669   1.204   5.965   2.116  0.9071 -0.1898 -0.3516
14085TIP3    H163670   1.298   5.969   2.131  0.8826  0.3075 -0.2941
14085TIP3    H263671   1.188   6.029   2.046  0.6218 -0.3081 -0.3954
14086TIP3   OH263672   3.610   1.546  14.330  0.8650 -0.0899  0.0702
14086TIP3    H163673   3.593   1.530  14.423  1.6511  0.5639  0.3306
14086TIP3    H263674   3.585   1.464  14.287 -1.6365  0.3446  0.5716
14087TIP3   OH263675   3.660   5.197  16.020 -0.6476 -0.1009  0.0372
14087TIP3    H163676   3.651   5.102  16.019 -0.3761 -0.1307  0.1488
14087TIP3    H263677   3.704   5.216  16.103 -1.3076  0.1816  0.3244
14088TIP3   OH263678   1.437   4.406  15.346  0.0774 -0.6255 -0.5198
14088TIP3    H163679   1.443   4.500  15.363 -0.8258 -0.7826  0.8111
14088TIP3    H263680   1.503   4.366  15.403  1.8845 -0.7078 -2.5335
14089TIP3   OH263681   2.653   3.727  14.029  0.0210 -0.1408  0.5898
14089TIP3    H163682   2.619   3.727  14.118 -0.0286 -0.1049  0.5706
14089TIP3    H263683   2.747   3.743  14.038  0.4364 -2.3972  0.7978
14090TIP3   OH263684   3.299   4.974  14.176  0.4439 -0.2978 -0.0209
14090TIP3    H163685   3.386   4.989  14.213  0.7770  0.3113 -1.0332
14090TIP3    H263686   3.256   5.059  14.179  0.0368 -0.4999  0.0573
14091TIP3   OH263687   0.403   5.536  13.597  0.2333 -0.8115  0.1777
14091TIP3    H163688   0.332   5.501  13.652  0.8571  2.0567  3.1803
14091TIP3    H263689   0.359   5.575  13.522 -1.6553  1.6123  2.3567
14092TIP3   OH263690   3.813   5.405  17.172 -0.0333 -0.9118  0.3356
14092TIP3    H163691   3.828   5.491  17.212 -0.1454 -0.1925 -1.1240
14092TIP3    H263692   3.897   5.380  17.134 -0.1134 -1.2606  0.3781
14093TIP3   OH263693   1.969   3.756  12.416 -0.1321  0.4509 -0.4816
14093TIP3    H163694   2.049   3.781  12.462 -1.2047 -0.2137  1.8809
14093TIP3    H263695   1.931   3.839  12.387  0.5608  0.8972 -0.1331
14094TIP3   OH263696   2.362   0.158  17.148 -0.2394 -0.6013  0.0802
14094TIP3    H163697   2.421   0.095  17.191  1.8701  0.6505 -0.8277
14094TIP3    H263698   2.302   0.185  17.217  1.2166 -0.8176  1.4989
14095TIP3   OH263699   4.562   6.641   1.045 -0.2390 -0.5048  0.0157
14095TIP3    H163700   4.537   6.588   0.969 -0.1262 -3.5513  1.9205
14095TIP3    H263701   4.653   6.618   1.062  0.1367  1.1220  0.3564
14096TIP3   OH263702   4.747   2.338  15.718 -0.4498  0.1896 -0.0950
14096TIP3    H163703   4.825   2.369  15.765 -1.5100  0.5234  1.5387
14096TIP3    H263704   4.751   2.383  15.633  0.2914  1.4872  0.5898
14097TIP3   OH263705   5.802   3.373   4.422 -0.5638  0.0327  0.5120
14097TIP3    H163706   5.751   3.384   4.342  0.4597  1.0933 -0.0364
14097TIP3    H263707   5.740   3.388   4.493 -1.3726 -0.4137 -0.0864
14098TIP3   OH263708   5.991   5.731   0.202 -0.1631 -0.5749  0.2539
14098TIP3    H163709   6.008   5.739   0.108 -0.9161 -0.8633  0.0893
14098TIP3    H263710   6.020   5.642   0.224  1.8660  0.1307  0.7179
14099TIP3   OH263711   4.194   3.104   5.846  0.5587  0.0624  0.0601
14099TIP3    H163712   4.205   3.023   5.895  0.4963  0.5573  0.9115
14099TIP3    H263713   4.250   3.093   5.769  1.3348 -0.3895  0.6689
14100TIP3   OH263714   5.372   4.066   5.977 -0.3086 -0.5183 -0.4446
14100TIP3    H163715   5.341   4.146   6.021  0.0456 -0.9935  0.6872
14100TIP3    H263716   5.462   4.087   5.950  0.2494 -0.9435  0.9889
14101TIP3   OH263717   1.785   3.452   4.753 -0.1076 -0.1458  0.0101
14101TIP3    H163718   1.737   3.375   4.783  0.4357 -0.3448  0.3809
14101TIP3    H263719   1.847   3.418   4.688 -0.5717  0.1341 -0.5856
14102TIP3   OH263720   6.500   4.067   3.503 -0.2634 -0.5920 -1.0171
14102TIP3    H163721   6.418   4.116   3.495 -0.1323 -0.5410 -2.2769
14102TIP3    H263722   6.525   4.047   3.412  1.1079 -0.6065 -0.6649
14103TIP3   OH263723   5.433   2.289  17.316 -0.5775  0.4364  0.2376
14103TIP3    H163724   5.468   2.201  17.333 -1.8731 -0.1706 -0.1041
14103TIP3    H263725   5.432   2.331  17.402 -1.4221 -0.4613  0.6868
14104TIP3   OH263726   0.601   0.910  16.629 -0.4150 -0.0975  0.5922
14104TIP3    H163727   0.539   0.929  16.699 -0.7182  0.0128  0.2968
14104TIP3    H263728   0.565   0.953  16.552  0.2267  0.2891  0.4985
14105TIP3   OH263729   3.279   5.945   2.107 -0.3213 -0.0608  0.7315
14105TIP3    H163730   3.274   5.850   2.092 -1.0798 -0.0483  0.8421
14105TIP3    H263731   3.343   5.976   2.044 -0.1411 -0.6384  0.6224
14106TIP3   OH263732   0.957   2.959  13.893  0.0347  0.2333  0.0169
14106TIP3    H163733   0.927   3.040  13.852 -0.5644  0.0117  0.0059
14106TIP3    H263734   0.881   2.901  13.888  0.2507 -0.1033  0.6183
14107TIP3   OH263735   2.264   4.009  12.994  0.6428  0.0702 -0.0546
14107TIP3    H163736   2.294   4.023  12.904 -0.0070  0.8487 -0.1593
14107TIP3    H263737   2.169   3.998  12.986  0.6897 -0.7145  0.4448
14108TIP3   OH263738   1.456   1.293  17.173  0.3544 -0.3478 -0.0940
14108TIP3    H163739   1.366   1.301  17.142  0.3453  0.4727  0.1296
14108TIP3    H263740   1.498   1.235  17.110  0.4590  1.5858 -1.9063
14109TIP3   OH263741   0.422   1.474  11.595  0.0769  0.2093  0.2564
14109TIP3    H163742   0.517   1.471  11.607 -0.0654  1.1181  2.0892
14109TIP3    H263743   0.387   1.482  11.684 -1.5868  2.4626 -0.4866
14110TIP3   OH263744   3.577   1.960   6.164  0.3963  0.1133  0.1063
14110TIP3    H163745   3.670   1.946   6.149  0.4333  1.2740 -0.8489
14110TIP3    H263746   3.550   2.021   6.096 -1.4870 -1.6103 -0.7782
14111TIP3   OH263747   4.277   2.054  16.687  0.1481 -0.4165 -0.1589
14111TIP3    H163748   4.266   1.965  16.654  0.7603 -0.6144  0.1547
14111TIP3    H263749   4.220   2.108  16.632 -0.0164 -0.9614 -0.5220
14112TIP3   OH263750   4.479   6.720   2.106  0.0716  0.2978 -0.8637
14112TIP3    H163751   4.574   6.729   2.100  0.4041  0.0485  2.3467
14112TIP3    H263752   4.449   6.801   2.148 -1.0144 -0.0475 -0.9353
14113TIP3   OH263753   3.426   2.498   3.470 -0.2618  0.2297  0.7500
14113TIP3    H163754   3.444   2.558   3.398  0.2659 -0.5984  0.1713
14113TIP3    H263755   3.344   2.531   3.508 -0.6230  0.6126 -0.3057
14114TIP3   OH263756   4.248   0.522  15.785  0.3463 -0.5158 -0.4230
14114TIP3    H163757   4.221   0.604  15.744 -0.6073  1.3871  3.5063
14114TIP3    H263758   4.294   0.550  15.865  0.1424 -3.8131  0.9852
14115TIP3   OH263759   0.299   5.965  14.681  0.1588  0.6317 -0.1255
14115TIP3    H163760   0.238   6.003  14.617  0.5558  0.1817 -0.7879
14115TIP3    H263761   0.298   5.871  14.663  0.1327  0.4771  0.6636
14116TIP3   OH263762   3.220   1.009   4.996  0.0572  0.4202  0.1002
14116TIP3    H163763   3.180   1.096   4.987 -4.3611 -1.3595 -0.4648
14116TIP3    H263764   3.226   0.995   5.090 -0.0551  1.0223  0.2023
14117TIP3   OH263765   0.089   0.935  10.434 -0.0504  0.1265  0.1995
14117TIP3    H163766   0.048   0.979  10.509  2.6644  1.4239  1.0348
14117TIP3    H263767   0.030   0.863  10.414 -1.1897  0.0832  3.2059
14118TIP3   OH263768   1.564   3.003  13.332  0.2874  0.4474 -0.6106
14118TIP3    H163769   1.502   2.960  13.273 -2.2434  2.0367  0.7028
14118TIP3    H263770   1.606   2.931  13.380 -3.3596 -0.7712  1.1159
14119TIP3   OH263771   4.885   4.616  16.826 -0.0125  0.3148  0.1218
14119TIP3    H163772   4.947   4.682  16.857  0.0717 -0.4986  1.7514
14119TIP3    H263773   4.879   4.553  16.897 -2.1240 -0.0514 -0.3108
14120TIP3   OH263774   1.081   4.821   4.681 -0.0424  0.2618 -0.1374
14120TIP3    H163775   1.127   4.899   4.712  1.6496 -0.8804  0.3597
14120TIP3    H263776   1.148   4.771   4.634 -1.3417 -0.4360 -1.3349
14121TIP3   OH263777   4.773   6.173  13.125  0.2598 -0.1473 -0.1124
14121TIP3    H163778   4.861   6.188  13.160 -0.0580  0.1558  0.5751
14121TIP3    H263779   4.747   6.257  13.088 -0.0252 -0.0315  0.3421
14122TIP3   OH263780   1.461   4.530   3.759 -0.2763 -0.0366  0.2870
14122TIP3    H163781   1.377   4.497   3.725 -1.5217  1.3711  1.8238
14122TIP3    H263782   1.475   4.612   3.712  1.3468 -1.2173 -1.4357
14123TIP3   OH263783   5.887   5.431  14.076 -0.4511 -0.2344  0.7293
14123TIP3    H163784   5.956   5.390  14.128  0.5037  1.0945  0.5522
14123TIP3    H263785   5.915   5.522  14.066 -1.5373 -0.0064 -0.5410
14124TIP3   OH263786   6.128   0.862   2.465 -0.5955  0.2810 -0.4273
14124TIP3    H163787   6.121   0.838   2.373  0.3674 -0.5562 -0.3045
14124TIP3    H263788   6.075   0.797   2.511 -2.0936  1.4278 -0.4560
14125TIP3   OH263789   1.640   0.948  10.636 -0.3365  0.3642 -0.1198
14125TIP3    H163790   1.636   0.897  10.556 -1.5734  0.0027  0.1564
14125TIP3    H263791   1.724   0.924  10.676 -1.5721 -2.8221  0.8686
14126TIP3   OH263792   1.530   3.011  15.178  0.3681 -0.3272  0.2200
14126TIP3    H163793   1.451   3.054  15.145  0.2951 -0.5585  0.0880
14126TIP3    H263794   1.573   2.976  15.100  0.6434 -0.1342  0.2820
14127TIP3   OH263795   5.160   1.439   4.751 -0.4350 -0.3315 -0.3349
14127TIP3    H163796   5.128   1.393   4.673  0.3155 -1.4156 -0.0209
14127TIP3    H263797   5.235   1.489   4.720 -0.5491 -0.2267 -0.4437
14128TIP3   OH263798   5.833   4.278  15.343 -0.2941  0.0783  0.1270
14128TIP3    H163799   5.917   4.317  15.363 -1.0920  0.5116  3.0865
14128TIP3    H263800   5.847   4.184  15.350 -0.2728  0.1819  1.9218
14129TIP3   OH263801   6.278   2.279  13.922  0.0122  0.0120  0.0727
14129TIP3    H163802   6.293   2.196  13.965  0.7846 -0.4626 -1.0436
14129TIP3    H263803   6.317   2.344  13.981 -1.0626 -0.3294  1.2009
14130TIP3   OH263804   0.040   5.184   2.264  0.5720 -0.0940 -0.5044
14130TIP3    H163805   0.114   5.146   2.310  1.7279  0.2591 -1.9891
14130TIP3    H263806   0.058   5.278   2.264 -1.0902  0.2998  1.1273
14131TIP3   OH263807   2.167   0.089   1.860 -0.4896 -0.2198 -0.0116
14131TIP3    H163808   2.163   0.108   1.766  0.6823  0.4402  0.0489
14131TIP3    H263809   2.101   0.022   1.874 -4.0050  2.8195 -0.4961
14132TIP3   OH263810   0.752   6.447  11.384 -0.0968 -0.3105 -0.5443
14132TIP3    H163811   0.776   6.449  11.476  0.4487 -1.4902 -0.6401
14132TIP3    H263812   0.774   6.359  11.355  1.0834  0.4422 -2.1497
14133TIP3   OH263813   1.602   1.498   1.001 -0.1624 -0.2001 -0.2401
14133TIP3    H163814   1.643   1.524   0.918 -2.0294 -0.3535 -1.2569
14133TIP3    H263815   1.592   1.580   1.049  1.0505 -0.1256 -0.0818
14134TIP3   OH263816   1.392   5.253  11.957 -0.3019 -0.1506 -0.1258
14134TIP3    H163817   1.459   5.242  11.889 -1.7976 -2.2242 -1.4098
14134TIP3    H263818   1.370   5.346  11.954  2.1315  0.5200  0.0547
14135TIP3   OH263819   6.586   0.474  11.444 -0.0637 -0.8945 -0.5920
14135TIP3    H163820   6.511   0.471  11.503  0.1630  0.4654 -0.2099
14135TIP3    H263821   6.644   0.541  11.481  2.3852 -3.3033  0.3363
14136TIP3   OH263822   3.896   2.639  17.073  0.0210 -0.1053  0.2259
14136TIP3    H163823   3.932   2.688  16.999 -0.3577 -0.5567 -0.2617
14136TIP3    H263824   3.911   2.696  17.148  0.9305  0.1098 -0.1041
14137TIP3   OH263825   1.526   4.615  14.665 -0.2624 -0.0888 -0.2959
14137TIP3    H163826   1.438   4.642  14.640  0.0176  0.6860 -0.4774
14137TIP3    H263827   1.512   4.539  14.722 -1.1969  1.3431  1.5380
14138TIP3   OH263828   5.621   2.267  13.868 -0.7836 -0.3904 -0.2143
14138TIP3    H163829   5.611   2.183  13.913 -1.8645 -1.3193 -2.0984
14138TIP3    H263830   5.694   2.309  13.914  0.1439 -2.5691  0.4641
14139TIP3   OH263831   4.603   0.566  14.038 -0.6920 -0.2148  0.0879
14139TIP3    H163832   4.576   0.475  14.051  0.3863 -0.3511  1.6012
14139TIP3    H263833   4.523   0.617  14.054 -1.3989 -0.8792 -1.1415
14140TIP3   OH263834   2.861   5.554  15.704 -0.0065 -0.4062 -0.4891
14140TIP3    H163835   2.840   5.473  15.658 -3.0280  0.3577 -0.6202
14140TIP3    H263836   2.855   5.623  15.638 -2.7713  0.4999  0.5630
14141TIP3   OH263837   5.639   5.461  16.668  0.5342 -0.0538 -0.2164
14141TIP3    H163838   5.560   5.443  16.720  0.2046  3.2614  0.6227
14141TIP3    H263839   5.610   5.520  16.599  2.2120  1.1594  0.0517
14142TIP3   OH263840   2.690   0.079   5.023  0.4626 -0.3936  0.1762
14142TIP3    H163841   2.760   0.125   4.976 -2.2741  1.6657 -2.2580
14142TIP3    H263842   2.730  -0.005   5.048  3.6662  0.4954 -1.3451
14143TIP3   OH263843   2.502   2.838  14.563  0.1342  0.0293  0.0559
14143TIP3    H163844   2.596   2.829  14.551 -0.0692 -1.8189 -0.5564
14143TIP3    H263845   2.484   2.792  14.646 -0.2640 -0.0004 -0.0420
14144TIP3   OH263846   4.908   2.111  13.040 -1.0795 -0.2098 -0.4708
14144TIP3    H163847   4.999   2.107  13.068 -1.4990 -2.5270  0.7880
14144TIP3    H263848   4.869   2.180  13.094 -0.1359  0.6609 -0.8802
14145TIP3   OH263849   5.178   6.681  14.887  0.0683 -0.0557 -0.1814
14145TIP3    H163850   5.201   6.768  14.918 -2.1753  0.1794  1.1199
14145TIP3    H263851   5.232   6.667  14.809 -0.0024  2.7677 -0.8420
14146TIP3   OH263852   2.326   2.770   0.414 -0.5406  0.7264 -0.1631
14146TIP3    H163853   2.378   2.690   0.411  0.3373  1.3035 -1.4196
14146TIP3    H263854   2.259   2.757   0.347 -0.1753  1.1812 -0.6194
14147TIP3   OH263855   2.001   6.518  15.522 -0.2597 -0.5169  0.5991
14147TIP3    H163856   2.021   6.576  15.596 -2.5143  2.3395 -0.8222
14147TIP3    H263857   2.022   6.571  15.445 -2.7341 -1.3952 -0.7823
14148TIP3   OH263858   0.976   3.015   5.377 -0.4437 -0.0242  0.3546
14148TIP3    H163859   0.991   3.074   5.451  0.7791  0.2490 -0.0855
14148TIP3    H263860   0.936   2.937   5.416  1.1930 -0.3441  1.4827
14149TIP3   OH263861   5.171   5.480  14.685  0.1416  0.3667 -0.6733
14149TIP3    H163862   5.107   5.534  14.732  1.1868  0.8517  0.2230
14149TIP3    H263863   5.135   5.472  14.597 -0.8428  1.1588 -0.3638
14150TIP3   OH263864   5.099   1.731  15.525 -0.2301  0.1296  0.1718
14150TIP3    H163865   5.128   1.682  15.448 -1.2313 -0.8830  0.4175
14150TIP3    H263866   5.095   1.666  15.595  1.7332  1.2291  1.4160
14151TIP3   OH263867   2.840   2.451   4.453  0.6284 -0.6008  0.0134
14151TIP3    H163868   2.877   2.378   4.502  1.6391  0.5922  1.0787
14151TIP3    H263869   2.912   2.513   4.444  0.2257 -0.3714 -2.2211
14152TIP3   OH263870   3.973   5.487  14.954 -0.7471  0.2969  0.3812
14152TIP3    H163871   3.941   5.577  14.963 -1.4579  0.0716  0.1284
14152TIP3    H263872   4.037   5.477  15.025 -1.2806  0.7308  0.9319
14153TIP3   OH263873   2.710   0.282   1.227  0.4706 -0.5171  0.0865
14153TIP3    H163874   2.728   0.366   1.269 -1.2283  0.6336 -1.3551
14153TIP3    H263875   2.614   0.275   1.227  0.5728 -2.4525  0.1183
14154TIP3   OH263876   5.501   0.408   6.593 -0.0232 -0.2714 -0.0610
14154TIP3    H163877   5.571   0.392   6.529  0.5992 -1.9611  0.9596
14154TIP3    H263878   5.516   0.497   6.623 -0.5913  0.7498 -2.5312
14155TIP3   OH263879   1.452   3.513   2.245 -0.3432  0.4136 -0.0332
14155TIP3    H163880   1.534   3.555   2.219 -1.2110  1.0604 -1.8977
14155TIP3    H263881   1.428   3.555   2.327  2.4234 -1.5666  1.9692
14156TIP3   OH263882   5.834   0.074   1.470 -0.1281  0.3305  0.2676
14156TIP3    H163883   5.796   0.141   1.412  0.2993  0.1838 -0.1945
14156TIP3    H263884   5.826   0.111   1.558 -0.5681  0.6655  0.0903
14157TIP3   OH263885   0.164   4.946  12.383  0.5351  0.0367  0.2314
14157TIP3    H163886   0.245   4.900  12.360  1.5514  1.3351  1.0513
14157TIP3    H263887   0.161   5.019  12.322 -1.1024 -1.0786 -1.1087
14158TIP3   OH263888   0.285   3.018  12.104  0.4683 -0.1623 -0.0840
14158TIP3    H163889   0.231   3.075  12.048  2.4722  1.9553 -0.0347
14158TIP3    H263890   0.360   2.996  12.049  0.4578 -1.5639  0.4293
14159TIP3   OH263891   4.484   3.852   4.095  0.0874  0.1757 -0.3064
14159TIP3    H163892   4.578   3.850   4.114 -0.0573 -1.6304  0.4025
14159TIP3    H263893   4.446   3.784   4.152 -1.4622 -0.0548 -1.5407
14160TIP3   OH263894   2.907   6.538  16.962 -0.0229 -0.3169 -0.7627
14160TIP3    H163895   2.916   6.455  16.915  0.4713  0.8371 -2.8265
14160TIP3    H263896   2.837   6.584  16.916 -0.1056  0.5231  0.1773
14161TIP3   OH263897   1.536   2.597  13.994  0.4394 -0.3689 -0.1697
14161TIP3    H163898   1.591   2.522  14.017 -0.7549 -1.4067 -0.6073
14161TIP3    H263899   1.532   2.595  13.898  0.2678  0.1634 -0.1763
14162TIP3   OH263900   4.032   5.619   4.053  0.0218  0.0849 -0.0996
14162TIP3    H163901   4.123   5.627   4.026 -0.0555  1.1337 -0.0810
14162TIP3    H263902   4.037   5.595   4.146  0.3035  1.3601  0.2393
14163TIP3   OH263903   4.273   4.816  11.887 -0.0382  0.0409 -0.2730
14163TIP3    H163904   4.185   4.797  11.856  0.7417 -2.2457 -1.3194
14163TIP3    H263905   4.305   4.884  11.828 -0.7308  0.1608 -0.5205
14164TIP3   OH263906   3.622   0.609  15.864 -0.5796 -0.2296  0.6388
14164TIP3    H163907   3.593   0.532  15.816 -1.9093  0.9590 -0.5695
14164TIP3    H263908   3.715   0.594  15.880 -0.8802 -2.2061  0.7293
14165TIP3   OH263909   5.783   2.570  12.883 -0.4867 -0.0073  0.3898
14165TIP3    H163910   5.738   2.527  12.810  1.3590 -1.8497  0.2474
14165TIP3    H263911   5.805   2.657  12.850  1.5823 -1.2581 -1.8980
14166TIP3   OH263912   3.384   5.116  11.206  0.5601 -0.3344  0.0361
14166TIP3    H163913   3.338   5.197  11.183 -0.2716 -0.6123  0.6405
14166TIP3    H263914   3.457   5.111  11.145 -0.5814 -0.1772 -1.4081
14167TIP3   OH263915   2.249   4.839  14.585 -0.3142 -0.3600 -0.8828
14167TIP3    H163916   2.254   4.754  14.630 -0.2089 -0.1200 -0.4301
14167TIP3    H263917   2.286   4.901  14.648  1.8439 -0.3182 -2.0962
14168TIP3   OH263918   4.695   4.448   4.038  0.7819 -0.2949 -0.3180
14168TIP3    H163919   4.689   4.362   4.078 -4.3263 -0.9126 -1.6263
14168TIP3    H263920   4.739   4.433   3.954  1.1450 -1.3372  0.0501
14169TIP3   OH263921   0.495   6.609   0.337 -0.6143  0.3918  0.0398
14169TIP3    H163922   0.524   6.521   0.360  0.0634  0.7134  0.4305
14169TIP3    H263923   0.551   6.667   0.388 -0.4492  1.0750 -0.9007
14170TIP3   OH263924   2.693   3.618   5.933  0.1588  0.1719  0.1943
14170TIP3    H163925   2.756   3.580   5.993  0.4732 -0.5238 -0.5622
14170TIP3    H263926   2.720   3.710   5.924  0.4251  0.1428  0.6822
14171TIP3   OH263927   4.330   1.498   1.303 -0.4174 -0.1623  0.3224
14171TIP3    H163928   4.314   1.530   1.392  0.2190 -0.5094  0.5731
14171TIP3    H263929   4.382   1.419   1.316 -0.8848 -0.5931 -0.3346
14172TIP3   OH263930   4.225   6.032  12.669 -0.3277 -0.4085  0.2165
14172TIP3    H163931   4.299   6.091  12.655  0.1223 -1.0658 -0.2423
14172TIP3    H263932   4.192   6.013  12.581 -0.2955 -1.0485  0.3369
14173TIP3   OH263933   0.211   6.765  16.139  0.4061  0.1395 -0.1329
14173TIP3    H163934   0.190   6.803  16.053 -1.7558  0.4478  0.4735
14173TIP3    H263935   0.213   6.670  16.123  3.3250  0.2631 -1.1341
14174TIP3   OH263936   6.287   2.892  15.888  0.0120  0.3232 -0.0549
14174TIP3    H163937   6.338   2.972  15.881  1.6698 -0.5623  1.0892
14174TIP3    H263938   6.335   2.838  15.952 -2.5130 -0.4743  1.3355
14175TIP3   OH263939   2.993   4.651  10.264 -0.3058  0.2078 -0.2719
14175TIP3    H163940   3.070   4.662  10.209 -1.9195 -0.2552 -2.7867
14175TIP3    H263941   2.919   4.670  10.207 -2.1088  0.0847  1.8726
14176TIP3   OH263942   3.263   4.770  15.206  0.0728  0.0482  0.2585
14176TIP3    H163943   3.250   4.844  15.265  0.6466  0.2642  0.1189
14176TIP3    H263944   3.345   4.789  15.162 -1.2717  0.8590 -2.0595
14177TIP3   OH263945   0.326   2.010   5.688  0.1419 -0.1906 -0.3957
14177TIP3    H163946   0.269   2.088   5.688  0.5913  0.1424 -0.2782
14177TIP3    H263947   0.415   2.046   5.696  0.2395 -0.8094  1.7613
14178TIP3   OH263948   1.672   3.427   5.924 -0.1366 -0.0838 -0.3964
14178TIP3    H163949   1.600   3.433   5.987 -0.0942 -0.7085 -0.2869
14178TIP3    H263950   1.724   3.352   5.953  0.8856  0.6910 -0.1433
14179TIP3   OH263951   4.916   2.005  16.204 -0.2868  0.0021  0.5783
14179TIP3    H163952   4.884   1.955  16.279  2.4171 -1.9455  0.5926
14179TIP3    H263953   4.943   1.938  16.140  0.3715  1.5349 -0.8261
14180TIP3   OH263954   0.564   3.454   2.390  0.3341  0.3106  0.3681
14180TIP3    H163955   0.631   3.520   2.409  0.2405 -0.2959  3.3853
14180TIP3    H263956   0.481   3.501   2.395  0.3373  0.2446  1.2294
14181TIP3   OH263957   4.730   1.578  11.178  0.4914 -0.0153 -0.0852
14181TIP3    H163958   4.694   1.495  11.210  1.7048 -0.6588 -0.3268
14181TIP3    H263959   4.673   1.645  11.215 -1.3312 -1.0101 -0.9734
14182TIP3   OH263960   6.495   5.080  16.262  0.9768  0.1023 -0.6193
14182TIP3    H163961   6.566   5.139  16.235  3.0821 -1.2436  1.5085
14182TIP3    H263962   6.442   5.132  16.323  1.0951  0.6633 -0.9913
14183TIP3   OH263963   5.196   3.573   4.034  0.9489 -0.2377  0.1352
14183TIP3    H163964   5.124   3.539   4.087 -0.2004  1.9492  0.0928
14183TIP3    H263965   5.215   3.503   3.971 -1.1471 -0.8863  0.1483
14184TIP3   OH263966   4.302   0.516  13.853 -0.3226 -0.0711  0.1209
14184TIP3    H163967   4.345   0.450  13.907  0.3178 -0.8802 -1.3356
14184TIP3    H263968   4.209   0.494  13.858 -0.3111  0.0573  1.1199
14185TIP3   OH263969   2.564   3.943  15.407 -0.7674  0.4144 -0.3079
14185TIP3    H163970   2.606   3.887  15.342 -1.8231 -1.2974  0.3996
14185TIP3    H263971   2.491   3.890  15.440 -1.0262  1.7195  1.3506
14186TIP3   OH263972   3.357   4.216   2.220  0.0890 -0.1930 -0.3333
14186TIP3    H163973   3.326   4.200   2.309 -0.6406 -1.4391 -0.7823
14186TIP3    H263974   3.405   4.137   2.197  2.0833  0.9678 -0.3241
14187TIP3   OH263975   4.649   0.186  13.981 -0.3141  0.2699  0.1796
14187TIP3    H163976   4.604   0.123  13.926 -0.0822 -0.1195  0.4310
14187TIP3    H263977   4.579   0.231  14.029 -0.3811 -1.6009  1.9517
14188TIP3   OH263978   0.627   2.271   5.381 -0.1931 -0.0992 -0.3981
14188TIP3    H163979   0.647   2.291   5.290  0.0979 -0.7928 -0.4925
14188TIP3    H263980   0.536   2.300   5.393  0.3574  1.7741 -0.3596
14189TIP3   OH263981   3.515   2.722   0.946 -0.4174  0.5320 -0.0343
14189TIP3    H163982   3.513   2.769   1.029  0.7156  0.6102 -0.0344
14189TIP3    H263983   3.450   2.652   0.956 -0.0075  0.2892  1.0772
14190TIP3   OH263984   3.715   4.869  14.203  0.7746 -0.3746  0.1982
14190TIP3    H163985   3.753   4.788  14.169  2.5918  0.6420 -0.3022
14190TIP3    H263986   3.746   4.873  14.294 -1.6932 -1.6309  1.1761
14191TIP3   OH263987   5.306   3.716   5.469 -0.1591  0.2836  0.1782
14191TIP3    H163988   5.324   3.661   5.393 -0.3432  0.0341  0.3126
14191TIP3    H263989   5.295   3.654   5.541  0.5658  0.5491  0.5169
14192TIP3   OH263990   3.287   3.553  11.325  0.7860  0.6084  0.1312
14192TIP3    H163991   3.278   3.490  11.253 -2.2150 -1.0468  1.7338
14192TIP3    H263992   3.329   3.503  11.395 -1.5343  0.2873  1.3839
14193TIP3   OH263993   0.774   2.834  15.117  0.2792  0.3151  0.2961
14193TIP3    H163994   0.680   2.819  15.118 -0.2939  3.4249  1.1153
14193TIP3    H263995   0.791   2.876  15.033  0.3498  2.6192  1.4042
14194TIP3   OH263996   2.321   3.704   1.621 -0.4441  0.5058 -0.3722
14194TIP3    H163997   2.286   3.752   1.545  0.6608  0.1053 -1.1539
14194TIP3    H263998   2.411   3.684   1.597 -0.1220  0.2422  1.0051
14195TIP3   OH263999   6.205   0.177  12.098  0.3954 -0.4690  0.2469
14195TIP3    H164000   6.243   0.243  12.157  0.7336 -1.0578  0.7100
14195TIP3    H264001   6.134   0.223  12.053  1.7807  0.7228 -0.7957
14196TIP3   OH264002   6.410   6.043   0.772 -0.2379  0.0740 -0.3660
14196TIP3    H164003   6.415   6.103   0.846  1.9578  1.6803 -1.7134
14196TIP3    H264004   6.455   5.964   0.802 -0.9010  0.0320  0.5623
14197TIP3   OH264005   4.040   4.494  14.652  0.2848 -0.1504  0.6532
14197TIP3    H164006   4.057   4.586  14.629  2.6628 -0.1000  2.2028
14197TIP3    H264007   4.118   4.467  14.700 -0.4229 -2.9802  0.3726
14198TIP3   OH264008   2.747   2.942  15.802  0.4671  0.2350 -0.2093
14198TIP3    H164009   2.677   2.880  15.783  0.2933  0.2988  0.2155
14198TIP3    H264010   2.824   2.887  15.817  0.6421  0.1893 -1.2095
14199TIP3   OH264011   2.767   4.400   6.160 -0.2289  0.1180 -0.2635
14199TIP3    H164012   2.824   4.439   6.093  0.8110  1.6823  1.4124
14199TIP3    H264013   2.690   4.457   6.162 -0.6065 -0.3746 -0.6366
14200TIP3   OH264014   1.743   2.342   6.521  0.6338 -0.3465 -0.1137
14200TIP3    H164015   1.791   2.288   6.459  0.7189  0.0720 -0.4198
14200TIP3    H264016   1.702   2.409   6.467  0.1294 -0.3940  0.2056
14201TIP3   OH264017   2.655   4.397  11.807 -0.2885  0.0363 -0.1230
14201TIP3    H164018   2.559   4.400  11.809 -0.3321 -0.7238 -0.6311
14201TIP3    H264019   2.675   4.325  11.747  0.6209  1.5498 -1.7496
14202TIP3   OH264020   6.517   5.901   1.045 -0.1635 -0.2322  0.2962
14202TIP3    H164021   6.449   5.955   1.086 -1.0384  0.4574 -1.9330
14202TIP3    H264022   6.492   5.811   1.066 -2.0103 -0.0058 -0.7814
14203TIP3   OH264023   6.203   3.739  17.061  0.8822 -0.1283  0.0003
14203TIP3    H164024   6.272   3.725  16.996  1.4538 -0.9944  0.7702
14203TIP3    H264025   6.204   3.660  17.115  0.1990  0.4328  0.8670
14204TIP3   OH264026   2.104   2.831   2.005  0.1737 -0.2676 -0.5295
14204TIP3    H164027   2.084   2.853   2.096  0.1190  0.4371 -0.7090
14204TIP3    H264028   2.152   2.907   1.972  0.4851 -0.6605 -0.9930
14205TIP3   OH264029   0.341   1.318   0.729 -0.0381 -0.1221  0.0925
14205TIP3    H164030   0.344   1.367   0.646 -1.7134 -0.7031 -0.3573
14205TIP3    H264031   0.370   1.381   0.795  1.2792  0.3721 -0.9140
14206TIP3   OH264032   5.540   1.216   3.068 -0.6105  0.1700 -0.2082
14206TIP3    H164033   5.545   1.160   2.990  1.9690 -1.4315  0.9866
14206TIP3    H264034   5.586   1.296   3.042 -0.6226  0.0421 -0.6412
14207TIP3   OH264035   2.483   1.874  14.448  0.2259 -0.9069  0.2636
14207TIP3    H164036   2.551   1.931  14.410 -0.0938 -0.8325 -0.2020
14207TIP3    H264037   2.427   1.850  14.373 -1.4859  0.7049  0.9547
14208TIP3   OH264038   0.799   6.742   4.301 -0.3656 -0.1620  0.5879
14208TIP3    H164039   0.760   6.685   4.235  0.1303  1.0243 -0.7898
14208TIP3    H264040   0.851   6.805   4.251 -0.1400  0.9284  2.1008
14209TIP3   OH264041   3.165   6.138   0.839  0.0364  0.1764 -0.5172
14209TIP3    H164042   3.085   6.165   0.793 -0.7674 -1.6965 -0.3132
14209TIP3    H264043   3.230   6.127   0.770 -0.0160  1.2063 -0.7458
14210TIP3   OH264044   4.022   5.296   6.005 -0.4667  0.0119  0.4114
14210TIP3    H164045   4.049   5.231   5.940  0.7040 -1.7643  2.5699
14210TIP3    H264046   3.944   5.259   6.046 -0.9461  0.9127  0.3423
14211TIP3   OH264047   6.717   0.881  13.107  0.0602 -0.7350  0.3751
14211TIP3    H164048   6.651   0.849  13.169 -1.2634  0.5355 -0.3101
14211TIP3    H264049   6.761   0.953  13.153  1.2744 -1.8334  0.9766
14212TIP3   OH264050   5.008   2.995  13.882 -0.1197  0.1077 -0.2517
14212TIP3    H164051   5.072   3.066  13.890 -0.1126  0.2998 -1.6088
14212TIP3    H264052   5.000   2.981  13.787  0.4045 -2.2077 -0.0023
14213TIP3   OH264053   1.728   0.460  12.278  0.1262  0.1736 -0.3739
14213TIP3    H164054   1.790   0.450  12.206 -0.7454  1.4500 -1.3450
14213TIP3    H264055   1.679   0.378  12.280  2.3059 -1.1767  0.9197
14214TIP3   OH264056   3.023   0.736  11.203 -0.0213 -0.1139  0.5950
14214TIP3    H164057   2.956   0.766  11.143 -0.5741  2.1758  2.2234
14214TIP3    H264058   3.099   0.790  11.184  0.2080 -0.2399  1.1244
14215TIP3   OH264059   3.488   5.203   5.993  0.1733  0.1979 -0.1721
14215TIP3    H164060   3.530   5.118   5.976  0.1709 -0.0530  0.9974
14215TIP3    H264061   3.530   5.235   6.073 -0.4966  0.8535 -0.0703
14216TIP3   OH264062   1.789   4.188  13.228  0.4614 -0.5299 -0.0043
14216TIP3    H164063   1.811   4.101  13.261  1.7272  0.0903  0.8758
14216TIP3    H264064   1.857   4.208  13.164 -1.1362 -1.0971 -1.9880
14217TIP3   OH264065   4.890   4.683  13.729 -0.8501  0.6136 -0.2205
14217TIP3    H164066   4.883   4.588  13.728  0.6157  0.4874 -1.3677
14217TIP3    H264067   4.877   4.707  13.821  0.6391 -0.8681  0.4167
14218TIP3   OH264068   6.355   1.086   2.213  0.4977 -0.1806 -0.2705
14218TIP3    H164069   6.416   1.030   2.260  2.7506  1.2896 -1.2558
14218TIP3    H264070   6.365   1.061   2.121  0.3396  0.7249 -0.5462
14219TIP3   OH264071   2.386   3.892   5.321  0.0049 -0.2256 -0.3112
14219TIP3    H164072   2.429   3.936   5.394 -1.1272  0.9880 -0.3299
14219TIP3    H264073   2.456   3.878   5.257  0.2060  3.2260 -1.0704
14220TIP3   OH264074   0.542   2.553   0.814  0.3011  0.0442  0.3574
14220TIP3    H164075   0.584   2.473   0.784 -0.0718  0.2218 -0.6985
14220TIP3    H264076   0.500   2.589   0.735 -1.7598 -0.0850  1.3215
14221TIP3   OH264077   0.633   4.300  16.469  0.1879 -0.4066 -0.1053
14221TIP3    H164078   0.636   4.373  16.407 -3.3015  0.3803  0.4939
14221TIP3    H264079   0.593   4.228  16.419 -1.6225 -0.1056  0.8331
14222TIP3   OH264080   1.687   3.110  14.397  0.7034 -0.1467 -0.4777
14222TIP3    H164081   1.705   3.203  14.414  0.4762 -0.1853 -0.0141
14222TIP3    H264082   1.622   3.111  14.327 -0.8034  0.1109  0.8657
14223TIP3   OH264083   4.264   5.207  13.337  0.2121  0.3057 -0.0323
14223TIP3    H164084   4.327   5.137  13.356  2.5893  2.4852  0.5854
14223TIP3    H264085   4.292   5.242  13.252 -1.9152 -0.4244 -1.1001
14224TIP3   OH264086   2.124   3.337  16.465 -0.0061 -0.1260 -0.4015
14224TIP3    H164087   2.180   3.414  16.468  2.5228 -1.8381 -0.4634
14224TIP3    H264088   2.102   3.320  16.557  0.0727  0.2197 -0.3178
14225TIP3   OH264089   5.458   5.436  16.218  0.4466 -0.1515 -0.7121
14225TIP3    H164090   5.546   5.400  16.234 -0.4373 -1.3879  1.8716
14225TIP3    H264091   5.398   5.368  16.248 -1.4084  1.0951 -1.4028
14226TIP3   OH264092   5.224   1.122   1.677  0.5154  0.2968  0.6518
14226TIP3    H164093   5.178   1.158   1.601 -0.1146 -1.2056  0.2761
14226TIP3    H264094   5.268   1.197   1.716  2.5152  0.8474 -2.3066
14227TIP3   OH264095   3.372   0.519   0.345 -0.2120  0.5477 -0.1652
14227TIP3    H164096   3.467   0.515   0.349 -0.2911 -2.5211  0.4665
14227TIP3    H264097   3.350   0.604   0.384  2.2028  1.0709  0.2097
14228TIP3   OH264098   6.490   1.740  11.711  0.4854  0.5843 -0.0200
14228TIP3    H164099   6.451   1.791  11.640 -0.2212  1.4917  0.9868
14228TIP3    H264100   6.419   1.683  11.741  1.4624 -1.6266 -1.6148
14229TIP3   OH264101   4.464   5.893  12.454  0.6161  0.0615  0.0205
14229TIP3    H164102   4.525   5.925  12.388  0.3678 -0.0650 -0.2728
14229TIP3    H264103   4.385   5.946  12.441 -1.1756 -2.9542 -2.8810
14230TIP3   OH264104   6.610   1.025   1.329  0.1074 -0.4343 -0.1432
14230TIP3    H164105   6.549   1.092   1.359 -0.5753 -0.8991 -0.4581
14230TIP3    H264106   6.556   0.947   1.316  0.6144 -0.6294 -1.2215
14231TIP3   OH264107   6.380   2.808   2.358 -0.0922 -0.2850  0.0031
14231TIP3    H164108   6.300   2.762   2.384  0.4478 -0.3247  1.6695
14231TIP3    H264109   6.355   2.900   2.356  0.1282 -0.1562  1.8658
14232TIP3   OH264110   6.478   4.982   4.025  0.5322  0.4725 -0.7357
14232TIP3    H164111   6.543   5.043   4.061  1.2083 -0.4254 -0.3936
14232TIP3    H264112   6.499   4.898   4.066 -1.5262  0.3714  0.2107
14233TIP3   OH264113   5.956   4.557  12.421  0.0835  0.0120 -0.6457
14233TIP3    H164114   5.948   4.473  12.376 -0.0793 -0.4064  0.1542
14233TIP3    H264115   5.866   4.579  12.447  0.2714 -0.1348  0.1520
14234TIP3   OH264116   0.748   2.685   6.740  0.0307  0.5596  0.3252
14234TIP3    H164117   0.779   2.711   6.653  0.6092  0.2034  0.4200
14234TIP3    H264118   0.776   2.756   6.798  2.1797 -0.4869  0.6968
14235TIP3   OH264119   5.358   6.304  12.867  0.7185 -0.0923 -0.4372
14235TIP3    H164120   5.271   6.277  12.838  1.4081 -1.1123 -1.6818
14235TIP3    H264121   5.354   6.399  12.870 -0.5812 -0.1454  0.0028
14236TIP3   OH264122   3.963   1.014  11.650 -0.0506  0.3678  0.2562
14236TIP3    H164123   3.907   1.027  11.726 -2.1701  0.1026 -1.1855
14236TIP3    H264124   3.914   0.955  11.594  1.3048  0.8081 -1.4776
14237TIP3   OH264125   0.649   0.829  11.099 -0.3768 -0.1049  0.4492
14237TIP3    H164126   0.718   0.864  11.042 -1.6415  0.0002 -1.0668
14237TIP3    H264127   0.632   0.741  11.066  0.7508 -1.1387  2.4250
14238TIP3   OH264128   3.469   5.119   1.718  0.3594 -0.4443  0.1678
14238TIP3    H164129   3.416   5.185   1.672 -0.5182 -2.0150 -1.2455
14238TIP3    H264130   3.482   5.050   1.652  2.0211 -1.2684  1.2954
14239TIP3   OH264131   4.108   3.303  15.177  0.1855  0.2745  0.3093
14239TIP3    H164132   4.133   3.287  15.267  1.8718  1.4016  0.0840
14239TIP3    H264133   4.176   3.260  15.125 -0.6153 -0.1290 -0.4385
14240TIP3   OH264134   1.906   4.571   2.162  0.1797  0.2149 -0.5628
14240TIP3    H164135   1.988   4.613   2.137  0.5775  0.0986  0.5184
14240TIP3    H264136   1.928   4.519   2.239 -0.8573 -0.0054 -0.4054
14241TIP3   OH264137   1.905   1.426   0.056 -0.0215 -0.4451 -0.1534
14241TIP3    H164138   1.937   1.486  -0.012 -2.5924 -0.4446 -1.5035
14241TIP3    H264139   1.878   1.348   0.008  0.0021 -1.2917  1.1560
14242TIP3   OH264140   0.993   3.773   1.625 -0.3235  0.0106  0.3566
14242TIP3    H164141   1.002   3.868   1.638 -0.1295 -0.0991  1.0609
14242TIP3    H264142   1.080   3.738   1.641  0.7480  0.0958 -3.9639
14243TIP3   OH264143   1.269   6.357  13.204 -0.3565 -0.3685  0.0851
14243TIP3    H164144   1.308   6.297  13.140  0.2894  1.7410 -1.6158
14243TIP3    H264145   1.248   6.435  13.154  1.2607  1.8747  2.6426
14244TIP3   OH264146   1.083   5.785   1.492  0.4117  0.6036  0.6728
14244TIP3    H164147   1.121   5.858   1.445  1.2177  0.4154  1.0218
14244TIP3    H264148   1.130   5.708   1.461 -1.7421 -0.0884 -1.1728
14245TIP3   OH264149   4.040   4.242  11.464  1.2274 -0.1184  0.4442
14245TIP3    H164150   4.119   4.200  11.430 -0.0417 -2.5973  0.3520
14245TIP3    H264151   4.023   4.198  11.547 -0.4755 -0.1852  0.0882
14246TIP3   OH264152   1.647   4.548   2.103 -0.2865 -0.3655 -0.1285
14246TIP3    H164153   1.636   4.463   2.060  0.7616 -0.4821 -0.2064
14246TIP3    H264154   1.742   4.559   2.110 -0.1909  2.1009 -2.8234
14247TIP3   OH264155   0.538   5.818   4.032 -0.4745  0.4309 -0.1258
14247TIP3    H164156   0.510   5.892   4.086 -0.4017 -0.6974  1.5443
14247TIP3    H264157   0.527   5.741   4.088 -2.9473 -1.2079 -2.5775
14248TIP3   OH264158   4.021   2.476   1.866 -0.2984 -0.2864 -0.2565
14248TIP3    H164159   3.947   2.437   1.819  0.0973 -2.0782  0.5195
14248TIP3    H264160   4.001   2.461   1.958  0.8730 -0.4758 -0.0192
14249TIP3   OH264161   3.120   1.092  11.548  0.0332 -0.1364  0.0729
14249TIP3    H164162   3.140   1.109  11.456  2.3843 -1.2995  0.3022
14249TIP3    H264163   3.145   1.001  11.562 -0.7538 -0.1406  1.7639
14250TIP3   OH264164   5.949   0.178   4.371  0.2664  0.3261 -0.1204
14250TIP3    H164165   5.928   0.182   4.277  1.2672 -2.5223 -0.5639
14250TIP3    H264166   6.040   0.206   4.376 -0.1207  1.5960  0.2113
14251TIP3   OH264167   0.185   0.170  11.295 -0.8184 -0.6711 -0.1129
14251TIP3    H164168   0.192   0.184  11.389  0.2969 -0.1728 -0.2551
14251TIP3    H264169   0.092   0.184  11.275 -0.5609  2.4561  0.4226
14252TIP3   OH264170   4.829   5.825  12.558 -0.4224 -0.5017 -0.7317
14252TIP3    H164171   4.773   5.815  12.481 -2.4105 -1.2873  0.7276
14252TIP3    H264172   4.839   5.736  12.592 -1.0396  0.0142  0.8782
14253TIP3   OH264173   2.748   3.018   0.710 -0.0593  0.1183  0.2131
14253TIP3    H164174   2.737   3.110   0.687 -0.4222  0.1012  0.3064
14253TIP3    H264175   2.676   3.000   0.770 -0.7071 -0.5459 -0.7461
14254TIP3   OH264176   1.192   3.970  12.254  0.7948  0.2375 -0.1745
14254TIP3    H164177   1.128   3.900  12.269  1.3536 -0.6594 -1.7748
14254TIP3    H264178   1.193   4.019  12.336 -2.5686  0.8110 -0.3506
14255TIP3   OH264179   6.503   2.055  15.138 -0.3048  0.7435  0.2525
14255TIP3    H164180   6.412   2.084  15.128 -0.3609  0.2224 -0.8247
14255TIP3    H264181   6.539   2.058  15.049  0.5436  0.3187  0.5741
14256TIP3   OH264182   3.578   6.246   4.983  0.5382  0.4019  0.1736
14256TIP3    H164183   3.485   6.239   4.961  0.4606 -0.4603  0.6995
14256TIP3    H264184   3.608   6.155   4.990  0.7392  0.5952  2.7342
14257TIP3   OH264185   4.734   2.908   0.317  0.8357  0.2444  0.0107
14257TIP3    H164186   4.782   2.864   0.388  0.4218  0.3180  0.3399
14257TIP3    H264187   4.803   2.945   0.261  1.2709 -2.3549 -1.2960
14258TIP3   OH264188   1.455   1.581   6.748 -0.7227  0.0684  0.4818
14258TIP3    H164189   1.423   1.508   6.695 -0.1808 -0.1948  0.5158
14258TIP3    H264190   1.500   1.638   6.687  3.2626 -2.0655  1.0887
14259TIP3   OH264191   2.743   5.074   5.869  0.2750 -0.1967  0.1056
14259TIP3    H164192   2.665   5.021   5.853 -0.4347  0.5057  1.1066
14259TIP3    H264193   2.737   5.099   5.962  2.0128 -0.6298  0.3844
14260TIP3   OH264194   3.558   1.380  15.903 -0.2597  0.0490 -0.3411
14260TIP3    H164195   3.514   1.455  15.945 -0.2911 -0.8653  1.3381
14260TIP3    H264196   3.489   1.315  15.893  0.6265 -1.4998  2.5554
14261TIP3   OH264197   0.263   0.078  10.804 -0.2955 -0.2007  0.1441
14261TIP3    H164198   0.355   0.059  10.823 -0.2128 -0.2069 -0.2691
14261TIP3    H264199   0.266   0.147  10.738 -0.5841  0.6453  0.9835
14262TIP3   OH264200   4.604   1.512  12.371 -0.0389  0.1608  0.3635
14262TIP3    H164201   4.567   1.530  12.284  1.0842  0.8548  0.0046
14262TIP3    H264202   4.609   1.416  12.374  2.2895  0.1312 -1.4379
14263TIP3   OH264203   3.319   1.124   2.130  0.1104  0.2587 -0.0880
14263TIP3    H164204   3.299   1.155   2.219 -1.9406  0.9673 -0.7433
14263TIP3    H264205   3.303   1.200   2.074  3.4031  0.4842 -0.9642
14264TIP3   OH264206   1.785   0.574  10.269  0.2637  0.1879  0.0461
14264TIP3    H164207   1.723   0.591  10.198 -1.2979 -0.3313  1.2453
14264TIP3    H264208   1.802   0.480  10.263 -0.4877 -0.0088  0.8161
14265TIP3   OH264209   5.068   6.272  11.684 -0.4386 -0.0483  0.5847
14265TIP3    H164210   5.148   6.221  11.698 -0.8584 -0.7158  0.6003
14265TIP3    H264211   5.051   6.312  11.769 -0.6870 -0.7484  0.8768
14266TIP3   OH264212   3.202   0.830  11.580 -0.4692 -0.2557 -0.6775
14266TIP3    H164213   3.269   0.830  11.512  0.0035  0.9677 -0.2416
14266TIP3    H264214   3.120   0.844  11.532 -0.2164 -0.0131 -1.0470
14267TIP3   OH264215   2.656   6.288   1.563 -0.3198  0.0711 -0.0133
14267TIP3    H164216   2.646   6.368   1.615 -2.8768 -1.2594  1.7512
14267TIP3    H264217   2.738   6.250   1.595 -0.4312  0.6765  1.0421
14268TIP3   OH264218   2.498   3.881   2.864  0.0601 -0.0243 -0.1386
14268TIP3    H164219   2.524   3.951   2.804 -2.3148 -0.2704 -1.5871
14268TIP3    H264220   2.417   3.913   2.904  0.3281 -0.8928  1.1491
14269TIP3   OH264221   1.687   2.677  13.126 -0.3187  0.4648 -0.0273
14269TIP3    H164222   1.707   2.690  13.033  0.4398  0.2873  0.1003
14269TIP3    H264223   1.773   2.678  13.168 -0.4966 -1.2571  0.4478
14270TIP3   OH264224   0.021   0.690   2.938  0.1429  0.1936 -0.0825
14270TIP3    H164225   0.095   0.717   2.884  1.0867 -2.3466 -0.2134
14270TIP3    H264226  -0.047   0.667   2.875  0.1752  0.0760 -0.0751
14271TIP3   OH264227   5.486   2.855   3.165  0.5674 -0.1815 -0.4655
14271TIP3    H164228   5.434   2.856   3.085  1.3454 -0.0204 -0.9798
14271TIP3    H264229   5.506   2.762   3.179  3.3906  0.0020 -2.4601
14272TIP3   OH264230   4.273   4.030  12.575 -0.1773 -0.0735 -0.0813
14272TIP3    H164231   4.264   4.030  12.479 -0.8791  0.7735 -0.0311
14272TIP3    H264232   4.187   4.003  12.607  0.3210 -1.2661  0.3153
14273TIP3   OH264233   2.541   3.141  11.138  0.1449  0.2628 -0.0543
14273TIP3    H164234   2.463   3.171  11.092  0.8477  1.2309 -0.6522
14273TIP3    H264235   2.543   3.046  11.123 -0.7834  0.2673 -0.2197
14274TIP3   OH264236   2.528   2.236  11.332 -0.1840 -0.0151  0.2258
14274TIP3    H164237   2.536   2.194  11.246 -1.3007  1.3055 -0.5537
14274TIP3    H264238   2.587   2.312  11.327  0.1995 -0.2640  0.8564
14275TIP3   OH264239   3.520   4.328  15.567  0.4924  0.3440  0.2689
14275TIP3    H164240   3.471   4.390  15.621  0.4759  1.2702 -0.7563
14275TIP3    H264241   3.595   4.303  15.620  0.4132  1.1288  0.7710
14276TIP3   OH264242   3.925   0.072   1.272  0.3649 -0.3171 -0.2534
14276TIP3    H164243   3.847   0.064   1.327  0.3908 -1.7214 -0.3655
14276TIP3    H264244   3.996   0.034   1.325  0.2372 -2.4544 -1.4918
14277TIP3   OH264245   4.519   6.218  11.588 -0.2755 -0.3366  0.2204
14277TIP3    H164246   4.611   6.225  11.614 -0.2432  1.8216 -0.2288
14277TIP3    H264247   4.518   6.153  11.518  0.5825 -1.7464  1.4778
14278TIP3   OH264248   6.302   6.451  11.194 -0.4053  0.7851 -0.2428
14278TIP3    H164249   6.214   6.454  11.231 -0.2419 -0.6584  0.3032
14278TIP3    H264250   6.290   6.478  11.102 -1.1159  2.3456  0.2750
14279TIP3   OH264251   4.842   4.014   0.456  0.2521 -1.1954  0.8207
14279TIP3    H164252   4.881   3.994   0.371  3.4931  0.8282  1.6445
14279TIP3    H264253   4.750   4.030   0.438  0.9757 -0.0722 -2.4976
14280TIP3   OH264254   0.137   2.597   1.431 -0.0665  0.6232  0.4231
14280TIP3    H164255   0.167   2.611   1.520  2.5781 -2.6992  0.2482
14280TIP3    H264256   0.208   2.629   1.376 -1.1124  1.4813 -0.4770
14281TIP3   OH264257   0.335   5.709   3.138  0.0455  0.3732 -0.1721
14281TIP3    H164258   0.406   5.753   3.186  0.5682  0.6412 -1.1538
14281TIP3    H264259   0.354   5.728   3.046 -0.1458 -1.2817 -0.5835
14282TIP3   OH264260   2.988   3.949  15.936 -0.3298  0.4904 -0.1570
14282TIP3    H164261   3.008   3.999  15.856 -0.3062  0.0353 -0.4369
14282TIP3    H264262   2.980   3.858  15.906 -0.4716  0.3397  0.3359
14283TIP3   OH264263   1.806   6.343  12.518 -0.9486  0.0315 -0.3708
14283TIP3    H164264   1.890   6.384  12.540 -0.8693 -0.1278 -0.3722
14283TIP3    H264265   1.827   6.284  12.445 -1.3124  0.9717 -1.2571
14284TIP3   OH264266   0.925   5.673  16.393 -0.2297 -0.5343 -0.1396
14284TIP3    H164267   0.831   5.682  16.406 -0.0608  0.5421  0.4584
14284TIP3    H264268   0.940   5.702  16.303 -0.6592 -2.3594 -0.8471
14285TIP3   OH264269   0.732   4.079   4.152  0.2262 -0.8602  0.5132
14285TIP3    H164270   0.734   3.990   4.117 -0.7257 -0.3108 -1.0567
14285TIP3    H264271   0.638   4.098   4.161  0.4296 -0.1911  1.3565
14286TIP3   OH264272   5.115   0.927  16.501  0.0357 -0.1461 -0.0930
14286TIP3    H164273   5.050   0.956  16.438 -1.2108 -1.5415  0.4723
14286TIP3    H264274   5.080   0.956  16.586 -0.9158 -2.5490  0.4134
14287TIP3   OH264275   3.297   1.395  16.617  0.5317 -0.2764 -0.1163
14287TIP3    H164276   3.387   1.422  16.630  0.3874 -0.0265  0.3918
14287TIP3    H264277   3.258   1.397  16.705 -0.0774  0.0420 -0.3857
14288TIP3   OH264278   2.630   3.875   5.513 -0.0295 -0.1723  0.6786
14288TIP3    H164279   2.723   3.894   5.503 -0.2750  0.7832  0.0767
14288TIP3    H264280   2.589   3.961   5.520 -1.1351 -0.4389 -1.5785
14289TIP3   OH264281   2.120   3.514   5.609 -0.0917 -0.2496 -0.8539
14289TIP3    H164282   2.130   3.438   5.666 -0.8662 -0.6452 -1.2274
14289TIP3    H264283   2.026   3.531   5.608  0.0053  0.2967 -1.3203
14290TIP3   OH264284   5.645   4.378   4.883 -0.5972 -0.3376  0.4321
14290TIP3    H164285   5.661   4.391   4.976 -0.6662  1.4234  0.2222
14290TIP3    H264286   5.608   4.460   4.853  0.9933 -0.2368 -1.4956
14291TIP3   OH264287   1.633   1.576   3.240  0.0931  0.0583  0.3666
14291TIP3    H164288   1.622   1.565   3.146 -0.5142 -0.2994  0.4705
14291TIP3    H264289   1.562   1.635   3.265  0.2657  0.1699  0.5927
14292TIP3   OH264290   6.406   4.685  15.938  0.3086 -0.2513 -0.4344
14292TIP3    H164291   6.385   4.762  15.990  0.7522 -0.0007 -0.6133
14292TIP3    H264292   6.335   4.679  15.874  0.5101  0.2893 -0.7208
14293TIP3   OH264293   3.917   5.552   1.356  0.2125  0.4090  0.1125
14293TIP3    H164294   3.885   5.512   1.437  0.9131  2.4359  1.4615
14293TIP3    H264295   3.995   5.600   1.382  1.2405  0.0543 -2.0576
14294TIP3   OH264296   1.944   2.902  13.168  0.3282  0.4261  0.2047
14294TIP3    H164297   2.017   2.854  13.206  0.8899  0.0367 -1.2848
14294TIP3    H264298   1.962   2.994  13.188 -0.2274  0.1400  2.1936
14295TIP3   OH264299   2.497   5.033  11.210  0.2564  0.1620 -0.3473
14295TIP3    H164300   2.565   5.002  11.150 -1.8271 -1.4541 -2.0474
14295TIP3    H264301   2.459   5.109  11.166 -0.3778 -0.2085 -0.4639
14296TIP3   OH264302   0.003   6.389  13.508  0.2293 -0.3857  0.1982
14296TIP3    H164303  -0.052   6.315  13.485 -0.0410 -0.0652 -0.1961
14296TIP3    H264304   0.085   6.375  13.459  0.5452 -0.9087  0.8542
14297TIP3   OH264305   4.765   4.376   3.776  0.0321  0.1763  0.5511
14297TIP3    H164306   4.858   4.358   3.768 -0.0353  0.2498 -0.6713
14297TIP3    H264307   4.736   4.393   3.686 -1.0427  0.7220  0.9737
14298TIP3   OH264308   2.368   1.736   5.360 -0.1114 -0.5107  0.2749
14298TIP3    H164309   2.414   1.769   5.283 -0.3676 -0.2633  0.2260
14298TIP3    H264310   2.333   1.814   5.403 -2.3629 -0.8103 -0.8673
14299TIP3   OH264311   5.336   3.121  11.711  0.1691  0.4144 -0.7108
14299TIP3    H164312   5.260   3.178  11.694 -0.7506 -0.7620 -0.6370
14299TIP3    H264313   5.341   3.065  11.634 -0.6518 -1.2639  0.4142
14300TIP3   OH264314   3.885   0.322  14.248 -0.2615 -0.3087 -0.7666
14300TIP3    H164315   3.925   0.408  14.260  0.4543 -0.5277 -1.5254
14300TIP3    H264316   3.883   0.285  14.336  0.9874 -0.1852 -0.6647
14301TIP3   OH264317   1.514   5.423   2.885  0.4648  0.0137  0.9001
14301TIP3    H164318   1.529   5.336   2.920  0.1348 -1.6460 -2.7188
14301TIP3    H264319   1.428   5.418   2.843  1.6980  1.0334 -2.0301
14302TIP3   OH264320   0.303   0.587   0.523  0.0662 -0.7930  0.0315
14302TIP3    H164321   0.287   0.609   0.431 -3.1950 -0.9595  0.4548
14302TIP3    H264322   0.312   0.671   0.567  1.2102 -0.7047 -0.3467
14303TIP3   OH264323   5.364   0.684  13.958  0.5098  0.9771  0.2281
14303TIP3    H164324   5.355   0.595  13.924 -0.8011  1.1762  0.0197
14303TIP3    H264325   5.431   0.676  14.026  0.6585 -0.1012 -0.0214
14304TIP3   OH264326   2.783   5.044  12.273 -0.3364  0.4099 -0.3850
14304TIP3    H164327   2.862   5.018  12.226  1.6286  1.5696  2.0063
14304TIP3    H264328   2.793   5.138  12.287 -3.0586  0.9617 -1.4672
14305TIP3   OH264329   4.809   3.989  14.241 -0.2854 -0.5410 -0.9624
14305TIP3    H164330   4.859   3.998  14.159  2.6211 -2.9205  0.3567
14305TIP3    H264331   4.874   3.960  14.305 -2.7227 -0.0631  1.9055
14306TIP3   OH264332   1.284   5.659  15.525  0.5663 -0.5748 -0.0445
14306TIP3    H164333   1.373   5.688  15.504  0.3569  0.5616  0.5730
14306TIP3    H264334   1.231   5.694  15.454  0.1613  1.5202  1.2163
14307TIP3   OH264335   2.321   6.317  15.048 -0.5362  0.3896  0.1164
14307TIP3    H164336   2.277   6.364  15.119 -2.5876 -0.9059 -0.2102
14307TIP3    H264337   2.266   6.334  14.971  1.0570  0.8979 -0.9671
14308TIP3   OH264338   1.014   3.504  14.434  0.2926  0.7904  0.1678
14308TIP3    H164339   1.072   3.553  14.375  1.6291  0.6595  1.3053
14308TIP3    H264340   1.006   3.418  14.393  1.1075  0.7412  0.0808
14309TIP3   OH264341   5.628   2.875  15.352  0.3049 -0.9762 -0.1215
14309TIP3    H164342   5.662   2.952  15.307  0.3826 -0.6272  0.5190
14309TIP3    H264343   5.685   2.864  15.428 -0.1729 -1.1955  0.2174
14310TIP3   OH264344   1.444   0.392  16.657  0.0960 -0.3488 -0.3882
14310TIP3    H164345   1.455   0.297  16.655  1.1720 -0.2488  0.2427
14310TIP3    H264346   1.408   0.413  16.571  0.7084 -1.2259 -0.8762
14311TIP3   OH264347   2.859   0.851   0.631 -0.3420  0.1966 -0.4080
14311TIP3    H164348   2.767   0.867   0.611 -0.4024  1.2210  0.5986
14311TIP3    H264349   2.903   0.934   0.609  0.5422 -0.6297 -1.9325
14312TIP3   OH264350   0.029   3.128   2.675  0.2309  0.1109 -0.7693
14312TIP3    H164351  -0.050   3.082   2.649 -0.0461  0.4900 -0.6078
14312TIP3    H264352   0.015   3.219   2.648 -0.0197  0.5033  0.5637
14313TIP3   OH264353   6.217   1.747  16.485 -0.6187  0.4210  0.0678
14313TIP3    H164354   6.276   1.718  16.554  0.8844  1.3972 -0.7511
14313TIP3    H264355   6.171   1.822  16.523  1.0025  1.6601 -0.2890
14314TIP3   OH264356   4.507   1.303   4.076 -0.0838 -0.5203 -0.2996
14314TIP3    H164357   4.463   1.229   4.032  0.0983 -0.4434 -0.6169
14314TIP3    H264358   4.560   1.262   4.144  0.5619 -0.7465 -0.9257
14315TIP3   OH264359   2.654   4.972  16.661 -0.7458  0.5226  0.1115
14315TIP3    H164360   2.642   5.007  16.573 -1.4298  0.0676  0.0109
14315TIP3    H264361   2.708   5.036  16.706  1.3376 -0.1949 -1.2380
14316TIP3   OH264362   5.803   1.755  13.681 -0.0338 -0.2295 -0.3988
14316TIP3    H164363   5.747   1.787  13.610 -0.7092 -1.8627 -0.6494
14316TIP3    H264364   5.745   1.702  13.736  0.3021  1.6185  1.8672
14317TIP3   OH264365   1.612   4.443  12.406  0.3310  0.7138  0.6422
14317TIP3    H164366   1.686   4.413  12.354  1.3867  2.3241  1.1615
14317TIP3    H264367   1.565   4.362  12.429  1.6937 -0.3004  0.0024
14318TIP3   OH264368   6.697   6.532   1.644 -0.4606 -0.1907 -0.8310
14318TIP3    H164369   6.720   6.612   1.597  0.6741 -0.8882 -1.5163
14318TIP3    H264370   6.768   6.520   1.707 -0.6939 -0.5732 -0.6383
14319TIP3   OH264371   0.759   0.996   4.432 -0.3342  0.2693  0.4369
14319TIP3    H164372   0.840   0.966   4.474 -1.0712 -0.8559  1.1416
14319TIP3    H264373   0.767   0.966   4.341  0.4743  1.0874  0.2216
14320TIP3   OH264374   5.727   2.554  11.598  0.1474 -0.2364  0.1765
14320TIP3    H164375   5.714   2.649  11.596  0.0982 -0.2020  1.6924
14320TIP3    H264376   5.640   2.517  11.581 -0.2608  0.0046  1.6354
14321TIP3   OH264377   5.434   4.034  12.983  0.4126 -0.1958 -0.2015
14321TIP3    H164378   5.516   3.994  13.010  0.2120 -0.5701 -0.1508
14321TIP3    H264379   5.387   4.051  13.065 -0.4509 -1.8720 -0.3249
14322TIP3   OH264380   5.681   0.798  15.278  0.2574 -0.6546  0.0873
14322TIP3    H164381   5.632   0.860  15.224  0.5824 -1.6651 -1.4148
14322TIP3    H264382   5.753   0.850  15.315  0.8275 -0.2156 -1.5581
14323TIP3   OH264383   5.452   4.712   6.437 -0.1696 -0.7615 -0.5971
14323TIP3    H164384   5.389   4.761   6.384  2.7127  1.2587 -2.4198
14323TIP3    H264385   5.491   4.778   6.494  0.8088 -1.8089 -0.0256
14324TIP3   OH264386   6.208   1.802   4.071  1.0774  0.1318 -0.1973
14324TIP3    H164387   6.232   1.773   3.983  2.7133  0.0388  0.2592
14324TIP3    H264388   6.176   1.892   4.059 -1.0713 -0.7010 -1.1887
14325TIP3   OH264389   0.270   2.712   0.582 -0.1384  0.5438  0.6355
14325TIP3    H164390   0.358   2.680   0.563 -1.3212 -2.7317  0.0499
14325TIP3    H264391   0.226   2.716   0.497 -1.5222 -1.2680  1.1952
14326TIP3   OH264392   3.961   2.105   3.178  0.0164 -0.0323  0.5094
14326TIP3    H164393   3.977   2.015   3.208  0.8501 -0.1356 -0.1963
14326TIP3    H264394   3.961   2.157   3.259 -2.0129 -0.8443  1.0891
14327TIP3   OH264395   5.971   6.464   3.532  0.1718 -0.1634 -0.1506
14327TIP3    H164396   6.011   6.414   3.461  2.2645  3.4553 -1.7797
14327TIP3    H264397   5.880   6.433   3.535  0.0858 -0.7849 -4.1892
14328TIP3   OH264398   2.747   6.653  11.908  0.1537  0.2765  0.0843
14328TIP3    H164399   2.687   6.591  11.949 -1.0492  1.4240  0.0981
14328TIP3    H264400   2.827   6.602  11.894 -0.9249 -1.3992 -0.2920
14329TIP3   OH264401   0.744   2.994   3.612  0.5292  0.6277  0.3003
14329TIP3    H164402   0.786   2.950   3.686  0.8715  0.4936  0.0345
14329TIP3    H264403   0.777   3.084   3.616  1.5346  0.3106 -0.4029
14330TIP3   OH264404   3.843   6.747  12.895 -0.3620  0.5458 -0.0529
14330TIP3    H164405   3.769   6.691  12.874 -1.4951  1.3921  1.4170
14330TIP3    H264406   3.805   6.835  12.902  0.9055  1.1093  0.0428
14331TIP3   OH264407   3.998   3.915  11.922 -0.1614 -0.2585 -0.3287
14331TIP3    H164408   3.962   3.920  12.011 -2.4607  5.1699 -1.1368
14331TIP3    H264409   4.093   3.915  11.934 -0.3836  1.1315  2.2207
14332TIP3   OH264410   3.336   0.481  15.583  0.0325  0.5783 -0.3703
14332TIP3    H164411   3.345   0.558  15.639  0.3963  0.4191 -0.2033
14332TIP3    H264412   3.256   0.438  15.614  0.8430 -0.1524  0.8472
14333TIP3   OH264413   4.963   1.029  11.329  0.4252  0.0814 -0.5576
14333TIP3    H164414   5.025   1.064  11.265  2.4451  2.3587  2.3902
14333TIP3    H264415   4.894   1.095  11.336  0.0998 -0.2574 -0.5050
14334TIP3   OH264416   0.534   3.428   1.170  0.2658  0.6954  0.3577
14334TIP3    H164417   0.525   3.524   1.168  0.0209  0.6741  0.3029
14334TIP3    H264418   0.491   3.399   1.090  1.4450  0.6167 -0.2680
14335TIP3   OH264419   3.894   1.846   3.960  0.0829  0.0107  0.1359
14335TIP3    H164420   3.847   1.785   3.904  2.0329 -1.7906  0.3269
14335TIP3    H264421   3.986   1.828   3.943  0.7347  1.2927  1.9569
14336TIP3   OH264422   6.583   0.175  11.821 -0.2246 -0.1129 -1.1931
14336TIP3    H164423   6.599   0.235  11.894 -1.3423  0.2230 -1.2042
14336TIP3    H264424   6.655   0.112  11.825 -0.7096 -0.5881  0.6990
14337TIP3   OH264425   1.815   1.040  16.272 -0.1300 -0.2658 -0.5585
14337TIP3    H164426   1.741   1.068  16.217 -1.3249 -1.1132  0.5578
14337TIP3    H264427   1.775   0.987  16.341  1.2927  0.8780  1.2390
14338TIP3   OH264428   6.508   1.650   0.389 -0.0951  0.1147  0.6596
14338TIP3    H164429   6.508   1.684   0.479 -0.0130 -3.7171  2.2927
14338TIP3    H264430   6.600   1.631   0.371 -0.2206 -0.0051  0.1433
14339TIP3   OH264431   4.533   5.694   2.016  0.5278 -0.4220  0.0609
14339TIP3    H164432   4.569   5.759   2.076 -0.9331  0.9854 -0.5157
14339TIP3    H264433   4.448   5.671   2.053  0.2717 -0.6784 -0.6646
14340TIP3   OH264434   0.535   4.889  15.167 -0.2895 -0.1193 -0.2555
14340TIP3    H164435   0.547   4.963  15.227 -0.5760  0.9423 -1.4629
14340TIP3    H264436   0.606   4.829  15.189  0.3049  0.7810  0.3706
14341TIP3   OH264437   3.575   1.275   1.232  0.2240 -0.4766 -0.1431
14341TIP3    H164438   3.618   1.361   1.239  0.4043 -0.5743 -0.0473
14341TIP3    H264439   3.482   1.295   1.240  0.3546 -0.5533  2.6230
14342TIP3   OH264440   0.944   0.644  14.609  0.3894  0.0622  0.5199
14342TIP3    H164441   0.963   0.698  14.686  3.2315  0.5559 -0.4023
14342TIP3    H264442   1.030   0.623  14.573 -0.7895 -1.7358 -1.4815
14343TIP3   OH264443   0.693   6.274  16.880  0.0467  0.0965  0.0543
14343TIP3    H164444   0.708   6.225  16.961 -0.2710 -0.6751 -0.3530
14343TIP3    H264445   0.718   6.364  16.902 -0.2279 -0.0658  1.0716
14344TIP3   OH264446   1.570   0.067  11.432 -0.1551 -0.4775  0.0574
14344TIP3    H164447   1.644   0.032  11.382  0.1792  0.2700  0.0136
14344TIP3    H264448   1.496   0.011  11.408 -0.1300  0.1472 -1.6780
14345TIP3   OH264449   1.809   4.321  14.230 -0.0417  0.1230 -0.1554
14345TIP3    H164450   1.753   4.370  14.290  1.2568  1.6357 -0.1168
14345TIP3    H264451   1.899   4.343  14.256  0.6097 -1.9289 -0.4541
14346TIP3   OH264452   0.841   4.520   1.448  0.4240  0.4027 -0.3240
14346TIP3    H164453   0.835   4.429   1.419  0.4112  0.0242  0.8082
14346TIP3    H264454   0.821   4.572   1.370  2.3334 -0.5074 -1.4971
14347TIP3   OH264455   3.052   1.597  16.153  0.0879  0.2980  0.3698
14347TIP3    H164456   2.964   1.608  16.117  0.5512  2.7988 -0.1754
14347TIP3    H264457   3.043   1.617  16.246 -0.6556 -3.8717  1.4143
14348TIP3   OH264458   6.549   0.992   5.806  0.3013  0.2262 -0.3933
14348TIP3    H164459   6.479   0.991   5.871  0.8870  0.2134  0.2484
14348TIP3    H264460   6.573   0.900   5.795  0.9272  0.3140  0.1795
14349TIP3   OH264461   1.063   3.134   0.807 -0.2980  0.1453  0.2151
14349TIP3    H164462   1.009   3.182   0.744 -0.0191  0.4714  0.2258
14349TIP3    H264463   1.013   3.053   0.824 -1.4958  1.0632  1.3006
14350TIP3   OH264464   6.475   5.754  10.916 -0.7221 -0.0200 -0.1721
14350TIP3    H164465   6.456   5.696  10.990 -2.2436 -0.1170 -0.6097
14350TIP3    H264466   6.404   5.818  10.917 -0.6552  0.1040 -1.4279
14351TIP3   OH264467   5.046   4.810   0.663 -0.1363 -0.1044 -0.4597
14351TIP3    H164468   4.990   4.888   0.662 -0.6482 -0.4673 -1.0393
14351TIP3    H264469   5.126   4.839   0.706 -0.2415  0.7966 -0.8378
14352TIP3   OH264470   4.044   4.726  16.079  0.8034  0.2108  0.1281
14352TIP3    H164471   4.093   4.705  15.999  0.5102 -0.3882  0.1026
14352TIP3    H264472   4.046   4.645  16.131  2.1672  0.9865  1.3615
14353TIP3   OH264473   2.771   3.408  11.686 -0.1545  0.0889 -0.1955
14353TIP3    H164474   2.835   3.471  11.652 -1.0885  0.7769 -0.7204
14353TIP3    H264475   2.795   3.325  11.645  0.6508  0.2382 -0.0563
14354TIP3   OH264476   1.124   4.693  16.476 -0.2044 -0.4094 -0.0005
14354TIP3    H164477   1.184   4.650  16.415 -1.4232 -1.6310 -0.4062
14354TIP3    H264478   1.047   4.713  16.424 -0.7715 -0.3043  0.8557
14355TIP3   OH264479   1.073   2.965   1.707 -0.3217 -0.2044  0.0288
14355TIP3    H164480   1.022   3.022   1.650  1.1959  2.5501  1.2470
14355TIP3    H264481   1.152   2.945   1.657 -0.2781 -0.1847  0.0899
14356TIP3   OH264482   5.424   5.812  16.215 -0.2642  0.2486 -0.2439
14356TIP3    H164483   5.451   5.890  16.165 -2.6727  0.6598 -1.0488
14356TIP3    H264484   5.347   5.841  16.263  0.0133 -1.1093  1.0687
14357TIP3   OH264485   4.638   1.142  10.968 -0.3027  0.3959 -0.3971
14357TIP3    H164486   4.581   1.219  10.969 -0.2539  0.4322 -0.3888
14357TIP3    H264487   4.600   1.084  10.902 -2.5492 -1.2658  2.1318
14358TIP3   OH264488   1.962   1.599   3.474 -0.3262 -0.0922 -0.0148
14358TIP3    H164489   1.934   1.653   3.547 -0.4759  1.9203 -1.4752
14358TIP3    H264490   2.055   1.616   3.464 -0.0985 -1.0944  0.2733
14359TIP3   OH264491   5.464   5.029  16.991  0.0629 -0.0076 -0.2409
14359TIP3    H164492   5.378   5.023  17.033 -0.3052 -1.1887 -1.1057
14359TIP3    H264493   5.458   5.105  16.933 -1.0354 -1.0659 -1.5953
14360TIP3   OH264494   5.203   6.283   2.486 -0.1834  0.0122 -0.2169
14360TIP3    H164495   5.295   6.310   2.493 -0.0007 -0.8644  1.3842
14360TIP3    H264496   5.200   6.229   2.407  0.6669  0.1073 -0.3230
14361TIP3   OH264497   1.245   1.260   1.857  0.1802  0.5399  0.0082
14361TIP3    H164498   1.279   1.174   1.881  1.1780  0.9788  0.2234
14361TIP3    H264499   1.213   1.298   1.939  3.3484  1.9323  0.7638
14362TIP3   OH264500   5.657   1.352  12.501  0.1525  0.0353  0.0145
14362TIP3    H164501   5.642   1.297  12.425 -0.3195 -1.1040  0.8990
14362TIP3    H264502   5.618   1.303  12.574  2.3201  0.1528  1.3207
14363TIP3   OH264503   6.113   6.487  16.346  0.2890 -0.2835  0.5537
14363TIP3    H164504   6.197   6.457  16.311  0.2335 -1.4074  1.3153
14363TIP3    H264505   6.129   6.577  16.373  0.6028  0.2819 -1.3936
14364TIP3   OH264506   6.533   4.027   3.237 -0.3339  0.2232 -0.0420
14364TIP3    H164507   6.575   3.964   3.178 -0.5373  0.4710 -0.4532
14364TIP3    H264508   6.592   4.103   3.236 -1.4122  1.1138 -1.6672
14365TIP3   OH264509   0.270   4.127  13.653  0.1981 -0.0281  0.1193
14365TIP3    H164510   0.272   4.181  13.573  0.1511  0.9689  0.7747
14365TIP3    H264511   0.315   4.180  13.718 -0.0760 -0.6876  0.8488
14366TIP3   OH264512   3.739   6.348  16.274  0.8260  0.1389 -0.1117
14366TIP3    H164513   3.814   6.316  16.224  0.9307 -0.2340  0.2796
14366TIP3    H264514   3.684   6.392  16.209  1.2751  0.2271 -0.4382
14367TIP3   OH264515   3.245   3.309   1.337  0.2951 -0.0407 -0.0272
14367TIP3    H164516   3.262   3.383   1.279 -0.8958  0.5356  0.3460
14367TIP3    H264517   3.285   3.234   1.292 -0.9516  0.3145 -1.8151
14368TIP3   OH264518   1.761   6.221  12.806  0.0121  0.2906  0.0326
14368TIP3    H164519   1.764   6.250  12.715  0.2815 -0.0933 -0.0844
14368TIP3    H264520   1.820   6.146  12.809 -0.7094 -0.2769  0.3168
14369TIP3   OH264521   0.991   2.639  13.535  0.1718 -0.0371 -0.0734
14369TIP3    H164522   1.025   2.697  13.467 -0.2524 -0.3630 -0.5730
14369TIP3    H264523   0.991   2.552  13.495  2.2163 -0.6650  1.1745
14370TIP3   OH264524   0.888   4.064   4.937 -0.5245 -0.1007 -0.3161
14370TIP3    H164525   0.824   4.011   4.985 -0.1991 -0.1953  0.0137
14370TIP3    H264526   0.909   4.012   4.860 -0.8704 -0.0538 -0.4445
14371TIP3   OH264527   5.200   5.459   0.455 -0.4440 -0.1422 -0.1895
14371TIP3    H164528   5.203   5.389   0.520  1.9708  1.0428  1.1096
14371TIP3    H264529   5.110   5.457   0.421 -2.1292 -0.3314  3.7616
14372TIP3   OH264530   1.470   0.547   3.680  0.0978  0.0022 -0.3028
14372TIP3    H164531   1.381   0.558   3.646  0.4261 -0.1999 -1.2405
14372TIP3    H264532   1.503   0.469   3.635  1.5181  1.2976 -1.5927
14373TIP3   OH264533   2.028   4.023   2.665 -0.1433  0.2787 -0.1357
14373TIP3    H164534   2.003   3.977   2.745  1.6709 -1.5308 -0.5212
14373TIP3    H264535   2.026   3.956   2.597  1.4406  1.0216 -0.9694
14374TIP3   OH264536   4.016   5.280  11.194 -0.2747 -0.3177  0.4950
14374TIP3    H164537   4.044   5.270  11.103  1.1073 -0.5075  0.9092
14374TIP3    H264538   4.072   5.350  11.229 -1.1397  0.1061  1.0636
14375TIP3   OH264539   2.195   1.991   4.176 -0.4284  0.2337 -0.1585
14375TIP3    H164540   2.168   1.955   4.261  0.0097  0.6359  0.1556
14375TIP3    H264541   2.204   1.914   4.120 -3.5485  0.1436 -0.7083
14376TIP3   OH264542   0.958   4.696   1.828  0.8979  0.1979  0.1323
14376TIP3    H164543   1.046   4.724   1.801  0.0512  0.7036 -2.3045
14376TIP3    H264544   0.899   4.755   1.781 -0.7896 -0.4288  1.3733
14377TIP3   OH264545   0.956   0.051   5.863  0.1370 -0.2374 -0.5277
14377TIP3    H164546   1.025  -0.009   5.890 -0.3406  0.1089  1.6131
14377TIP3    H264547   0.929   0.020   5.776  2.4422 -0.8133 -1.1001
14378TIP3   OH264548   2.994   6.268   4.212  0.1577  0.0352 -0.0567
14378TIP3    H164549   2.981   6.173   4.203 -0.6783 -0.1799  2.4691
14378TIP3    H264550   3.000   6.282   4.307 -0.6995  2.6405 -0.3095
14379TIP3   OH264551   5.438   5.105  15.333 -0.5083 -0.2943 -0.1822
14379TIP3    H164552   5.490   5.151  15.266 -0.8824 -0.8465 -0.8636
14379TIP3    H264553   5.489   5.026  15.352  0.6024  0.7956  1.6642
14380TIP3   OH264554   3.766   1.554   2.122 -0.0880  0.8690  0.1957
14380TIP3    H164555   3.774   1.563   2.027  0.8866  1.5636  0.3239
14380TIP3    H264556   3.703   1.622   2.147  1.4165  2.3100  0.2795
14381TIP3   OH264557   1.128   1.078  12.583  0.2901 -0.5845 -0.0824
14381TIP3    H164558   1.185   1.155  12.584 -0.6586  0.1302  0.7343
14381TIP3    H264559   1.161   1.023  12.655  0.2874 -0.4369  0.0305
14382TIP3   OH264560   0.630   6.730  16.927  0.2479  0.1298 -0.0227
14382TIP3    H164561   0.663   6.800  16.871 -0.3084  0.6859  0.3407
14382TIP3    H264562   0.678   6.652  16.898 -1.8100 -0.1958 -3.0345
14383TIP3   OH264563   2.909   4.702  15.996  0.3312 -0.0264  0.2893
14383TIP3    H164564   2.961   4.751  16.059  0.3995  0.9230 -0.4955
14383TIP3    H264565   2.931   4.740  15.911 -0.0631 -1.0222 -0.2732
14384TIP3   OH264566   1.218   1.555  14.467  0.6327 -0.1780  0.3067
14384TIP3    H164567   1.217   1.565  14.371  1.3695 -0.4329  0.2681
14384TIP3    H264568   1.255   1.638  14.499  0.7389 -0.2401  0.3457
14385TIP3   OH264569   5.309   2.831  14.434  0.4917  0.5779  0.2078
14385TIP3    H164570   5.248   2.819  14.361 -0.5433  0.7575  1.0195
14385TIP3    H264571   5.382   2.773  14.413  0.9263  1.7082 -1.7065
14386TIP3   OH264572   6.350   3.181  17.266  0.3469  0.7575 -0.3471
14386TIP3    H164573   6.395   3.265  17.275 -1.6485  1.9357 -0.6336
14386TIP3    H264574   6.409   3.126  17.215  0.9709  2.5861 -1.6704
14387TIP3   OH264575   4.976   4.992  15.002  0.0576 -0.1493  0.5360
14387TIP3    H164576   5.034   5.006  15.077  0.1929  0.6665  0.2966
14387TIP3    H264577   5.027   4.938  14.942  0.0926 -0.4850  0.8611
14388TIP3   OH264578   3.947   0.256   0.296 -0.5109  0.4419 -0.2709
14388TIP3    H164579   3.930   0.201   0.372  0.4906 -0.9263 -0.9811
14388TIP3    H264580   3.987   0.336   0.331  1.2407 -0.7530  0.5661
14389TIP3   OH264581   6.080   3.079  16.751 -0.4916  0.5979  0.6025
14389TIP3    H164582   5.993   3.040  16.759 -1.3753  2.2880 -0.2366
14389TIP3    H264583   6.128   3.019  16.694 -0.4113 -1.3688  2.6059
14390TIP3   OH264584   5.923   3.939  15.601  0.5497 -0.1875  0.2270
14390TIP3    H164585   5.990   3.874  15.580  0.6556 -0.6152  1.7654
14390TIP3    H264586   5.949   3.973  15.687 -1.3348 -0.5663  0.9909
14391TIP3   OH264587   2.262   0.554  15.068  0.0665  0.5684  0.0779
14391TIP3    H164588   2.330   0.582  15.129  0.5295 -1.3450  0.5079
14391TIP3    H264589   2.275   0.459  15.059 -0.9713  0.5440 -1.7869
14392TIP3   OH264590   1.559   5.198  14.515  0.0581  0.0266  0.3969
14392TIP3    H164591   1.487   5.231  14.569 -0.0569 -1.9724  1.5620
14392TIP3    H264592   1.519   5.133  14.458  0.5240  0.7578 -0.8051
14393TIP3   OH264593   2.713   0.113   0.458  0.2285 -0.1607 -0.2903
14393TIP3    H164594   2.797   0.141   0.494 -0.1734  0.8502 -0.1019
14393TIP3    H264595   2.732   0.031   0.414  1.5085  0.5098 -1.0464
14394TIP3   OH264596   3.710   3.379   0.835  0.6929  0.7192 -0.5481
14394TIP3    H164597   3.755   3.295   0.839 -0.0555  0.3853  1.3790
14394TIP3    H264598   3.642   3.375   0.901  1.3071  3.2306  0.3777
14395TIP3   OH264599   0.972   0.351  10.530 -0.0623 -0.0329  0.0359
14395TIP3    H164600   1.007   0.364  10.442 -2.6319 -0.1709 -1.1005
14395TIP3    H264601   0.973   0.439  10.568  0.5845  0.1225 -0.3182
14396TIP3   OH264602   0.987   4.797   0.637  0.9252 -0.0306  0.1259
14396TIP3    H164603   0.906   4.768   0.595  1.3612  1.6371 -2.0298
14396TIP3    H264604   0.961   4.871   0.692  0.8808  0.0960 -0.0647
14397TIP3   OH264605   3.005   4.121  12.170  0.4668 -0.3412  0.3200
14397TIP3    H164606   2.916   4.156  12.163  0.3616 -0.6974 -0.1564
14397TIP3    H264607   2.994   4.026  12.169  0.8615 -0.3879  0.1533
14398TIP3   OH264608   0.903   0.246   0.561  0.0599  0.2398 -0.2991
14398TIP3    H164609   0.862   0.331   0.578 -0.1412  0.1436 -0.2944
14398TIP3    H264610   0.846   0.204   0.497  0.3732  0.2675 -0.5992
14399TIP3   OH264611   5.908   1.110   6.109 -0.0530  0.0463  0.3443
14399TIP3    H164612   5.916   1.205   6.113 -1.0708  0.1306  0.6817
14399TIP3    H264613   5.991   1.077   6.144  0.8502  0.7824 -0.9927
14400TIP3   OH264614   2.375   4.609   6.899  0.0159  0.0340 -0.2543
14400TIP3    H164615   2.319   4.535   6.920  0.2927 -0.4999 -1.2884
14400TIP3    H264616   2.315   4.678   6.870 -0.2921  0.4730  1.3568
14401TIP3   OH264617   0.217   4.633   5.061  0.2166  0.0028 -0.3006
14401TIP3    H164618   0.225   4.549   5.105 -0.0625  0.5154  0.7925
14401TIP3    H264619   0.133   4.668   5.092  1.4615  1.7886  1.3468
14402TIP3   OH264620   6.487   2.261  14.755 -0.7707 -1.2957 -0.0803
14402TIP3    H164621   6.446   2.334  14.802  0.9443 -1.6390  2.1271
14402TIP3    H264622   6.426   2.189  14.765 -1.2551 -0.8684  0.0705
14403TIP3   OH264623   2.892   5.152   3.824  0.2039 -0.2162 -0.4532
14403TIP3    H164624   2.965   5.094   3.805  0.8768 -0.2108  1.8362
14403TIP3    H264625   2.924   5.240   3.801  0.6165 -0.3053 -0.2244
14404TIP3   OH264626   0.859   0.835   2.204 -0.3529  0.3188  0.5398
14404TIP3    H164627   0.770   0.863   2.182  0.2168  0.5848 -1.5993
14404TIP3    H264628   0.910   0.851   2.124  1.5515 -0.1469  1.6041
14405TIP3   OH264629   1.259   3.988   0.400 -0.4769  0.7494  0.4119
14405TIP3    H164630   1.243   3.966   0.492 -0.9039  0.6713  0.3212
14405TIP3    H264631   1.289   3.906   0.361 -3.0975 -0.0414 -0.1709
14406TIP3   OH264632   4.798   1.835  14.163 -0.0317  0.0615  0.0080
14406TIP3    H164633   4.745   1.757  14.148  1.1126 -0.4267 -1.7121
14406TIP3    H264634   4.855   1.812  14.237  0.8842 -1.0826 -1.0148
14407TIP3   OH264635   6.180   1.889   2.203 -0.7978 -0.1594 -0.5781
14407TIP3    H164636   6.230   1.944   2.142  0.1929 -1.9850 -1.5050
14407TIP3    H264637   6.245   1.829   2.240 -1.8443 -0.7736  0.3346
14408TIP3   OH264638   0.713   3.245  10.747  0.0748 -0.7419 -0.4240
14408TIP3    H164639   0.749   3.159  10.723  0.9290 -0.3944 -0.4160
14408TIP3    H264640   0.660   3.270  10.671 -1.6944 -2.0751  0.2998
14409TIP3   OH264641   0.739   0.928  11.589  0.3664  0.0388 -0.5266
14409TIP3    H164642   0.786   0.903  11.509 -0.5403  1.5809 -1.5926
14409TIP3    H264643   0.802   0.978  11.640  0.6799 -0.2008 -0.6798
14410TIP3   OH264644   1.089   3.361  11.965  0.1829 -0.0494 -0.0811
14410TIP3    H164645   1.017   3.361  11.902  0.1087 -0.0930  0.0028
14410TIP3    H264646   1.073   3.283  12.019  1.3938 -1.2244 -1.3294
14411TIP3   OH264647   4.355   4.516  14.344 -0.5653  0.4155  0.5928
14411TIP3    H164648   4.396   4.573  14.408 -2.0164  1.4205  0.6665
14411TIP3    H264649   4.261   4.520  14.364 -0.7454 -1.8922  0.5178
14412TIP3   OH264650   6.565   2.741  12.797  0.0801 -0.8371 -0.6215
14412TIP3    H164651   6.490   2.800  12.790  0.0994 -0.7259  0.0443
14412TIP3    H264652   6.641   2.798  12.795  0.1086 -0.8594 -0.2657
14413TIP3   OH264653   0.442   0.269   2.715  0.0172  0.3176 -0.5644
14413TIP3    H164654   0.411   0.183   2.742  1.3601  0.0806  0.3031
14413TIP3    H264655   0.400   0.330   2.776  1.0134  0.0223  0.4484
14414TIP3   OH264656   1.683   6.387  10.992  0.0026  0.1552  0.1029
14414TIP3    H164657   1.635   6.404  11.074  0.5316  1.1727  0.2169
14414TIP3    H264658   1.704   6.474  10.958 -0.4233 -0.2561 -1.2583
14415TIP3   OH264659   0.648   0.907  12.367  0.2402  0.2997 -0.1521
14415TIP3    H164660   0.695   0.876  12.445  0.9730 -0.7512 -0.9799
14415TIP3    H264661   0.556   0.893  12.387  0.4997 -1.4282 -0.0685
14416TIP3   OH264662   1.167   1.060  13.397 -0.2898  0.6690 -0.1344
14416TIP3    H164663   1.078   1.038  13.367 -0.2866  0.1734  0.1963
14416TIP3    H264664   1.180   1.004  13.473  1.1864 -1.0311 -1.5425
14417TIP3   OH264665   3.580   2.531  11.712  0.3042  0.0053  0.1385
14417TIP3    H164666   3.578   2.584  11.632  2.8691  1.5296  0.9667
14417TIP3    H264667   3.632   2.454  11.689  1.4237  0.6578  0.3907
14418TIP3   OH264668   4.914   1.433   4.037  0.2819  0.1941 -0.2118
14418TIP3    H164669   4.898   1.371   4.108 -0.5715 -1.0229 -1.4148
14418TIP3    H264670   4.874   1.515   4.068  0.7584 -0.0394  1.0844
14419TIP3   OH264671   1.996   1.169   0.646 -0.5758 -0.0218 -0.1538
14419TIP3    H164672   1.960   1.089   0.610 -1.3158  0.4956 -0.5785
14419TIP3    H264673   2.042   1.210   0.573 -1.5636  0.7271 -0.3718
14420TIP3   OH264674   0.677   0.516   0.860 -0.2242 -0.2069  0.1822
14420TIP3    H164675   0.734   0.570   0.915 -0.8718  0.1058  0.5589
14420TIP3    H264676   0.595   0.565   0.855 -0.4200 -0.5852 -0.4665
14421TIP3   OH264677   5.373   1.320  11.612  0.2417  0.1332 -0.7801
14421TIP3    H164678   5.445   1.268  11.646 -0.7264 -2.2875 -2.2309
14421TIP3    H264679   5.323   1.345  11.690  1.2119 -0.3641  0.0179
14422TIP3   OH264680   2.742   2.500   4.977 -0.3279  0.0248  0.1920
14422TIP3    H164681   2.698   2.580   5.006  0.6952  0.4606  0.6354
14422TIP3    H264682   2.754   2.512   4.883  3.5562  2.4818  0.7269
14423TIP3   OH264683   0.932   4.376  16.397 -0.2224  0.3416  0.5554
14423TIP3    H164684   0.865   4.445  16.398  0.4115  1.0518 -1.2253
14423TIP3    H264685   1.014   4.424  16.408  0.0578 -0.5086  2.5831
14424TIP3   OH264686   2.598   4.530   5.439  0.4363  0.4320  0.0675
14424TIP3    H164687   2.601   4.574   5.354  1.4547  0.1910 -0.0312
14424TIP3    H264688   2.689   4.504   5.456  0.7395  2.5539  2.3128
14425TIP3   OH264689   6.397   2.987   0.364 -0.4313 -0.3676 -0.2826
14425TIP3    H164690   6.431   3.070   0.397 -0.8518 -0.1203 -0.4614
14425TIP3    H264691   6.311   3.009   0.326 -0.8948 -1.0159  0.3589
14426TIP3   OH264692   0.254   5.064  13.973 -0.1077 -0.1149 -0.2439
14426TIP3    H164693   0.182   5.004  13.993 -1.4941  1.5716  0.1097
14426TIP3    H264694   0.320   5.009  13.931  0.1600 -2.5570  2.9521
14427TIP3   OH264695   6.618   1.734  16.075  0.2253 -0.3630  0.1608
14427TIP3    H164696   6.620   1.792  16.151 -1.9473 -0.1360  0.1063
14427TIP3    H264697   6.579   1.787  16.006 -0.2278 -1.3813 -0.3746
14428TIP3   OH264698   5.101   1.717   4.442 -0.0671 -0.3003  0.4482
14428TIP3    H164699   5.085   1.677   4.357  0.1992 -0.3330  0.4104
14428TIP3    H264700   5.019   1.760   4.465 -0.0402 -0.0223  0.0293
14429TIP3   OH264701   1.343   4.421   5.847  0.1287 -0.0337 -0.3147
14429TIP3    H164702   1.253   4.392   5.838 -0.2536  0.5354  1.3523
14429TIP3    H264703   1.394   4.340   5.854 -0.5245 -0.3672  0.8792
14430TIP3   OH264704   5.893   4.798  13.109 -0.3786  0.0767  0.6334
14430TIP3    H164705   5.809   4.843  13.104  1.0606  3.2975  2.6344
14430TIP3    H264706   5.930   4.807  13.021 -0.5208  2.1021  0.7526
14431TIP3   OH264707   5.425   6.423   5.613  0.1412 -0.0107 -0.7383
14431TIP3    H164708   5.355   6.470   5.567  0.4510  0.8324 -0.3566
14431TIP3    H264709   5.476   6.492   5.656  0.9225 -0.6571 -0.6178
14432TIP3   OH264710   0.235   1.699   0.701  0.2198 -0.3872 -0.3623
14432TIP3    H164711   0.301   1.634   0.724  1.2059  0.7129  0.0150
14432TIP3    H264712   0.157   1.674   0.751  0.3771 -1.6278 -0.7158
14433TIP3   OH264713   6.247   0.409  12.672 -0.3345  0.2152  0.9084
14433TIP3    H164714   6.192   0.478  12.635 -0.4059 -0.8510 -1.0780
14433TIP3    H264715   6.186   0.340  12.698 -0.1335  0.1524  1.2241
14434TIP3   OH264716   5.076   0.930   2.614 -0.0542 -0.5565  0.0665
14434TIP3    H164717   5.113   0.844   2.636  0.1029 -0.1293  1.6517
14434TIP3    H264718   5.062   0.928   2.520  1.2667 -1.8059 -0.1293
14435TIP3   OH264719   3.218   4.615  11.936  0.7753 -0.5202 -0.7319
14435TIP3    H164720   3.214   4.522  11.958  0.0508 -0.2159  0.5696
14435TIP3    H264721   3.304   4.644  11.966  0.3094 -0.4067  0.5842
14436TIP3   OH264722   3.893   2.653  13.416 -0.0560 -0.3003  0.6941
14436TIP3    H164723   3.849   2.613  13.491 -1.7501  0.2761  0.0413
14436TIP3    H264724   3.881   2.747  13.428  1.3423 -0.0944  0.6778
14437TIP3   OH264725   2.570   3.139  11.752  0.2600 -0.0017  0.0796
14437TIP3    H164726   2.506   3.177  11.690  0.7832 -2.6424 -2.2644
14437TIP3    H264727   2.653   3.141  11.705  1.2583  0.2760  1.7755
14438TIP3   OH264728   4.586   0.342   0.198  0.4452 -1.2299 -0.4303
14438TIP3    H164729   4.649   0.319   0.266  0.6736 -1.7055 -0.7929
14438TIP3    H264730   4.557   0.258   0.164 -0.0835 -1.0030 -0.5438
14439TIP3   OH264731   0.154   5.503   0.036  0.5839  0.5350  0.4757
14439TIP3    H164732   0.219   5.564   0.002  1.0895 -0.4114 -0.2790
14439TIP3    H264733   0.071   5.536   0.001  0.8662  0.7214 -0.0328
14440TIP3   OH264734   3.965   3.032  11.659 -0.1929  0.7055  0.4819
14440TIP3    H164735   3.914   3.072  11.588 -0.5482  0.2679  0.4891
14440TIP3    H264736   3.920   2.949  11.678  0.3689  0.4402  0.6696
14441TIP3   OH264737   2.422   6.528  11.939 -0.0884  0.5637 -0.1129
14441TIP3    H164738   2.361   6.454  11.937  0.2028  0.3309 -1.6872
14441TIP3    H264739   2.470   6.521  11.856  0.5217  2.0328  0.1003
14442TIP3   OH264740   3.378   3.912  12.750  0.2502  0.5380  0.2098
14442TIP3    H164741   3.310   3.963  12.705 -0.5356 -2.1530 -1.9084
14442TIP3    H264742   3.459   3.961  12.735 -1.0226  3.5833  2.3912
14443TIP3   OH264743   0.768   4.638  12.991  0.5383  0.0458  1.2136
14443TIP3    H164744   0.734   4.567  12.936  2.2407  0.1305 -0.0412
14443TIP3    H264745   0.862   4.638  12.974  0.6008  2.5609  1.2206
14444TIP3   OH264746   0.354   0.042  16.880 -0.3226  0.0419 -0.3522
14444TIP3    H164747   0.312   0.125  16.858  0.9297  0.6025 -0.7576
14444TIP3    H264748   0.445   0.053  16.851 -0.2211 -1.6117 -0.7731
14445TIP3   OH264749   3.786   0.195   4.937 -0.1151 -0.1657 -0.2869
14445TIP3    H164750   3.744   0.180   5.022  0.1435 -0.7539 -0.2530
14445TIP3    H264751   3.772   0.287   4.918 -0.2838 -0.0616  0.3404
14446TIP3   OH264752   5.074   3.334  12.422 -0.7462 -0.4646 -0.4594
14446TIP3    H164753   5.035   3.414  12.387  0.1881  0.0950 -0.2575
14446TIP3    H264754   5.142   3.312  12.359 -0.1277 -0.3521  0.1635
14447TIP3   OH264755   2.008   0.262  17.009  0.4391 -0.3654 -0.0077
14447TIP3    H164756   1.916   0.259  17.036  1.1100 -1.6018  2.4576
14447TIP3    H264757   2.043   0.340  17.052  0.7421 -0.4238 -0.1467
14448TIP3   OH264758   2.569   5.745   3.008  0.3946  0.4830  0.1192
14448TIP3    H164759   2.636   5.811   2.991 -0.0420  0.8198 -0.3671
14448TIP3    H264760   2.597   5.669   2.957  1.0983  0.1481  0.9833
14449TIP3   OH264761   5.007   3.576  12.323 -0.1628 -0.8562 -0.1308
14449TIP3    H164762   5.040   3.600  12.410 -1.1315 -0.0483  0.0330
14449TIP3    H264763   5.044   3.642  12.264  0.6401 -1.5099 -0.3746
14450TIP3   OH264764   3.986   3.416   1.042 -0.0577  0.3972 -0.1633
14450TIP3    H164765   3.924   3.343   1.047  1.6865 -1.3487 -2.0539
14450TIP3    H264766   3.990   3.450   1.131 -3.9164  0.8622 -0.0045
14451TIP3   OH264767   3.679   1.324  12.185  0.6260 -0.1185 -0.2941
14451TIP3    H164768   3.589   1.336  12.153 -0.0269  0.5495  1.6020
14451TIP3    H264769   3.695   1.231  12.177 -0.4979 -0.3511 -0.0680
14452TIP3   OH264770   5.441   3.496   3.154  0.4078 -0.9567  0.4480
14452TIP3    H164771   5.435   3.401   3.153 -3.1307 -0.8798  1.4930
14452TIP3    H264772   5.384   3.523   3.226 -0.2455  2.0027 -1.0041
14453TIP3   OH264773   3.071   4.271  11.813  0.0752  0.0053  0.1209
14453TIP3    H164774   3.139   4.297  11.875  1.4638 -2.9099 -0.0055
14453TIP3    H264775   3.067   4.176  11.821 -2.8811 -0.0690 -1.0865
14454TIP3   OH264776   1.380   5.707  14.737  0.1751  0.2207  0.2384
14454TIP3    H164777   1.303   5.745  14.695  0.2619 -0.7652 -0.8793
14454TIP3    H264778   1.346   5.635  14.790  0.3002 -0.2308 -0.2749
14455TIP3   OH264779   4.117   2.599  15.316  0.1549  0.4470 -0.0899
14455TIP3    H164780   4.055   2.526  15.315  2.3137 -1.5454  1.2089
14455TIP3    H264781   4.104   2.643  15.232 -0.3785 -2.2241 -1.5079
14456TIP3   OH264782   2.319   0.278   6.243  0.3105 -0.2750 -0.2517
14456TIP3    H164783   2.321   0.313   6.332 -0.0583 -0.0795 -0.3192
14456TIP3    H264784   2.227   0.285   6.216  0.6125  0.7363 -1.0670
14457TIP3   OH264785   3.445   1.375  11.566 -0.3206  0.5812 -0.1635
14457TIP3    H164786   3.418   1.455  11.612 -0.1005  1.2148 -1.1022
14457TIP3    H264787   3.517   1.403  11.510 -2.4324  0.5618 -3.1310
14458TIP3   OH264788   3.625   3.437   0.565 -0.3375 -0.1176 -0.1426
14458TIP3    H164789   3.643   3.421   0.658  0.2634  0.3336 -0.1735
14458TIP3    H264790   3.565   3.368   0.540  0.3873 -0.9272  0.3029
14459TIP3   OH264791   1.347   2.912  15.445  0.0766  0.5451  0.3087
14459TIP3    H164792   1.368   2.866  15.364  0.0043 -0.2921  0.7561
14459TIP3    H264793   1.431   2.944  15.477  0.1473  0.5937  0.0780
14460TIP3   OH264794   5.968   4.642  14.035  0.3325 -0.7713  0.5518
14460TIP3    H164795   5.873   4.638  14.023  0.2651  0.8787  0.3015
14460TIP3    H264796   5.982   4.625  14.128 -0.2990  0.0582  0.7998
14461TIP3   OH264797   3.774   2.424   0.094 -0.1594  0.5285 -0.1893
14461TIP3    H164798   3.685   2.399   0.116  0.4257 -0.8349  0.7783
14461TIP3    H264799   3.783   2.514   0.126 -0.0777 -0.5707  3.2539
14462TIP3   OH264800   5.780   6.202   1.964 -0.6381 -0.1359  0.0956
14462TIP3    H164801   5.715   6.235   1.901  0.5223 -0.4747 -1.3469
14462TIP3    H264802   5.857   6.183   1.910 -0.3912 -2.7689  1.2503
14463TIP3   OH264803   6.313   1.521   4.519  0.7687  0.1151  1.0289
14463TIP3    H164804   6.290   1.606   4.555  2.1963  0.7577  0.5037
14463TIP3    H264805   6.331   1.539   4.426 -1.5600 -1.2565  0.2045
14464TIP3   OH264806   0.486   3.865  14.714  0.1512  0.2480  0.0658
14464TIP3    H164807   0.413   3.843  14.656 -0.7350  0.2881  1.1241
14464TIP3    H264808   0.556   3.803  14.690 -1.0589 -1.4191  0.6117
14465TIP3   OH264809   6.120   3.503  12.906  0.2779 -0.1298 -0.2878
14465TIP3    H164810   6.111   3.425  12.851 -0.5906 -0.0192 -0.3184
14465TIP3    H264811   6.064   3.568  12.864 -0.6193 -0.1282  0.8770
14466TIP3   OH264812   5.073   4.918  13.704  0.3767  0.7099 -0.1303
14466TIP3    H164813   5.055   4.827  13.727  2.4463  0.2395 -0.1322
14466TIP3    H264814   5.048   4.925  13.612 -0.1399  0.2500 -0.0284
14467TIP3   OH264815   4.102   3.410  10.720 -0.2476 -0.2351 -0.0792
14467TIP3    H164816   4.111   3.492  10.672  0.0863 -0.4891 -0.4504
14467TIP3    H264817   4.174   3.410  10.782 -1.0000  0.3548  0.8273
14468TIP3   OH264818   1.265   6.412  16.992 -0.6621  0.4184 -0.0371
14468TIP3    H164819   1.310   6.494  16.976  1.2785 -1.0524 -2.9718
14468TIP3    H264820   1.176   6.427  16.960  0.2222  0.8591 -2.4836
14469TIP3   OH264821   1.186   3.565  13.452 -0.0270 -0.5785 -0.3092
14469TIP3    H164822   1.244   3.571  13.376 -0.4746  0.7369 -0.5721
14469TIP3    H264823   1.137   3.484  13.439  0.1709 -0.5615 -1.2246
14470TIP3   OH264824   3.843   2.764  10.537 -0.5968  0.2535  0.8393
14470TIP3    H164825   3.880   2.784  10.623 -1.7929 -0.9312  1.6562
14470TIP3    H264826   3.865   2.841  10.484 -0.0502  1.1204  2.2530
14471TIP3   OH264827   5.542   1.522  13.857 -0.0224  0.5362  0.0755
14471TIP3    H164828   5.469   1.471  13.890 -0.4594  1.1036  0.0067
14471TIP3    H264829   5.620   1.469  13.876 -0.4131  0.1172  0.5216
14472TIP3   OH264830   5.819   3.981   3.188  0.0975 -0.5827  0.3702
14472TIP3    H164831   5.913   3.984   3.203  0.2690  1.6951 -0.7657
14472TIP3    H264832   5.780   3.987   3.275  0.9652 -1.5042  0.8461
14473TIP3   OH264833   2.528   2.995   0.882  0.0724  0.1861  0.8555
14473TIP3    H164834   2.481   3.059   0.934 -0.9622  0.6324 -0.5718
14473TIP3    H264835   2.461   2.953   0.827  0.7753 -1.8379  1.4255
14474TIP3   OH264836   5.173   5.975  12.356  0.0467 -0.9899  0.1766
14474TIP3    H164837   5.108   5.956  12.288  0.2687 -1.0794 -0.0144
14474TIP3    H264838   5.234   5.901  12.351  0.7600 -0.3794 -0.3734
14475TIP3   OH264839   0.502   2.498   1.074  1.0176  0.2255  0.7202
14475TIP3    H164840   0.509   2.539   0.987  1.9589 -0.2009  0.5840
14475TIP3    H264841   0.488   2.405   1.056  3.3408 -0.2340  0.9708
14476TIP3   OH264842   2.988   4.193   5.636 -0.3957  0.4625 -0.5275
14476TIP3    H164843   2.975   4.104   5.601 -1.1558  1.1691 -2.1546
14476TIP3    H264844   2.932   4.197   5.713  1.6587 -1.3046  1.1662
14477TIP3   OH264845   0.102   2.620   2.984  0.4732  0.1955 -0.4407
14477TIP3    H164846   0.154   2.605   2.905  0.2169  1.1985 -0.8071
14477TIP3    H264847   0.105   2.715   2.998  1.4487 -0.0467  1.3873
14478TIP3   OH264848   0.041   4.566   2.641 -0.0899  0.5589 -0.2648
14478TIP3    H164849   0.007   4.593   2.726 -2.1051 -0.5125 -0.6741
14478TIP3    H264850  -0.015   4.610   2.578 -0.4589 -0.8580 -0.9721
14479TIP3   OH264851   6.610   1.418  11.616  0.1697  0.0806 -0.0522
14479TIP3    H164852   6.600   1.459  11.530 -1.6427  1.8021  0.8888
14479TIP3    H264853   6.529   1.370  11.629 -0.7681  1.9676  1.6843
14480TIP3   OH264854   5.660   6.554   6.085  0.0718 -0.6602  0.1355
14480TIP3    H164855   5.677   6.488   6.152 -1.1231 -1.1748 -0.0424
14480TIP3    H264856   5.617   6.625   6.131 -0.5028 -0.8989 -0.0148
14481TIP3   OH264857   2.075   6.378  13.319 -0.3206  0.2570  0.4694
14481TIP3    H164858   2.018   6.303  13.338  0.1039 -0.4060 -0.7061
14481TIP3    H264859   2.163   6.340  13.314 -0.2939  0.4982 -1.8024
14482TIP3   OH264860   3.247   1.884  16.256  0.2336 -0.0172  0.2718
14482TIP3    H164861   3.247   1.851  16.346  0.2991  3.9285  1.9171
14482TIP3    H264862   3.154   1.897  16.235  0.2600 -0.1972  0.0321
14483TIP3   OH264863   1.986   5.079   2.182  0.1973  0.4097  0.0118
14483TIP3    H164864   2.028   5.077   2.096 -2.3190  1.8229 -1.3591
14483TIP3    H264865   2.048   5.126   2.238  1.8065 -0.3894 -1.0158
14484TIP3   OH264866   5.295   5.419   0.859  1.0534  0.5107 -0.2107
14484TIP3    H164867   5.363   5.436   0.794  1.7742 -0.4117  0.2837
14484TIP3    H264868   5.285   5.324   0.860  0.6240  0.5488  0.6004
14485TIP3   OH264869   3.429   4.190  15.202  0.4833  0.1271  0.0702
14485TIP3    H164870   3.442   4.136  15.280  3.2809  2.2904  1.2838
14485TIP3    H264871   3.508   4.176  15.149 -0.0991  0.7913 -1.0174
14486TIP3   OH264872   4.574   6.166  14.103  0.6560 -0.0833  0.0147
14486TIP3    H164873   4.575   6.077  14.140  0.3742 -0.5035 -0.9551
14486TIP3    H264874   4.586   6.152  14.009 -1.8037  0.7315 -0.4767
14487TIP3   OH264875   1.018   1.904   0.650  0.6803  0.1483  0.2306
14487TIP3    H164876   0.931   1.916   0.687  1.3967  0.3931  1.8920
14487TIP3    H264877   1.044   1.991   0.621  0.8045  0.2742  0.7191
14488TIP3   OH264878   2.927   3.401  16.999  0.3380  0.2328 -0.5265
14488TIP3    H164879   2.900   3.492  16.985 -1.3406 -0.0918  0.3197
14488TIP3    H264880   2.910   3.384  17.091 -3.7916 -2.1858 -1.4621
14489TIP3   OH264881   3.442   6.303  13.696  0.4689  0.4389 -0.6841
14489TIP3    H164882   3.471   6.215  13.718  0.4982  0.1600 -1.8047
14489TIP3    H264883   3.367   6.290  13.638  0.6896  1.1448 -1.1399
14490TIP3   OH264884   6.202   3.282  11.700 -0.6167 -0.7205 -0.1879
14490TIP3    H164885   6.161   3.243  11.623  0.7689  1.9513 -2.4752
14490TIP3    H264886   6.144   3.355  11.723 -0.9644 -1.4337  1.2871
14491TIP3   OH264887   2.136   5.062  16.507 -0.3013  0.8339  0.0795
14491TIP3    H164888   2.158   4.986  16.560 -0.2632  1.3118  0.7675
14491TIP3    H264889   2.206   5.066  16.441 -0.9052 -0.3562 -0.6647
14492TIP3   OH264890   0.550   1.194   1.679  0.2132  0.0980 -0.3325
14492TIP3    H164891   0.522   1.259   1.744 -0.5497 -0.8406  0.2987
14492TIP3    H264892   0.555   1.243   1.597  0.1198  1.0632  0.2259
14493TIP3   OH264893   1.970   4.068  15.877  0.2348 -0.2616  0.5259
14493TIP3    H164894   1.999   3.977  15.873  0.9192 -0.0205 -0.2994
14493TIP3    H264895   1.965   4.088  15.970  2.7793 -0.3154  0.7400
14494TIP3   OH264896   2.786   1.608  13.853  0.0469  0.6276  0.4299
14494TIP3    H164897   2.710   1.572  13.805  1.1720 -1.1066 -0.1745
14494TIP3    H264898   2.862   1.567  13.810  1.3082  1.9638  1.3097
14495TIP3   OH264899   3.612   4.320   3.590  0.4708  0.2524  0.4329
14495TIP3    H164900   3.654   4.337   3.505 -1.2250 -0.8938 -0.7114
14495TIP3    H264901   3.665   4.252   3.631  0.0841 -0.8066 -0.7514
14496TIP3   OH264902   0.381   0.857  12.503 -0.8117 -0.7432  0.5177
14496TIP3    H164903   0.367   0.852  12.408  1.3885  1.4766 -0.0234
14496TIP3    H264904   0.318   0.923  12.532 -2.1582 -2.1077  0.8351
14497TIP3   OH264905   2.893   1.072  12.959 -0.2945  0.7180  0.3938
14497TIP3    H164906   2.966   1.025  13.000 -1.1047 -0.2329  0.8039
14497TIP3    H264907   2.856   1.009  12.897 -1.1423  0.9606  0.6424
14498TIP3   OH264908   0.337   0.614   0.984 -0.0521 -0.1390 -0.4546
14498TIP3    H164909   0.326   0.539   0.926 -0.0469 -0.3982 -0.1191
14498TIP3    H264910   0.264   0.672   0.963  0.9649  0.6494 -2.0550
14499TIP3   OH264911   0.329   3.450   0.987 -0.6206  0.3112 -0.0339
14499TIP3    H164912   0.262   3.398   0.942 -1.0361  2.2378 -1.7948
14499TIP3    H264913   0.294   3.539   0.987  1.0975  1.0299  0.7626
14500TIP3   OH264914   6.036   2.003  11.709 -0.3081 -0.9310  0.2065
14500TIP3    H164915   6.044   2.085  11.759  1.0744 -1.3321  0.7083
14500TIP3    H264916   6.072   2.025  11.623 -0.6045 -0.8248  0.1095
14501TIP3   OH264917   5.298   2.322   1.265  0.1181 -0.3867  0.5353
14501TIP3    H164918   5.230   2.256   1.252  0.4103 -0.3427 -1.6339
14501TIP3    H264919   5.261   2.402   1.226 -0.6109  1.1022  3.9159
14502TIP3   OH264920   4.732   2.006   0.192  0.2432 -0.5081  0.3683
14502TIP3    H164921   4.749   2.038   0.280 -0.5039 -0.7200  0.6019
14502TIP3    H264922   4.636   2.005   0.185  0.2898 -0.8030 -0.3261
14503TIP3   OH264923   3.633   3.752   1.466 -0.1079 -0.0137 -0.0188
14503TIP3    H164924   3.578   3.727   1.391  0.3933  0.7170 -0.6329
14503TIP3    H264925   3.711   3.790   1.427  0.5134 -0.3507  0.8722
14504TIP3   OH264926   3.372   3.496  12.951  0.8462 -0.1452 -0.0098
14504TIP3    H164927   3.416   3.557  12.891  0.7860  0.1835  0.2746
14504TIP3    H264928   3.441   3.435  12.978  1.8519  1.8982  2.4650
14505TIP3   OH264929   3.145   0.498   0.860 -0.0127  0.2161 -0.8110
14505TIP3    H164930   3.082   0.531   0.796 -0.1450  1.5778 -0.0314
14505TIP3    H264931   3.091   0.463   0.931  0.1286 -0.1413 -0.8755
14506TIP3   OH264932   6.405   3.146  15.836  0.0183  0.0338 -0.1474
14506TIP3    H164933   6.459   3.221  15.863 -1.8800  2.8797 -3.3946
14506TIP3    H264934   6.460   3.098  15.774  0.9179 -0.7699  1.2384
14507TIP3   OH264935   1.846   5.024  16.477 -0.1222  0.5679  0.3262
14507TIP3    H164936   1.802   5.090  16.424 -1.9243 -0.7602  0.0579
14507TIP3    H264937   1.935   5.020  16.443  0.1476  3.0126  0.5485
14508TIP3   OH264938   1.674   1.909   0.840 -0.0254  0.0191 -0.1181
14508TIP3    H164939   1.586   1.889   0.806 -1.7771  1.9207  2.8305
14508TIP3    H264940   1.675   2.005   0.847  1.0378 -0.1066  2.7456
14509TIP3   OH264941   1.462   6.517   0.717 -0.0492 -0.3731 -0.0488
14509TIP3    H164942   1.456   6.523   0.622  0.6485  1.1492 -0.0250
14509TIP3    H264943   1.554   6.500   0.735  0.0945  0.7722  0.3829
14510TIP3   OH264944   2.276   6.327  15.433 -0.3853  0.2247 -0.3846
14510TIP3    H164945   2.219   6.321  15.509 -0.7436  1.6289 -0.5120
14510TIP3    H264946   2.253   6.410  15.392  0.3999 -0.1014 -1.5463
14511TIP3   OH264947   3.201   4.087   6.118  0.3566 -0.4451 -0.0664
14511TIP3    H164948   3.278   4.030   6.127  0.0514 -0.9654 -0.6742
14511TIP3    H264949   3.210   4.150   6.189  1.2161 -0.6535  0.0249
14512TIP3   OH264950   5.375   2.422   4.142 -0.2142 -0.0229  0.0743
14512TIP3    H164951   5.288   2.458   4.127 -0.6067 -0.9550  0.0746
14512TIP3    H264952   5.380   2.345   4.086 -0.0243 -0.9578  1.3264
14513TIP3   OH264953   0.979   4.474  16.743  0.6653 -0.3019 -0.7054
14513TIP3    H164954   0.955   4.555  16.698  0.4430 -0.8245 -1.5377
14513TIP3    H264955   1.030   4.503  16.818  0.0929  0.6461 -0.6647
14514TIP3   OH264956   0.129   3.324  12.278  0.3288 -0.3480  0.4279
14514TIP3    H164957   0.086   3.311  12.193  2.2362 -1.3543 -0.4451
14514TIP3    H264958   0.070   3.285  12.342 -1.7601  1.5455 -0.2231
14515TIP3   OH264959   4.200   3.797   5.326 -0.0287 -0.4377  0.0040
14515TIP3    H164960   4.250   3.814   5.406  1.3974  3.3098 -1.5004
14515TIP3    H264961   4.259   3.743   5.273  0.6065  0.2656 -0.0185
14516TIP3   OH264962   2.738   0.141  12.026  0.2593  0.2915  1.1539
14516TIP3    H164963   2.690   0.200  11.968 -0.7720 -0.9953  0.6574
14516TIP3    H264964   2.751   0.061  11.975  1.8630  0.1579  1.7198
14517TIP3   OH264965   2.785   5.051  12.908  0.0655  0.5657  0.4180
14517TIP3    H164966   2.804   5.090  12.823 -1.1332 -0.4347 -0.3406
14517TIP3    H264967   2.841   4.973  12.912  1.3840  1.5102  1.3122
14518TIP3   OH264968   1.807   4.888  14.793 -0.2037  0.1084  0.1473
14518TIP3    H164969   1.725   4.851  14.826 -0.0218 -1.1834 -0.7729
14518TIP3    H264970   1.790   4.983  14.788 -1.2710 -0.0190  0.9507
14519TIP3   OH264971   1.552   6.207   5.051 -0.0427  0.1132 -0.4785
14519TIP3    H164972   1.579   6.298   5.058  0.0340  0.0812 -0.3544
14519TIP3    H264973   1.468   6.203   5.098  0.3037 -0.0302  0.1372
14520TIP3   OH264974   5.219   2.610  14.615  0.0087  0.1833  0.2994
14520TIP3    H164975   5.271   2.675  14.567  2.5672 -0.5876  1.8579
14520TIP3    H264976   5.184   2.657  14.690  1.7654 -0.1211  1.3639
14521TIP3   OH264977   6.688   3.477   5.821 -0.3584 -0.0754 -0.6420
14521TIP3    H164978   6.636   3.493   5.742  1.1516  0.4146 -1.5902
14521TIP3    H264979   6.779   3.476   5.789  0.2611 -0.1565  1.0565
14522TIP3   OH264980   6.696   4.260  11.068  0.1620 -0.4887  0.7934
14522TIP3    H164981   6.781   4.216  11.064  1.9334  2.6441  1.1192
14522TIP3    H264982   6.697   4.322  10.995 -1.8725 -0.3439  0.8268
14523TIP3   OH264983   3.994   2.954   1.100  0.0176 -0.2015  0.0277
14523TIP3    H164984   4.016   2.937   1.008 -2.9191 -1.6726 -0.4984
14523TIP3    H264985   4.044   2.889   1.149 -1.6417 -2.3282 -0.9560
14524TIP3   OH264986   2.956   5.836   1.192  0.4815 -0.4842  0.3732
14524TIP3    H164987   3.013   5.782   1.138 -0.5688 -2.0893  0.8020
14524TIP3    H264988   2.933   5.910   1.136  0.2583 -1.5640 -1.0351
14525TIP3   OH264989   2.054   3.701   4.664 -0.2946 -0.2239 -0.5676
14525TIP3    H164990   2.091   3.672   4.747  2.1217  0.9525 -1.1180
14525TIP3    H264991   1.976   3.751   4.688 -0.2595 -0.8151  0.8798
14526TIP3   OH264992   6.169   0.573   1.084 -0.0829 -0.3354 -0.4411
14526TIP3    H164993   6.156   0.585   1.178  2.5080  0.7560 -0.1344
14526TIP3    H264994   6.165   0.479   1.071 -1.1680 -0.4612  0.6207
14527TIP3   OH264995   4.841   5.032  15.860 -0.0730  0.4575  0.4034
14527TIP3    H164996   4.902   5.097  15.825 -1.0428  1.1416 -0.0694
14527TIP3    H264997   4.896   4.957  15.882  0.8546  0.8014 -0.6337
14528TIP3   OH264998   4.051   4.989  16.132 -0.4849  0.7027 -0.1078
14528TIP3    H164999   4.037   4.895  16.147 -0.5331  1.0185  2.0375
14528TIP3    H265000   4.079   4.994  16.040  0.1190 -1.4563 -0.1016
14529TIP3   OH265001   4.380   0.246  12.524 -0.0421  0.7634 -0.3360
14529TIP3    H165002   4.385   0.303  12.446  0.2229 -2.6393 -3.0544
14529TIP3    H265003   4.292   0.261  12.558 -0.9218  1.0040 -2.5106
14530TIP3   OH265004   4.400   2.130   4.418  0.1479  0.5691 -0.2733
14530TIP3    H165005   4.445   2.146   4.500  1.4440 -2.2267 -0.3193
14530TIP3    H265006   4.406   2.212   4.370 -1.8816  2.7907  2.8556
14531TIP3   OH265007   1.992   3.811  15.802  0.5835  0.0102 -0.0762
14531TIP3    H165008   1.926   3.746  15.776 -0.6751  1.3352 -0.3022
14531TIP3    H265009   2.039   3.770  15.875 -1.4696 -0.4159  1.0692
14532TIP3   OH265010   5.115   0.041  15.803  0.1862 -0.0003  0.3221
14532TIP3    H165011   5.056  -0.032  15.820  1.8582 -1.2604  0.9631
14532TIP3    H265012   5.065   0.099  15.745 -1.1197 -1.7394 -0.3896
14533TIP3   OH265013   3.326   3.217  13.564 -0.0680  0.6236  0.4429
14533TIP3    H165014   3.250   3.249  13.612  0.0080  0.9936  0.3153
14533TIP3    H265015   3.394   3.282  13.579  0.3879  0.0283  0.9840
14534TIP3   OH265016   1.728   6.219   3.966 -0.4883  0.1441  0.6150
14534TIP3    H165017   1.775   6.257   4.040 -1.6483 -1.6812  2.4089
14534TIP3    H265018   1.740   6.125   3.976 -0.3884 -0.1643 -1.7785
14535TIP3   OH265019   3.133   2.376  14.062  0.2361 -0.4225  0.0093
14535TIP3    H165020   3.160   2.319  13.991  0.6402  0.5066 -0.6071
14535TIP3    H265021   3.195   2.359  14.133  0.5797 -0.4747 -0.3056
14536TIP3   OH265022   1.514   1.112   3.996 -0.7552 -0.0718  0.2567
14536TIP3    H165023   1.570   1.078   4.066  0.2948  0.5199 -0.2897
14536TIP3    H265024   1.437   1.055   3.998  0.1750 -1.3631  0.5356
14537TIP3   OH265025   5.591   1.088  14.772 -0.1199  0.3636 -0.1587
14537TIP3    H165026   5.623   1.055  14.689  0.1156  3.9224 -1.6946
14537TIP3    H265027   5.668   1.128  14.813 -0.7405  0.8930  0.5237
14538TIP3   OH265028   0.982   1.455  14.562  0.6402  0.5101 -0.2762
14538TIP3    H165029   1.075   1.479  14.563  0.7088  0.2452 -0.2685
14538TIP3    H265030   0.956   1.468  14.470  1.4531 -2.2959 -0.9988
14539TIP3   OH265031   6.645   4.230   2.888  0.2907  0.6444  0.5462
14539TIP3    H165032   6.720   4.176   2.913 -0.5569 -1.1236 -0.4503
14539TIP3    H265033   6.681   4.294   2.827  1.0867  0.1484  0.4714
14540TIP3   OH265034   2.928   4.263   1.364  0.2534 -0.9346 -0.1949
14540TIP3    H165035   2.965   4.200   1.426 -1.0209 -0.5222  1.0258
14540TIP3    H265036   3.004   4.303   1.322  1.1352 -1.4878  0.8412
14541TIP3   OH265037   4.179   0.654   2.056  0.1834 -0.0696  0.1594
14541TIP3    H165038   4.084   0.666   2.049  0.0692 -1.2334 -0.6927
14541TIP3    H265039   4.195   0.644   2.150 -0.9605 -2.5564  0.1957
14542TIP3   OH265040   4.695   6.657  14.095 -0.1016 -0.1456  0.3077
14542TIP3    H165041   4.644   6.724  14.050 -1.4784 -1.2626  0.1243
14542TIP3    H265042   4.675   6.576  14.048  0.4355 -0.9193  1.3630
14543TIP3   OH265043   5.548   1.244  17.033 -0.3306 -0.5045  0.2495
14543TIP3    H165044   5.583   1.160  17.002  1.9764  0.4842 -0.0590
14543TIP3    H265045   5.531   1.294  16.953  0.6543  0.1785  0.4498
14544TIP3   OH265046   1.585   3.556  14.001 -0.2953 -0.2915  0.4204
14544TIP3    H165047   1.496   3.534  14.029 -0.3772 -0.0149  0.3849
14544TIP3    H265048   1.606   3.635  14.051  0.3108 -0.9218  1.1749
14545TIP3   OH265049   1.794   4.337  12.885  0.4338 -0.0712  0.0808
14545TIP3    H165050   1.845   4.353  12.805  0.5502 -2.4493 -0.3850
14545TIP3    H265051   1.858   4.340  12.956  0.7381 -0.2803 -0.1833
14546TIP3   OH265052   1.563   0.299  17.262 -0.5327  0.1250 -0.6113
14546TIP3    H165053   1.485   0.251  17.234 -2.5041  1.8470  1.4838
14546TIP3    H265054   1.550   0.313  17.355  1.6810  1.6478 -0.4517
14547TIP3   OH265055   3.003   4.810  10.032 -0.1702  0.2270 -0.2289
14547TIP3    H165056   2.962   4.853  10.107 -0.3316 -0.6132  0.1702
14547TIP3    H265057   2.939   4.745  10.003  0.4432 -0.3844 -0.2435
14548TIP3   OH265058   6.680   3.534   4.609  0.2662  0.1536  0.7859
14548TIP3    H165059   6.729   3.494   4.536  0.5743  1.2384  0.3787
14548TIP3    H265060   6.679   3.466   4.676 -0.5693 -1.1212 -0.4435
14549TIP3   OH265061   3.006   2.845  17.110  0.1369  0.1409  0.5265
14549TIP3    H165062   2.988   2.925  17.160 -1.6847  0.5377 -0.6862
14549TIP3    H265063   3.101   2.846  17.098  0.1275  2.3604  0.1798
14550TIP3   OH265064   5.850   1.881   3.314  0.5273  0.0829  0.3034
14550TIP3    H165065   5.863   1.822   3.239  1.2368 -2.0251  1.9843
14550TIP3    H265066   5.922   1.943   3.308 -0.2265  0.8640 -1.5080
14551TIP3   OH265067   2.840   1.168   4.852 -0.2136  0.3205  0.7077
14551TIP3    H165068   2.843   1.094   4.913  1.2000 -1.2874 -1.1602
14551TIP3    H265069   2.900   1.232   4.890  0.6840 -0.6656  1.0100
14552TIP3   OH265070   2.292   0.294  15.800  0.3800  0.2094 -0.2721
14552TIP3    H165071   2.375   0.280  15.846 -0.1475  0.1172  0.6900
14552TIP3    H265072   2.275   0.387  15.809  0.1804  0.1580 -0.1109
14553TIP3   OH265073   3.770   0.059   3.718 -0.3183 -0.7641  0.2856
14553TIP3    H165074   3.734   0.079   3.631 -0.4718 -0.1603  0.4836
14553TIP3    H265075   3.696   0.071   3.778  0.1865  0.5191  0.7026
14554TIP3   OH265076   0.121   0.658  16.751  0.4135 -0.1010  0.1790
14554TIP3    H165077   0.077   0.741  16.730 -0.3829 -0.0933  1.7407
14554TIP3    H265078   0.214   0.682  16.760  0.7586 -0.0392 -2.7151
14555TIP3   OH265079   5.715   3.457  10.706  0.3805  0.1612  0.2716
14555TIP3    H165080   5.680   3.413  10.628  0.7603 -0.8103  0.6357
14555TIP3    H265081   5.641   3.461  10.766  0.2167  0.4660  0.0545
14556TIP3   OH265082   2.484   4.637  16.329  0.1459  0.3175  0.1542
14556TIP3    H165083   2.515   4.669  16.245 -0.0351  0.3230  0.0903
14556TIP3    H265084   2.424   4.565  16.308  1.5944 -0.9960  0.3358
14557TIP3   OH265085   1.497   0.352   4.696  0.5205 -0.7589 -0.2104
14557TIP3    H165086   1.522   0.293   4.767  2.7802 -1.4105 -1.4440
14557TIP3    H265087   1.580   0.388   4.664 -0.5988  1.1340 -1.1690
14558TIP3   OH265088   5.602   0.516  12.680 -0.1436  0.5148 -0.1573
14558TIP3    H165089   5.688   0.488  12.648  0.4668  0.7921  1.1957
14558TIP3    H265090   5.547   0.517  12.601  1.0738  0.3056 -1.0450
14559TIP3   OH265091   2.102   2.698   3.075  0.5018 -0.5257  0.0022
14559TIP3    H165092   2.020   2.695   3.026  0.9582 -2.0944 -0.7228
14559TIP3    H265093   2.086   2.644   3.153  1.3183 -2.2533 -0.9710
14560TIP3   OH265094   1.832   4.673  12.326 -0.1571 -0.5726 -0.3321
14560TIP3    H165095   1.756   4.667  12.383  0.3211 -0.9357  0.2867
14560TIP3    H265096   1.850   4.766  12.320  1.4795 -0.5847  2.4742
14561TIP3   OH265097   6.005   3.823  13.407  0.2453 -0.2004 -0.4491
14561TIP3    H165098   6.098   3.806  13.393  0.0124 -1.9973 -0.1199
14561TIP3    H265099   5.987   3.786  13.493 -0.6950  0.4979 -0.3362
14562TIP3   OH265100   2.688   2.915   2.840  0.3199 -0.5925  0.0787
14562TIP3    H165101   2.703   2.822   2.822  0.6441 -0.3716 -0.8545
14562TIP3    H265102   2.670   2.918   2.934 -0.2093 -1.6589  0.0347
14563TIP3   OH265103   3.216   5.798  14.403  0.1350 -0.2095  0.1549
14563TIP3    H165104   3.305   5.829  14.419 -0.0246  0.3857 -0.0785
14563TIP3    H265105   3.174   5.869  14.354 -0.2291 -0.8105 -0.4309
14564TIP3   OH265106   5.889   4.184  13.718 -0.0133  0.0304 -0.5124
14564TIP3    H165107   5.879   4.138  13.634 -1.2527  0.0003 -0.3736
14564TIP3    H265108   5.806   4.169  13.763 -0.0757  1.5982 -0.0500
14565TIP3   OH265109   6.550   6.448  14.116 -0.1339 -0.3434 -0.5260
14565TIP3    H165110   6.514   6.535  14.135  0.2431 -0.0303 -1.2115
14565TIP3    H265111   6.635   6.447  14.159  0.8722  0.4919 -2.3419
14566TIP3   OH265112   3.598   3.899  17.090  0.0645  0.2063  0.1071
14566TIP3    H165113   3.552   3.826  17.131  1.9308 -1.4546 -0.6054
14566TIP3    H265114   3.665   3.925  17.153 -0.2519  0.9556  0.1390
14567TIP3   OH265115   6.010   0.321   5.730 -0.2809  0.2275 -0.1975
14567TIP3    H165116   6.062   0.386   5.776 -1.0493  0.3409  0.5343
14567TIP3    H265117   6.074   0.260   5.694  0.7398  2.7074 -3.1502
14568TIP3   OH265118   3.846   6.429   5.727 -0.2131 -0.6656  0.3819
14568TIP3    H165119   3.804   6.415   5.812  0.2328 -0.3137  0.6622
14568TIP3    H265120   3.783   6.393   5.664 -1.0403  0.0401  0.7741
14569TIP3   OH265121   0.141   3.734  13.659  0.1012 -0.7499  0.6548
14569TIP3    H165122   0.110   3.703  13.744 -0.3865  0.2191  0.8384
14569TIP3    H265123   0.220   3.785  13.680 -0.8964  0.8291  0.7308
14570TIP3   OH265124   6.217   0.409   5.317  0.2496  0.2370  0.2766
14570TIP3    H165125   6.308   0.439   5.317  0.8442 -1.4787  0.9885
14570TIP3    H265126   6.178   0.453   5.393  0.6742  0.4311  0.3874
14571TIP3   OH265127   3.297   1.601   5.188 -0.3215 -0.0236 -0.7918
14571TIP3    H165128   3.317   1.688   5.154 -0.0274  0.8224  1.3823
14571TIP3    H265129   3.382   1.566   5.215 -0.6401 -0.2427 -0.0393
14572TIP3   OH265130   5.712   1.384   0.932  0.2147  0.0529 -0.6112
14572TIP3    H165131   5.708   1.459   0.873 -2.3828 -1.5624 -2.7252
14572TIP3    H265132   5.634   1.333   0.911  1.6314 -3.0408  0.9957
14573TIP3   OH265133   5.149   2.351   0.212  0.1477 -0.0995 -0.0856
14573TIP3    H165134   5.068   2.319   0.251  0.6279  0.4615  1.4288
14573TIP3    H265135   5.122   2.384   0.126 -1.0601 -0.7681  0.0133
14574TIP3   OH265136   1.608   3.850   1.280 -0.4508 -0.6282  0.0659
14574TIP3    H165137   1.553   3.773   1.294  0.8698 -2.2073 -2.6715
14574TIP3    H265138   1.621   3.853   1.185  0.8775  2.0648  0.2459
14575TIP3   OH265139   3.602   4.796  13.819  0.3771  0.0704  0.3869
14575TIP3    H165140   3.616   4.803  13.724 -0.1186  2.2115  0.4229
14575TIP3    H265141   3.646   4.872  13.856 -1.1166  0.3808  1.6605
14576TIP3   OH265142   2.499   3.877  13.853 -0.6540  0.1151  0.1698
14576TIP3    H165143   2.544   3.808  13.901 -2.0211 -0.6409  0.4275
14576TIP3    H265144   2.555   3.954  13.863  0.3906 -0.6921  0.7391
14577TIP3   OH265145   1.895   3.443  14.853 -0.4823  0.3515 -0.2446
14577TIP3    H165146   1.804   3.414  14.854 -0.5799  0.6314 -0.6977
14577TIP3    H265147   1.929   3.410  14.769 -0.0345 -0.1463  0.1247
14578TIP3   OH265148   5.771   5.344  15.823  0.6822  0.6111  0.1409
14578TIP3    H165149   5.772   5.357  15.728 -0.9158  0.1223  0.0183
14578TIP3    H265150   5.734   5.425  15.858  1.1647  0.7471  0.3430
14579TIP3   OH265151   4.838   5.122   0.225 -0.4701 -0.1426 -0.0932
14579TIP3    H165152   4.848   5.027   0.238 -1.1237  0.0970  2.7699
14579TIP3    H265153   4.759   5.131   0.172 -1.6534 -1.1829  1.4074
14580TIP3   OH265154   2.973   6.404  10.858 -0.2256 -0.3006  0.6733
14580TIP3    H165155   2.897   6.375  10.809 -0.2479  1.3378 -0.3414
14580TIP3    H265156   2.984   6.496  10.833  0.6340  0.1909  2.6552
14581TIP3   OH265157   0.942   5.397   4.872  0.2888 -0.3219 -0.1465
14581TIP3    H165158   0.990   5.354   4.943  1.4799  1.0522 -0.0745
14581TIP3    H265159   0.854   5.409   4.908  0.7137 -0.1680  0.8920
14582TIP3   OH265160   2.091   3.396  13.172  0.4963  0.3045  0.1376
14582TIP3    H165161   2.178   3.376  13.137  1.1365  3.4452 -0.3301
14582TIP3    H265162   2.076   3.328  13.237  1.8029 -2.3128 -2.0648
14583TIP3   OH265163   4.777   3.560   0.760  0.0026 -0.6586 -0.2616
14583TIP3    H165164   4.843   3.503   0.722 -0.1288 -1.8845  1.2828
14583TIP3    H265165   4.815   3.590   0.842 -0.0889  1.2163 -0.8536
14584TIP3   OH265166   2.358   6.183  13.656  0.5584 -0.1346  1.0064
14584TIP3    H165167   2.331   6.103  13.701 -0.3591 -0.4259 -0.0317
14584TIP3    H265168   2.280   6.239  13.657  1.0234  0.5262  1.2254
14585TIP3   OH265169   4.594   6.409  17.224 -0.1670 -0.1329 -0.0607
14585TIP3    H165170   4.596   6.323  17.183  0.4895 -0.4025  0.5090
14585TIP3    H265171   4.502   6.422  17.248 -0.5999  0.1316 -1.7835
14586TIP3   OH265172   0.823   5.030   3.018  0.6425 -0.3688 -0.1472
14586TIP3    H165173   0.864   4.988   3.094  1.6491  0.7907 -0.0007
14586TIP3    H265174   0.848   5.122   3.026 -0.4561  0.0465 -1.1111
14587TIP3   OH265175   3.893   2.755   4.373  0.3348  0.3827 -0.2620
14587TIP3    H165176   3.838   2.686   4.337  1.4162  0.7789 -2.8482
14587TIP3    H265177   3.980   2.716   4.381  0.8685  1.2877 -1.3813
14588TIP3   OH265178   5.390   1.985  13.551 -0.2429  0.4598 -0.3708
14588TIP3    H165179   5.413   2.019  13.465 -2.1059  1.0948 -0.6623
14588TIP3    H265180   5.313   1.931  13.536 -1.2688  1.4536  1.0280
14589TIP3   OH265181   0.073   2.507   0.638 -0.1892  0.0444 -0.0926
14589TIP3    H165182   0.135   2.557   0.691  0.9478 -0.1008 -1.2398
14589TIP3    H265183   0.128   2.458   0.576 -1.4805  0.4685 -1.6372
14590TIP3   OH265184   6.415   5.755   5.723  0.5875 -0.3153 -0.7742
14590TIP3    H165185   6.431   5.700   5.647 -0.2258 -1.6685  0.0021
14590TIP3    H265186   6.400   5.843   5.687  0.5346 -0.8662 -2.1319
14591TIP3   OH265187   5.246   3.356   5.920  0.1019  0.1710  0.0812
14591TIP3    H165188   5.160   3.387   5.890 -0.8642 -1.7039  0.7379
14591TIP3    H265189   5.235   3.262   5.931  2.1262 -0.0481  0.6768
14592TIP3   OH265190   3.485   2.530   2.478 -0.0438 -0.2034  0.0762
14592TIP3    H165191   3.499   2.572   2.563  0.5983 -0.6389  0.1947
14592TIP3    H265192   3.416   2.581   2.436  0.2155  0.5114  0.5192
14593TIP3   OH265193   2.607   5.094  15.089  0.9431 -0.0923 -0.2968
14593TIP3    H165194   2.567   5.124  15.171  0.2617 -0.9128 -0.3164
14593TIP3    H265195   2.549   5.127  15.020 -0.3240 -2.0930 -0.2872
14594TIP3   OH265196   3.103   5.953  12.068  0.1676 -0.2436 -0.9403
14594TIP3    H165197   3.030   5.928  12.011 -1.3540  1.8382 -0.0077
14594TIP3    H265198   3.171   5.983  12.008 -1.6868  2.6819 -1.7807
14595TIP3   OH265199   3.144   1.002   3.615  0.2108  0.1148 -0.1559
14595TIP3    H165200   3.106   0.930   3.665  0.0768  0.3039  0.0192
14595TIP3    H265201   3.095   1.004   3.533 -0.5956  0.7528  0.3198
14596TIP3   OH265202   0.944   2.331  13.755  0.3686 -0.0421 -0.3800
14596TIP3    H165203   1.010   2.264  13.777 -0.1807  0.2599  2.6377
14596TIP3    H265204   0.882   2.328  13.828 -0.4784  2.7768 -0.8712
14597TIP3   OH265205   6.757   6.637  13.948 -0.6938 -0.0092  0.3962
14597TIP3    H165206   6.745   6.697  14.021 -1.7398 -0.3309  0.5008
14597TIP3    H265207   6.704   6.673  13.877 -0.4868 -0.2391  0.1191
14598TIP3   OH265208   0.514   0.025  15.209  0.4385 -0.3509  0.6121
14598TIP3    H165209   0.454   0.035  15.135 -1.5129 -1.8225  1.8855
14598TIP3    H265210   0.519   0.113  15.247  0.5568  0.1746 -0.5519
14599TIP3   OH265211   6.180   0.993   4.383  0.1128 -0.2395  0.4160
14599TIP3    H165212   6.121   1.064   4.357  0.6911  0.3662  0.7122
14599TIP3    H265213   6.185   0.936   4.306 -0.9985 -0.4025  0.4560
14600TIP3   OH265214   4.302   6.430  12.265  0.0195  0.0227  0.0815
14600TIP3    H165215   4.396   6.443  12.253 -0.1017  0.4226 -0.5182
14600TIP3    H265216   4.271   6.402  12.178 -0.1244 -1.9642  0.7263
14601TIP3   OH265217   2.974   5.846  14.589 -1.0264 -0.2573 -0.5379
14601TIP3    H165218   2.979   5.764  14.638 -0.3226  0.1854  0.1568
14601TIP3    H265219   3.061   5.857  14.552 -1.3185 -0.1626 -1.2097
14602TIP3   OH265220   6.263   1.458  14.785  0.3110 -1.0171 -0.2282
14602TIP3    H165221   6.291   1.454  14.877 -2.6932 -1.6743  0.7781
14602TIP3    H265222   6.335   1.416  14.737  2.4968  0.3333  1.6205
14603TIP3   OH265223   2.751   1.778  14.060 -0.4727 -0.2078 -0.0671
14603TIP3    H165224   2.768   1.718  13.987 -1.1826 -0.8550  0.2835
14603TIP3    H265225   2.678   1.738  14.107  0.0958  0.1151  1.1057
14604TIP3   OH265226   4.921   3.910  16.062  0.4782 -0.5547  0.0378
14604TIP3    H165227   4.865   3.837  16.089 -0.8296  0.3409 -0.2012
14604TIP3    H265228   4.891   3.984  16.114  0.7723  0.1804 -0.8147
14605TIP3   OH265229   5.833   5.889  13.918 -0.3445  0.4154 -0.0014
14605TIP3    H165230   5.880   5.963  13.956 -1.2317  0.1612  1.7122
14605TIP3    H265231   5.875   5.812  13.956  1.3180 -0.0942 -2.6427
14606TIP3   OH265232   1.919   2.691   6.630  0.9504 -0.0844  0.2513
14606TIP3    H165233   1.885   2.611   6.670  0.4718  0.6303  1.3312
14606TIP3    H265234   1.956   2.740   6.704  1.1038  0.7480 -0.3674
14607TIP3   OH265235   3.241   0.025  16.342  0.3105 -0.9898 -0.7513
14607TIP3    H165236   3.263   0.033  16.249 -2.4335 -2.4875 -1.6483
14607TIP3    H265237   3.307  -0.035  16.377  0.7795 -1.2323 -1.9949
14608TIP3   OH265238   3.408   6.234  16.287 -0.0803  0.0702  0.2479
14608TIP3    H165239   3.331   6.216  16.233 -0.4926 -0.5580  1.0188
14608TIP3    H265240   3.441   6.318  16.256  0.4915 -0.8742 -1.9037
14609TIP3   OH265241   1.392   4.584  11.643  0.0671  0.2340 -0.6908
14609TIP3    H165242   1.431   4.622  11.722 -2.2271  0.3885  0.4412
14609TIP3    H265243   1.298   4.595  11.655 -0.3599  0.2166 -3.4578
14610TIP3   OH265244   4.237   4.392  16.345  0.3790  0.1927  0.5571
14610TIP3    H165245   4.285   4.470  16.317  1.8809 -1.1611 -0.7939
14610TIP3    H265246   4.301   4.321  16.342 -1.3014 -1.3893  0.3103
14611TIP3   OH265247   3.464   0.254  14.136 -0.3253 -0.1948 -0.2007
14611TIP3    H165248   3.387   0.311  14.140  0.8191  1.3366  1.1609
14611TIP3    H265249   3.482   0.232  14.227  0.6881 -0.7648 -0.5273
14612TIP3   OH265250   0.224   3.043   5.327 -0.2104 -0.4206 -0.1062
14612TIP3    H165251   0.257   3.020   5.414 -3.4671 -1.0052  1.0811
14612TIP3    H265252   0.139   3.000   5.321 -0.9374  1.1806 -2.8584
14613TIP3   OH265253   1.332   1.422  11.727 -0.4151  0.0336 -0.3688
14613TIP3    H165254   1.262   1.465  11.678  1.0512  0.2862 -2.3878
14613TIP3    H265255   1.314   1.444  11.818 -2.1441  1.2700 -0.9359
14614TIP3   OH265256   5.104   1.477   1.796  0.0840  0.0060  0.7603
14614TIP3    H165257   5.017   1.458   1.760 -0.4138 -0.2776  2.0629
14614TIP3    H265258   5.111   1.420   1.873  1.1014  0.6083  1.1313
14615TIP3   OH265259   2.178   5.973  17.241  0.1861  0.0864  0.0780
14615TIP3    H165260   2.154   6.050  17.189 -1.2169  1.9966  3.2167
14615TIP3    H265261   2.112   5.907  17.217  1.0275 -0.0230 -2.1979
14616TIP3   OH265262   6.312   1.564  11.828  0.0600 -0.2181 -0.4592
14616TIP3    H165263   6.275   1.566  11.917  1.2382  0.2546  0.0388
14616TIP3    H265264   6.243   1.600  11.773 -0.8237 -0.8320  0.2039
14617TIP3   OH265265   0.029   1.966   0.998  0.0403 -0.5653 -0.6059
14617TIP3    H165266   0.124   1.960   1.008 -0.1033  0.2656  2.4863
14617TIP3    H265267  -0.002   1.876   1.005  0.5590 -0.7253 -0.3055
14618TIP3   OH265268   6.217   6.581  10.959 -0.1092  0.5350 -0.4222
14618TIP3    H165269   6.129   6.552  10.936 -0.0700  0.2947 -0.2786
14618TIP3    H265270   6.204   6.662  11.007 -0.1384  1.5886 -2.1218
14619TIP3   OH265271   1.904   3.181  12.181 -0.0698 -0.2163  0.5046
14619TIP3    H165272   1.955   3.122  12.237 -0.2314 -0.1753  0.6973
14619TIP3    H265273   1.893   3.260  12.234  0.9290  0.3491 -0.0963
14620TIP3   OH265274   2.590   1.393   3.082 -0.5581 -0.4158 -0.8090
14620TIP3    H165275   2.592   1.394   3.178 -1.2174  1.6778 -0.7841
14620TIP3    H265276   2.675   1.355   3.058 -0.1050 -0.3688  0.5961
14621TIP3   OH265277   1.179   5.007  15.968  0.3155 -0.2416 -0.1478
14621TIP3    H165278   1.159   4.939  15.903 -0.0899 -0.1174 -0.1560
14621TIP3    H265279   1.111   5.073  15.956 -0.5758 -0.8499  1.3056
14622TIP3   OH265280   3.403   0.957   1.581  0.1537  0.4848 -0.0371
14622TIP3    H165281   3.438   0.873   1.553  1.6174  0.9579  0.2998
14622TIP3    H265282   3.471   0.994   1.638 -0.5727  1.7782  0.0311
14623TIP3   OH265283   1.796   1.832  16.938 -0.5110  0.1599 -0.1425
14623TIP3    H165284   1.830   1.877  17.016 -0.7196 -0.1942  0.1568
14623TIP3    H265285   1.869   1.833  16.876 -0.5447  0.9914 -0.1744
14624TIP3   OH265286   4.333   1.339  17.037  0.3787 -0.2274 -0.3527
14624TIP3    H165287   4.353   1.294  16.955  0.6017  0.4367 -0.6602
14624TIP3    H265288   4.380   1.422  17.032 -0.0760  0.0704  0.1961
14625TIP3   OH265289   0.026   5.818   4.461  0.0127 -0.1174  0.2264
14625TIP3    H165290  -0.018   5.903   4.469 -0.5877 -0.4976  1.1043
14625TIP3    H265291  -0.043   5.759   4.431  0.2831 -0.4251  0.2115
14626TIP3   OH265292   5.671   3.331  14.859 -0.0017  0.0108 -0.1473
14626TIP3    H165293   5.638   3.259  14.913 -1.1734 -0.3215 -1.2556
14626TIP3    H265294   5.673   3.295  14.770 -0.8636  1.4129 -0.7684
14627TIP3   OH265295   2.636   1.234  17.154  0.0639 -0.4593  0.0169
14627TIP3    H165296   2.627   1.142  17.180 -0.2508 -0.4312  0.0105
14627TIP3    H265297   2.593   1.283  17.225  2.5780 -0.1325  1.4472
14628TIP3   OH265298   1.474   3.352   6.850  0.1093  0.8730 -0.4296
14628TIP3    H165299   1.505   3.262   6.836 -1.0476  0.5134 -0.8107
14628TIP3    H265300   1.462   3.388   6.762  0.5889  1.4203 -0.2789
14629TIP3   OH265301   6.637   4.305  13.688  0.2945 -0.4912 -0.1905
14629TIP3    H165302   6.626   4.241  13.617 -3.7334 -0.1484 -0.0895
14629TIP3    H265303   6.681   4.379  13.646 -0.2741 -1.0429 -1.8574
14630TIP3   OH265304   0.393   6.606  12.194  0.3382  0.4087  0.3266
14630TIP3    H165305   0.394   6.597  12.098  1.5043  0.5461  0.3050
14630TIP3    H265306   0.391   6.516  12.226  0.7367  0.3407  0.1674
14631TIP3   OH265307   5.217   0.009   3.499 -0.1488 -0.2941 -0.2617
14631TIP3    H165308   5.311  -0.012   3.503  0.0231  0.3708 -0.6978
14631TIP3    H265309   5.175  -0.074   3.476  0.2194 -0.8440  0.9566
14632TIP3   OH265310   2.012   6.578  15.114  0.0867 -0.1076  0.7010
14632TIP3    H165311   2.016   6.491  15.154  1.4152 -0.2078  0.3822
14632TIP3    H265312   1.945   6.570  15.046 -0.0304 -0.7819  0.8828
14633TIP3   OH265313   2.050   6.697   4.002 -0.7568 -0.0416 -0.1820
14633TIP3    H165314   2.040   6.607   3.969 -0.0242 -0.3034  0.2791
14633TIP3    H265315   2.115   6.736   3.944  0.8218 -0.6203  1.0925
14634TIP3   OH265316   2.744   3.029   1.651 -0.1905  0.3597  0.3147
14634TIP3    H165317   2.730   3.111   1.699 -0.7725  0.7168 -0.4360
14634TIP3    H265318   2.818   3.047   1.593 -1.3119  0.9063 -1.0013
14635TIP3   OH265319   2.885   4.449  11.978  0.0586  0.1924 -0.0390
14635TIP3    H165320   2.811   4.402  11.940  0.6670  0.6823 -1.9666
14635TIP3    H265321   2.959   4.389  11.969  0.3108  0.5101 -0.1038
14636TIP3   OH265322   5.174   4.655   0.173 -0.1720  0.1755 -0.5251
14636TIP3    H165323   5.087   4.616   0.181  1.1760 -2.9138  0.5031
14636TIP3    H265324   5.204   4.627   0.087 -1.2287  3.8428 -2.2659
14637TIP3   OH265325   6.086   2.986   0.544 -0.1434 -0.5192  0.1264
14637TIP3    H165326   6.175   3.015   0.560 -1.0161  1.7820  1.1993
14637TIP3    H265327   6.085   2.960   0.451  1.8713 -1.7484  0.3958
14638TIP3   OH265328   4.269   0.504   5.124  0.1381 -0.1814 -1.1546
14638TIP3    H165329   4.224   0.471   5.046  1.5099  0.6432 -2.3581
14638TIP3    H265330   4.307   0.587   5.095  1.6487 -0.4194  0.0629
14639TIP3   OH265331   5.321   1.649   4.651 -0.2608 -0.1635 -0.2767
14639TIP3    H165332   5.395   1.691   4.607  0.0118  0.4091  0.6981
14639TIP3    H265333   5.247   1.664   4.593 -0.0063  0.9781 -0.3242
14640TIP3   OH265334   1.437   4.093  14.178  0.3037  0.2188  0.5658
14640TIP3    H165335   1.366   4.145  14.139 -0.3341 -0.2498  1.0905
14640TIP3    H265336   1.513   4.112  14.122 -0.2611  0.6191 -0.0913
14641TIP3   OH265337   0.886   3.824  14.270 -0.0849  0.4155  0.2828
14641TIP3    H165338   0.965   3.878  14.261 -0.1885  0.6531  0.7863
14641TIP3    H265339   0.859   3.807  14.180  1.9050 -1.7022 -0.0276
14642TIP3   OH265340   5.731   0.998  11.236  0.0704  0.1074  0.0512
14642TIP3    H165341   5.695   0.960  11.317  0.0331  0.8861  0.4055
14642TIP3    H265342   5.655   1.008  11.179  0.0708 -0.2796 -0.0247
14643TIP3   OH265343   3.269   1.923   4.352  0.2754  0.0604  0.2708
14643TIP3    H165344   3.333   1.985   4.316  0.7541  0.0579  1.0849
14643TIP3    H265345   3.211   1.903   4.279  0.8334  0.5500 -0.3195
14644TIP3   OH265346   5.288   6.171   2.764  0.3966  0.6982  0.0376
14644TIP3    H165347   5.247   6.253   2.737 -2.1384 -1.0711 -1.9566
14644TIP3    H265348   5.240   6.145   2.843 -0.0570  0.2364 -0.3903
14645TIP3   OH265349   4.797   3.305   1.821 -0.0233  0.1668 -0.8810
14645TIP3    H165350   4.746   3.360   1.762 -1.3702 -0.2257 -0.1184
14645TIP3    H265351   4.733   3.269   1.883  1.0391 -1.0564 -0.4371
14646TIP3   OH265352   3.304   1.838  11.627  0.0543 -0.0006  0.0379
14646TIP3    H165353   3.324   1.916  11.574 -2.8900  1.4263  0.8115
14646TIP3    H265354   3.210   1.824  11.613  0.4935 -3.5181 -0.1162
14647TIP3   OH265355   6.156   2.004   2.615 -0.0358  0.3827  0.5679
14647TIP3    H165356   6.251   2.016   2.611 -0.1168  0.9400  0.1512
14647TIP3    H265357   6.141   1.949   2.691  0.5631  0.9677  1.1177
14648TIP3   OH265358   0.613   1.861  15.861  0.5484 -0.2023  0.5099
14648TIP3    H165359   0.528   1.822  15.879 -0.0641  1.4788  1.4606
14648TIP3    H265360   0.646   1.888  15.947  2.4276 -1.5209  0.2670
14649TIP3   OH265361   4.146   6.633  12.052  0.0563 -0.4663 -0.1053
14649TIP3    H165362   4.186   6.549  12.030  0.5052 -0.5877  1.0647
14649TIP3    H265363   4.209   6.674  12.112  0.1244  0.9751 -1.1115
14650TIP3   OH265364   4.752   3.661   0.436 -0.1793  0.4202  0.5988
14650TIP3    H165365   4.825   3.697   0.486  0.8001  0.2420 -0.6348
14650TIP3    H265366   4.787   3.650   0.348 -1.5706 -0.1126  0.0824
14651TIP3   OH265367   2.441   3.896  12.498 -0.1304  0.1634 -0.0012
14651TIP3    H165368   2.510   3.833  12.519 -2.3678 -1.3293  3.6895
14651TIP3    H265369   2.402   3.862  12.417  1.7470 -0.3227 -0.7763
14652TIP3   OH265370   0.652   3.072  14.847 -0.8480  0.2337  0.3024
14652TIP3    H165371   0.647   3.062  14.942 -2.0606 -0.6097  0.1807
14652TIP3    H265372   0.618   3.160  14.831 -1.9452 -0.1113  0.5875
14653TIP3   OH265373   3.806   1.584   1.856  0.0891  0.4454 -0.0491
14653TIP3    H165374   3.897   1.591   1.827  0.7131 -1.2743  1.3054
14653TIP3    H265375   3.766   1.522   1.795  0.6573 -1.0417  1.0258
14654TIP3   OH265376   1.043   1.103   1.718 -0.4244  0.1112 -0.0889
14654TIP3    H165377   1.137   1.118   1.709 -0.5499  0.8652 -0.1844
14654TIP3    H265378   1.006   1.189   1.739 -0.9467 -0.3902  1.1459
14655TIP3   OH265379   4.841   0.811   3.410 -0.2973  0.3338  0.1099
14655TIP3    H165380   4.804   0.808   3.321  0.2802  0.9639 -0.1600
14655TIP3    H265381   4.891   0.730   3.418 -2.7846 -1.2311  0.9785
14656TIP3   OH265382   6.380   0.361   2.119 -0.4546 -0.1468 -0.4534
14656TIP3    H165383   6.429   0.279   2.114  1.6038  0.7211  2.4134
14656TIP3    H265384   6.370   0.377   2.213 -2.3344  2.0456 -0.9245
14657TIP3   OH265385   6.591   5.050  15.283 -0.2325  0.6631  0.1108
14657TIP3    H165386   6.639   5.130  15.258 -1.0480  0.9416 -0.6182
14657TIP3    H265387   6.621   4.985  15.220 -0.3724  0.6825  0.0237
14658TIP3   OH265388   1.814   3.934   5.706 -0.1335  0.1673  0.2789
14658TIP3    H165389   1.899   3.976   5.697 -0.5353  0.8612 -0.3520
14658TIP3    H265390   1.805   3.918   5.800  1.0335 -0.6617  0.2725
14659TIP3   OH265391   5.807   6.103  12.588  0.1657  0.3825  0.1838
14659TIP3    H165392   5.857   6.183  12.576 -0.0944  0.4844 -0.2018
14659TIP3    H265393   5.820   6.053  12.507  0.7495 -0.2004  0.6215
14660TIP3   OH265394   4.941   2.471   0.438  0.0046  0.4398 -0.4600
14660TIP3    H165395   4.867   2.530   0.454  0.2159  0.8454 -0.9476
14660TIP3    H265396   4.905   2.403   0.381  0.6155  2.0767 -2.9526
14661TIP3   OH265397   1.315   5.811   3.950 -0.6793  0.3275  0.0616
14661TIP3    H165398   1.278   5.731   3.988 -0.0291 -0.5746 -1.1447
14661TIP3    H265399   1.251   5.838   3.884  0.7332 -1.3020 -2.1127
14662TIP3   OH265400   2.779   6.463  12.521  0.0121 -0.5500 -0.7816
14662TIP3    H165401   2.748   6.528  12.458 -0.7461  1.2502  1.3086
14662TIP3    H265402   2.859   6.501  12.558 -0.5433 -0.6545  0.6059
14663TIP3   OH265403   5.649   2.568   4.508  0.0509 -0.3708 -0.0231
14663TIP3    H165404   5.721   2.610   4.555  1.2674  0.4988 -2.5133
14663TIP3    H265405   5.664   2.474   4.520  1.8120 -0.2070 -0.7365
14664TIP3   OH265406   2.454   5.058   5.304  0.2168 -0.2883  0.0469
14664TIP3    H165407   2.465   5.057   5.209 -0.2463 -0.6611 -0.0066
14664TIP3    H265408   2.370   5.102   5.318  0.6913  0.5367  0.3309
14665TIP3   OH265409   6.112   0.974  12.921 -0.7475 -0.0100  0.0647
14665TIP3    H165410   6.127   1.046  12.982 -1.0738  0.8268 -0.8164
14665TIP3    H265411   6.121   1.014  12.834 -2.1795 -0.7462 -0.4530
14666TIP3   OH265412   4.743   6.457  15.171 -0.1950  0.3442  0.1880
14666TIP3    H165413   4.711   6.376  15.130 -0.9691  0.4353  0.5987
14666TIP3    H265414   4.738   6.522  15.102 -1.4358  0.4819  0.3788
14667TIP3   OH265415   5.723   5.157  17.148  0.3105 -0.9541  0.0389
14667TIP3    H165416   5.639   5.152  17.102 -0.0764 -2.6975  0.8473
14667TIP3    H265417   5.710   5.224  17.215 -0.3179 -0.9664 -0.0664
14668TIP3   OH265418   4.614   5.472  13.003 -0.4744 -0.1293 -0.3838
14668TIP3    H165419   4.562   5.553  13.005  0.0535  0.2164 -0.6526
14668TIP3    H265420   4.664   5.477  12.922  0.6477 -0.0351  0.2981
14669TIP3   OH265421   1.012   6.353   3.604 -0.3227 -0.2834  0.4882
14669TIP3    H165422   0.937   6.294   3.593  1.5456 -2.6057 -0.8492
14669TIP3    H265423   1.052   6.326   3.686  0.3391 -0.7161  0.0406
14670TIP3   OH265424   4.889   6.251   2.061 -0.3369 -0.1602 -0.0880
14670TIP3    H165425   4.977   6.284   2.045 -0.8926  0.2399 -2.8898
14670TIP3    H265426   4.831   6.323   2.036 -1.4779 -1.0333 -0.0726
14671TIP3   OH265427   3.880   4.460  11.619  0.2831 -0.6118  0.4024
14671TIP3    H165428   3.890   4.393  11.551  0.2133 -0.7138  0.4903
14671TIP3    H265429   3.966   4.466  11.660  1.4743  2.1964 -2.1749
14672TIP3   OH265430   5.924   1.068  11.816  0.6382 -0.8225  0.3572
14672TIP3    H165431   5.854   1.034  11.872  0.0139  0.3050  0.2941
14672TIP3    H265432   5.990   0.998  11.815 -0.2440 -1.6921  0.8419
14673TIP3   OH265433   5.357   0.958   0.919  0.0614 -0.4686  0.3999
14673TIP3    H165434   5.296   0.896   0.879 -0.4858  0.4926 -0.2852
14673TIP3    H265435   5.303   1.011   0.977  0.0919  0.7859 -0.6656
14674TIP3   OH265436   5.387   6.384  11.116 -0.0045  0.1940 -0.4832
14674TIP3    H165437   5.461   6.432  11.154  0.8040 -0.5411 -1.0731
14674TIP3    H265438   5.421   6.295  11.103 -1.9251 -1.0411  2.0663
14675TIP3   OH265439   5.965   3.661  16.649 -0.5759  0.1037 -0.1711
14675TIP3    H165440   5.954   3.715  16.727 -1.6114 -0.6131  0.1941
14675TIP3    H265441   6.000   3.578  16.682  0.1241  0.2081 -0.6193
14676TIP3   OH265442   3.161   5.735  15.142 -0.0693 -0.1447 -0.2235
14676TIP3    H165443   3.079   5.740  15.192 -1.7653 -0.6055 -2.7858
14676TIP3    H265444   3.191   5.645  15.154 -2.0442 -1.1610 -2.2478
14677TIP3   OH265445   2.442   0.207  12.867 -0.4026  0.3318  0.1820
14677TIP3    H165446   2.390   0.273  12.912 -0.6783  0.5217 -0.3961
14677TIP3    H265447   2.507   0.257  12.818 -1.1437  0.2533 -0.9373
14678TIP3   OH265448   3.245   1.000  12.811 -0.2208  0.7389 -0.4125
14678TIP3    H165449   3.182   1.030  12.744 -0.3726 -0.4600 -0.8233
14678TIP3    H265450   3.331   1.012  12.770 -0.1459  2.4348  0.1712
14679TIP3   OH265451   4.217   2.869   4.027 -0.2383 -0.5715 -0.1629
14679TIP3    H165452   4.212   2.950   3.976  1.1380 -0.8942 -0.8716
14679TIP3    H265453   4.218   2.898   4.118 -1.6379  0.0753 -0.3316
14680TIP3   OH265454   5.773   2.302  13.431 -0.1704  0.2303 -0.4317
14680TIP3    H165455   5.784   2.390  13.396  0.6821  0.2900 -0.0286
14680TIP3    H265456   5.705   2.311  13.497  0.2751  0.6964 -0.0304
14681TIP3   OH265457   1.404   0.984  16.680  0.0955 -0.2593  0.5971
14681TIP3    H165458   1.369   1.002  16.768  1.1275  0.5050  0.8702
14681TIP3    H265459   1.490   1.024  16.680  0.3974 -0.8666 -0.5471
14682TIP3   OH265460   0.254   5.203   5.956  0.1563  0.0196 -0.8252
14682TIP3    H165461   0.264   5.122   5.907 -1.1360 -0.3119 -0.5835
14682TIP3    H265462   0.159   5.218   5.959  0.3393  1.2203 -0.3583
14683TIP3   OH265463   5.807   2.861  15.546 -0.2855  0.4282 -0.3271
14683TIP3    H165464   5.787   2.873  15.639 -0.2696 -2.2343  0.0915
14683TIP3    H265465   5.901   2.880  15.540  0.0770 -0.8763  0.5716
14684TIP3   OH265466   4.831   4.330  15.205 -0.6780  0.3158  0.5138
14684TIP3    H165467   4.851   4.404  15.263  0.8427  1.7740 -1.7324
14684TIP3    H265468   4.761   4.363  15.148  0.6621  0.4120 -1.1195
14685TIP3   OH265469   2.920   2.126   4.026  0.6543 -0.2394  0.2602
14685TIP3    H165470   2.861   2.201   4.024 -0.3274 -0.9425  1.0908
14685TIP3    H265471   2.945   2.112   3.935  0.9733  1.1638  0.1102
14686TIP3   OH265472   2.928   6.355   3.873 -0.0679 -0.5421  0.5405
14686TIP3    H165473   2.864   6.401   3.818 -0.2726 -1.5286 -0.0697
14686TIP3    H265474   2.893   6.363   3.962  0.8807  2.1060  0.7643
14687TIP3   OH265475   0.926   1.035   0.732  0.5404 -0.0312  0.0182
14687TIP3    H165476   0.852   1.094   0.720 -0.1208 -0.8642 -0.1146
14687TIP3    H265477   0.889   0.957   0.774  0.8684 -1.4010 -2.0590
14688TIP3   OH265478   0.963   0.049  16.196  0.0882 -0.3440 -0.3702
14688TIP3    H165479   0.890   0.084  16.247 -1.3959 -1.8141 -1.3748
14688TIP3    H265480   0.977   0.114  16.127 -0.0918  0.0965  0.0074
14689TIP3   OH265481   0.247   0.071  11.963  0.4284  0.5279 -0.3343
14689TIP3    H165482   0.281   0.159  11.980  0.2095  0.6095 -0.3077
14689TIP3    H265483   0.324   0.015  11.959  0.4919  0.4990  0.9504
14690TIP3   OH265484   5.609   5.637   2.079  0.0981  0.4390 -0.1065
14690TIP3    H165485   5.637   5.591   2.000 -0.5250  0.2627 -0.2341
14690TIP3    H265486   5.609   5.730   2.053 -1.2304  0.3064 -0.7058
14691TIP3   OH265487   3.628   0.806   2.280  0.1857 -0.5360  0.0275
14691TIP3    H165488   3.545   0.847   2.305 -0.9283 -0.7465 -2.9453
14691TIP3    H265489   3.618   0.714   2.304  0.9930  0.0009  2.7666
14692TIP3   OH265490   1.308   4.064   4.192  0.2661 -0.1725  1.2792
14692TIP3    H165491   1.276   4.034   4.277 -0.8366  2.1905  1.7906
14692TIP3    H265492   1.229   4.083   4.142  0.9035 -1.4078 -0.2622
14693TIP3   OH265493   0.649   3.727  15.713 -0.1477 -0.3704  0.7222
14693TIP3    H165494   0.569   3.677  15.694  0.1453 -0.5693 -0.0022
14693TIP3    H265495   0.636   3.811  15.669 -0.5404  0.1231  1.7517
14694TIP3   OH265496   3.296   0.581  12.983  0.4788 -0.0068 -0.3918
14694TIP3    H165497   3.294   0.673  12.957 -1.2247  0.4349  1.0888
14694TIP3    H265498   3.301   0.583  13.079 -3.3786 -1.2971  0.0103
14695TIP3   OH265499   3.534   2.985   2.317 -0.0722 -0.4540  0.0038
14695TIP3    H165500   3.443   2.982   2.286 -0.1561  2.3445 -0.2663
14695TIP3    H265501   3.531   2.945   2.404 -1.7735  0.4192  0.3852
14696TIP3   OH265502   2.332   1.129  17.227 -0.3333 -0.3641  0.3667
14696TIP3    H165503   2.275   1.203  17.206 -1.0765 -0.8221  0.7203
14696TIP3    H265504   2.385   1.160  17.300 -0.3527 -0.0400  0.2436
14697TIP3   OH265505   6.537   5.592   5.180 -0.0671 -0.4191  0.4929
14697TIP3    H165506   6.461   5.541   5.153 -0.1969 -0.1775  0.4057
14697TIP3    H265507   6.519   5.681   5.150  0.7497 -0.5740 -0.5335
14698TIP3   OH265508   5.467   4.121  16.703  0.0401  0.1527  0.5868
14698TIP3    H165509   5.543   4.168  16.670  0.6307  0.0002  1.6866
14698TIP3    H265510   5.399   4.135  16.637  1.2344 -0.3479 -0.8070
14699TIP3   OH265511   4.867   5.820  11.610 -0.6827 -0.6824 -0.2778
14699TIP3    H165512   4.828   5.785  11.690 -0.0786 -0.8983 -0.0742
14699TIP3    H265513   4.818   5.900  11.592 -1.4555 -1.1333 -0.2283
14700TIP3   OH265514   3.199   5.030   6.491  0.2465 -0.2542  0.2301
14700TIP3    H165515   3.131   5.009   6.555 -0.3595  0.3742 -0.1873
14700TIP3    H265516   3.190   5.125   6.478  0.6922 -0.2983 -0.4074
14701TIP3   OH265517   2.071   3.545   3.665 -0.4528 -0.9340 -0.3621
14701TIP3    H165518   2.092   3.595   3.586 -0.9883  1.4433  0.9134
14701TIP3    H265519   2.098   3.455   3.644  0.0342 -0.2684 -2.9727
14702TIP3   OH265520   4.306   3.049  13.635 -0.0407  0.9690  0.1152
14702TIP3    H165521   4.230   3.045  13.577  0.0487 -2.5938  0.0446
14702TIP3    H265522   4.296   2.974  13.693  3.9848 -0.5234 -0.7617
14703TIP3   OH265523   6.615   0.312   2.506 -0.0658  0.1527  0.0569
14703TIP3    H165524   6.646   0.264   2.583 -3.2316 -1.5581  0.4865
14703TIP3    H265525   6.607   0.245   2.438  1.3824  1.3852 -1.3916
14704TIP3   OH265526   5.457   5.010   1.579  0.0513 -0.7349 -0.8360
14704TIP3    H165527   5.461   4.958   1.499 -1.7487  0.1209 -1.5330
14704TIP3    H265528   5.382   5.068   1.566 -1.1692 -1.5102  2.0432
14705TIP3   OH265529   0.457   5.551   2.881 -0.1600  0.9021  0.0879
14705TIP3    H165530   0.418   5.639   2.881 -2.0815  0.1154 -0.0145
14705TIP3    H265531   0.502   5.544   2.797 -1.2752  1.2997 -0.5648
14706TIP3   OH265532   2.044   6.299  15.166 -0.3256  0.0058  0.1824
14706TIP3    H165533   2.084   6.229  15.219 -0.0656 -0.9699 -1.2594
14706TIP3    H265534   2.053   6.269  15.076 -2.0813  0.9539 -0.3385
14707TIP3   OH265535   5.735   2.259  17.247 -0.5247  1.0107  0.0404
14707TIP3    H165536   5.802   2.199  17.277  0.4852  2.1562  0.1538
14707TIP3    H265537   5.653   2.210  17.257  0.3922 -1.0067 -1.6371
14708TIP3   OH265538   0.867   2.655  10.625  0.1660 -0.2707  0.5398
14708TIP3    H165539   0.776   2.650  10.654 -1.6274  3.6324 -3.2019
14708TIP3    H265540   0.901   2.732  10.670  0.1058  0.7805 -1.1173
14709TIP3   OH265541   4.694   5.330   1.726  0.4470 -0.4037 -0.0618
14709TIP3    H165542   4.699   5.303   1.634  0.0574  0.5713 -0.3832
14709TIP3    H265543   4.623   5.394   1.728  0.0029 -0.9100  1.0537
14710TIP3   OH265544   4.714   6.466   3.697 -0.4359 -0.4350 -0.4557
14710TIP3    H165545   4.623   6.472   3.668 -0.5851  1.4530  0.2388
14710TIP3    H265546   4.716   6.517   3.778  1.3530 -0.0234 -0.7233
14711TIP3   OH265547   4.648   0.324   0.819  0.0112 -0.3387  0.5189
14711TIP3    H165548   4.721   0.324   0.882  0.5507 -0.6269 -0.0977
14711TIP3    H265549   4.652   0.238   0.777 -0.5606 -0.2789  0.3292
14712TIP3   OH265550   5.540   1.693   3.251  0.3654 -0.4047 -0.6031
14712TIP3    H165551   5.519   1.626   3.185  2.0474  0.1437 -1.7628
14712TIP3    H265552   5.572   1.767   3.200 -2.3082  1.7224  0.5816
14713TIP3   OH265553   2.830   3.195  13.329  0.0921  0.2264  0.2459
14713TIP3    H165554   2.801   3.212  13.239  0.4281 -1.5957 -0.2444
14713TIP3    H265555   2.915   3.240  13.335 -0.8018  1.9918  0.3203
14714TIP3   OH265556   6.323   1.851  13.306 -0.1936  0.0972  0.5010
14714TIP3    H165557   6.389   1.863  13.237  0.5662  0.0840  1.2117
14714TIP3    H265558   6.372   1.817  13.381 -1.0509 -0.1223  0.9746
14715TIP3   OH265559   2.810   2.598   0.241  0.1049  0.0496 -0.2724
14715TIP3    H165560   2.853   2.671   0.196  1.3430 -0.6103 -0.1786
14715TIP3    H265561   2.781   2.540   0.170  1.9200 -0.9138 -0.2869
14716TIP3   OH265562   2.518   5.650   5.207  0.7236 -0.2073 -0.2030
14716TIP3    H165563   2.526   5.718   5.141  3.2133 -0.4421 -0.2368
14716TIP3    H265564   2.431   5.613   5.193  0.2529  1.3616 -1.7368
14717TIP3   OH265565   0.693   4.279   6.467 -0.2291  0.6119  0.1601
14717TIP3    H165566   0.605   4.313   6.484 -0.0432  0.2460  2.0533
14717TIP3    H265567   0.681   4.210   6.402 -1.2003  1.2002 -0.3013
14718TIP3   OH265568   4.753   0.535   5.048  0.1580 -0.7376  0.2320
14718TIP3    H165569   4.790   0.469   5.107 -0.9504 -0.9413  0.7331
14718TIP3    H265570   4.703   0.593   5.106  0.5170  0.1155 -0.2984
14719TIP3   OH265571   0.915   1.549   6.185 -0.2769  0.1410 -0.2516
14719TIP3    H165572   0.960   1.527   6.266  0.4062  0.0845 -0.6408
14719TIP3    H265573   0.822   1.548   6.208 -0.1190 -0.4582  0.3901
14720TIP3   OH265574   4.920   4.974   1.573  0.0893  0.0829 -0.3050
14720TIP3    H165575   4.830   4.976   1.605  0.1638 -2.0051  0.2064
14720TIP3    H265576   4.959   5.055   1.605 -1.3838  0.6637  0.1085
14721TIP3   OH265577   0.814   2.795   5.942  0.8411  0.1706 -0.7171
14721TIP3    H165578   0.869   2.843   5.880 -1.8956  1.2195 -2.5022
14721TIP3    H265579   0.798   2.859   6.012  0.5024  0.4746 -1.0655
14722TIP3   OH265580   5.206   0.436  12.208  0.9832 -0.2450  0.1675
14722TIP3    H165581   5.219   0.463  12.300 -0.3841  2.6746 -0.3675
14722TIP3    H265582   5.172   0.515  12.165 -0.9290 -2.2678 -2.2969
14723TIP3   OH265583   2.395   3.338   5.339  0.1099  0.3032 -0.0395
14723TIP3    H165584   2.374   3.419   5.385 -1.4690  1.0588 -1.9625
14723TIP3    H265585   2.436   3.282   5.406  1.1105  2.5821  1.3796
14724TIP3   OH265586   3.970   1.805   0.707 -0.1306 -0.4301  0.1299
14724TIP3    H165587   3.982   1.768   0.794  1.5037 -1.9567 -0.6661
14724TIP3    H265588   4.040   1.766   0.655 -0.0164  1.7370 -1.4781
14725TIP3   OH265589   3.407   3.842  14.783 -0.2271 -0.0871  0.2416
14725TIP3    H165590   3.402   3.929  14.743  1.8155  0.3760  0.8586
14725TIP3    H265591   3.379   3.855  14.873  0.3277  0.0157  0.4068
14726TIP3   OH265592   0.324   6.694  13.203 -0.5423 -0.3020  0.4366
14726TIP3    H165593   0.398   6.657  13.154 -1.3703 -1.0213 -0.3119
14726TIP3    H265594   0.356   6.701  13.293  0.4621 -0.5310  0.1135
14727TIP3   OH265595   0.930   1.527   2.691  0.4132 -0.5277 -0.0218
14727TIP3    H165596   0.955   1.588   2.621 -0.1058 -0.8929 -0.5331
14727TIP3    H265597   1.012   1.507   2.736  0.9730 -1.2534 -1.3085
14728TIP3   OH265598   0.298   6.312  13.392  0.1720  0.3351 -0.6284
14728TIP3    H165599   0.385   6.311  13.430 -0.1409  0.4733  0.0991
14728TIP3    H265600   0.280   6.221  13.370  0.4904  0.3035 -0.7670
14729TIP3   OH265601   0.374   3.653   2.296  0.2391 -0.4011 -0.2427
14729TIP3    H165602   0.434   3.719   2.261 -1.1266  0.6682 -0.6329
14729TIP3    H265603   0.347   3.603   2.220  0.5295 -0.8064 -0.0826
14730TIP3   OH265604   0.530   4.521   3.250  0.3156  0.6486 -0.6138
14730TIP3    H165605   0.521   4.470   3.169 -0.3241  0.6603 -0.5577
14730TIP3    H265606   0.487   4.468   3.316  1.9414  0.0432  0.0001
14731TIP3   OH265607   5.887   1.192  12.309  0.1712  0.0099 -0.5868
14731TIP3    H165608   5.936   1.247  12.248 -0.7984  1.8192  0.1522
14731TIP3    H265609   5.795   1.209  12.288 -0.1887 -2.2139 -1.0295
14732TIP3   OH265610   2.562   1.281  13.513 -0.6793  0.3264  0.2076
14732TIP3    H165611   2.638   1.248  13.465 -1.7384  0.4901 -1.6941
14732TIP3    H265612   2.500   1.209  13.514 -0.6591  0.3050  1.4402
14733TIP3   OH265613   0.534   3.705  14.443 -0.0364  0.4538 -0.1568
14733TIP3    H165614   0.610   3.650  14.423 -0.0053  0.4158  0.0626
14733TIP3    H265615   0.527   3.764  14.369  0.3844  0.6490 -0.0439
14734TIP3   OH265616   3.887   0.567  17.114  1.0190 -0.4974 -0.4162
14734TIP3    H165617   3.822   0.520  17.168  1.2828 -0.4939 -0.0924
14734TIP3    H265618   3.834   0.625  17.059  0.7574 -0.2075  0.1227
14735TIP3   OH265619   4.114   1.714  13.392 -0.4822  0.0014  0.3530
14735TIP3    H165620   4.042   1.705  13.329 -0.6846 -1.5185  0.7631
14735TIP3    H265621   4.071   1.735  13.475 -0.4216 -0.4386  0.4978
14736TIP3   OH265622   6.441   4.047   6.704  0.2335  0.8246  0.4891
14736TIP3    H165623   6.352   4.014   6.689 -0.0076  0.8965  1.6578
14736TIP3    H265624   6.482   3.981   6.759  1.2317  0.3442 -0.7922
14737TIP3   OH265625   6.721   5.172   1.516  0.3483 -0.2033  0.0073
14737TIP3    H165626   6.765   5.202   1.596  1.1880 -1.2779 -0.0279
14737TIP3    H265627   6.644   5.229   1.508  0.3510  0.0450  1.4810
14738TIP3   OH265628   1.182   0.448   4.792 -0.1208 -0.2065  0.4423
14738TIP3    H165629   1.277   0.457   4.778 -0.3142  1.4487 -0.0190
14738TIP3    H265630   1.175   0.400   4.875  1.1048 -0.8077  0.2327
14739TIP3   OH265631   3.561   2.993   5.221 -0.4585 -0.1870 -0.4051
14739TIP3    H165632   3.549   2.938   5.144 -1.2820 -3.5923  1.9784
14739TIP3    H265633   3.475   3.032   5.237 -1.1260 -1.9529  0.4914
14740TIP3   OH265634   5.791   0.064  16.703 -0.0272 -0.1006  0.4445
14740TIP3    H165635   5.844   0.019  16.769  1.2009 -1.0257 -1.0871
14740TIP3    H265636   5.703   0.067  16.740  0.0219 -2.9976  1.0559
14741TIP3   OH265637   3.490   1.103  15.077  0.2234  0.3685  0.8699
14741TIP3    H165638   3.444   1.171  15.126  0.8353 -0.7788  3.1938
14741TIP3    H265639   3.578   1.139  15.062  0.0859  0.6554  0.7436
14742TIP3   OH265640   0.723   1.827   1.288 -0.7144  0.3367  0.7752
14742TIP3    H165641   0.642   1.778   1.271 -0.6123  0.3294  0.3065
14742TIP3    H265642   0.734   1.821   1.383  0.6358 -2.7216  0.5542
14743TIP3   OH265643   4.897   1.635  12.194  0.1115 -0.3594 -0.4967
14743TIP3    H165644   4.913   1.683  12.113 -1.1490 -0.0642 -0.6003
14743TIP3    H265645   4.813   1.590  12.179 -1.2656  1.4070  1.3670
14744TIP3   OH265646   4.328   4.141  11.475  0.0636  0.1680 -0.5438
14744TIP3    H165647   4.337   4.236  11.486 -0.7693  0.2543 -0.5128
14744TIP3    H265648   4.409   4.114  11.432  0.5588  0.8042 -0.0391
14745TIP3   OH265649   3.859   2.397  17.191 -0.0378 -0.2658  0.5686
14745TIP3    H165650   3.826   2.401  17.281 -1.7790  0.4684 -0.0755
14745TIP3    H265651   3.879   2.488  17.168 -0.7966 -0.2795 -0.1989
14746TIP3   OH265652   1.313   4.944   1.913  0.2473  0.2691  0.2162
14746TIP3    H165653   1.244   4.977   1.971  0.5607  3.5397 -1.0791
14746TIP3    H265654   1.373   4.897   1.971 -0.6084  1.4848  2.1658
14747TIP3   OH265655   0.934   4.980   1.528 -1.0747  0.0018  0.1552
14747TIP3    H165656   0.877   4.921   1.577 -1.1582 -0.9286 -1.0107
14747TIP3    H265657   0.990   4.922   1.476  1.4477  0.8326  1.7195
14748TIP3   OH265658   4.715   2.929   4.495  0.6603  0.8224  0.1795
14748TIP3    H165659   4.775   2.866   4.534 -1.2090 -1.7863 -0.8470
14748TIP3    H265660   4.647   2.943   4.561 -0.2973 -0.3211 -0.5380
14749TIP3   OH265661   4.980   1.238  11.574 -0.2407 -1.1625  0.0114
14749TIP3    H165662   5.027   1.157  11.553  2.4849  0.4152 -0.4290
14749TIP3    H265663   5.020   1.269  11.655 -0.5334  0.2257 -0.3397
14750TIP3   OH265664   0.780   5.403  14.613 -0.1267 -0.2433  0.6338
14750TIP3    H165665   0.816   5.318  14.590 -0.0495  0.0051 -0.2008
14750TIP3    H265666   0.688   5.386  14.633  0.1883 -0.7136  1.7435
14751TIP3   OH265667   2.757   4.726  16.754 -0.8431 -0.2105 -0.1448
14751TIP3    H165668   2.797   4.685  16.678 -0.7736 -0.7289  0.1732
14751TIP3    H265669   2.738   4.816  16.725  2.6190  0.8306  0.3716
14752TIP3   OH265670   6.479   1.813   0.608  0.6604  0.2143  0.1448
14752TIP3    H165671   6.435   1.790   0.690 -0.0258 -0.0945 -0.3042
14752TIP3    H265672   6.431   1.889   0.576  0.8297  0.2396 -0.0479
14753TIP3   OH265673   0.736   3.831   4.476  0.0158  0.4345 -0.1165
14753TIP3    H165674   0.666   3.897   4.470 -2.0509 -1.6947 -0.9907
14753TIP3    H265675   0.689   3.747   4.478  2.5756 -1.1562 -1.5996
14754TIP3   OH265676   0.066   5.192   0.037 -0.0237 -0.3152  0.0171
14754TIP3    H165677   0.008   5.193   0.113  1.3177 -0.7713  1.0826
14754TIP3    H265678   0.118   5.271   0.044  1.1462 -1.0977  0.4298
14755TIP3   OH265679   2.680   4.186   2.141 -0.1577 -0.3148 -0.0560
14755TIP3    H165680   2.708   4.223   2.058  0.0658 -0.3893 -0.0126
14755TIP3    H265681   2.584   4.180   2.133 -0.1642 -0.0495 -0.1940
14756TIP3   OH265682   1.147   0.565  16.820 -0.5599  0.3090  0.2968
14756TIP3    H165683   1.102   0.644  16.789 -1.2786 -1.2594 -3.1350
14756TIP3    H265684   1.239   0.581  16.803 -0.8839 -0.2595 -2.3967
14757TIP3   OH265685   1.719   3.178   4.514  0.5452 -0.0126 -0.2851
14757TIP3    H165686   1.797   3.200   4.566  0.8963 -1.0778 -0.3495
14757TIP3    H265687   1.678   3.106   4.562 -0.2240  0.3130 -0.4376
14758TIP3   OH265688   0.302   6.694  13.750 -0.1190  0.0199 -0.0027
14758TIP3    H165689   0.227   6.684  13.692 -0.7813  0.2814  0.7775
14758TIP3    H265690   0.323   6.788  13.746 -0.7562  0.2191  0.8528
14759TIP3   OH265691   1.656   4.848   0.945  0.0427  0.0524  0.4581
14759TIP3    H165692   1.632   4.780   0.882  2.6961 -0.5502  0.0091
14759TIP3    H265693   1.591   4.840   1.015 -1.0351 -1.4060 -0.6530
14760TIP3   OH265694   5.365   4.511   1.390 -0.2852 -0.5569 -0.4442
14760TIP3    H165695   5.361   4.427   1.344 -1.2869  0.4209 -2.2568
14760TIP3    H265696   5.289   4.559   1.359  0.5393  1.2333  0.1646
14761TIP3   OH265697   0.688   1.913   2.087  0.0910 -0.0314 -0.3193
14761TIP3    H165698   0.678   1.836   2.031  1.9137 -1.3741  1.0640
14761TIP3    H265699   0.782   1.930   2.089  0.0285  0.3923  1.7356
14762TIP3   OH265700   5.556   1.326  17.294 -0.2209 -0.5865  0.0805
14762TIP3    H165701   5.570   1.292  17.206  1.2129  1.1019 -0.4039
14762TIP3    H265702   5.473   1.373  17.288  0.4208  0.4823 -0.7135
14763TIP3   OH265703   4.702   2.879  15.708  0.0607  0.6386  0.5546
14763TIP3    H165704   4.664   2.946  15.653 -0.0391  0.2672  0.1672
14763TIP3    H265705   4.790   2.866  15.673 -0.1583  0.0838  0.1880
14764TIP3   OH265706   3.846   6.223  13.347 -0.1502  1.0077 -0.0315
14764TIP3    H165707   3.816   6.240  13.257 -1.6281  1.9308  0.5922
14764TIP3    H265708   3.903   6.147  13.339 -0.9003  0.5605 -1.6415
14765TIP3   OH265709   6.393   5.456   3.171 -0.8569 -0.0254 -0.1535
14765TIP3    H165710   6.447   5.507   3.111  1.3244 -0.4520  1.3225
14765TIP3    H265711   6.329   5.518   3.206 -0.4309  0.8555 -0.9200
14766TIP3   OH265712   3.292   4.478  16.509  0.3883 -0.0243 -0.4036
14766TIP3    H165713   3.355   4.550  16.501  0.0012  0.4536  0.7109
14766TIP3    H265714   3.206   4.521  16.508  0.1074 -0.5804 -0.8795
14767TIP3   OH265715   0.313   0.920   4.919  0.2172  0.0481  0.5898
14767TIP3    H165716   0.291   0.936   5.011 -2.6311  1.3409 -0.1868
14767TIP3    H265717   0.314   1.008   4.880  0.9218 -0.5204 -0.7226
14768TIP3   OH265718   5.315   5.447   1.518 -0.0585  0.1648  0.1850
14768TIP3    H165719   5.280   5.536   1.512 -1.1425 -0.1760  1.1991
14768TIP3    H265720   5.364   5.436   1.436 -0.9114  1.2678 -0.5100
14769TIP3   OH265721   4.903   5.232   5.018 -0.3104 -0.4533 -0.5191
14769TIP3    H165722   4.967   5.259   5.083 -0.5009 -0.8440 -0.1618
14769TIP3    H265723   4.948   5.168   4.964 -0.1183 -0.0475 -0.8415
14770TIP3   OH265724   0.392   5.477  12.171  0.1764 -0.0965  0.2109
14770TIP3    H165725   0.420   5.526  12.095  1.1879  1.5702  1.5865
14770TIP3    H265726   0.445   5.397  12.171  1.7002  0.8900  0.2990
14771TIP3   OH265727   1.918   5.839  16.183 -0.1408 -0.5380 -0.3472
14771TIP3    H165728   1.907   5.802  16.271  0.2078  0.9321  0.3538
14771TIP3    H265729   1.988   5.787  16.144 -1.1257 -1.9994 -0.2381
14772TIP3   OH265730   0.945   3.117  15.721 -0.1935 -0.0978  0.3869
14772TIP3    H165731   0.862   3.145  15.683  0.0748 -1.3007 -1.1384
14772TIP3    H265732   0.979   3.051  15.661  3.3956  2.4836 -0.8245
14773TIP3   OH265733   2.861   3.406   1.239  1.0782 -0.1728  0.0394
14773TIP3    H165734   2.887   3.316   1.217 -0.8484 -1.0151  0.9586
14773TIP3    H265735   2.842   3.447   1.155  0.2630 -1.2133 -0.3038
14774TIP3   OH265736   6.056   6.224  16.304 -0.0382  0.1711  0.6074
14774TIP3    H165737   6.046   6.318  16.314  3.0999  0.5166  1.6181
14774TIP3    H265738   6.054   6.189  16.393 -0.4040 -0.6320  0.3015
14775TIP3   OH265739   1.108   4.498  15.148  0.2030  0.1607 -0.1328
14775TIP3    H165740   1.108   4.483  15.054 -0.5710  1.5334 -0.3813
14775TIP3    H265741   1.146   4.418  15.185 -2.3794 -1.7925 -1.3687
14776TIP3   OH265742   2.131   5.404   2.061  0.2127 -0.4111  0.4793
14776TIP3    H165743   2.101   5.379   2.149  1.7141 -2.8850  0.3948
14776TIP3    H265744   2.214   5.448   2.075  0.0026  0.0502  0.3185
14777TIP3   OH265745   0.060   4.028   2.887  0.3351 -0.0445  0.5308
14777TIP3    H165746   0.061   3.939   2.851  0.3833 -0.4909  1.6230
14777TIP3    H265747   0.087   4.018   2.978  2.1577  1.3101  0.2003
14778TIP3   OH265748   4.027   1.289   1.193  0.7140  0.1469  0.3405
14778TIP3    H165749   4.032   1.369   1.245 -1.3928  1.1068 -0.8050
14778TIP3    H265750   3.971   1.312   1.119  0.5830 -2.2110 -0.3728
14779TIP3   OH265751   4.504   4.348  12.034  0.0454 -0.0753  0.5085
14779TIP3    H165752   4.458   4.416  11.985  0.9852 -0.2126 -0.6299
14779TIP3    H265753   4.458   4.267  12.012  0.5488 -0.1566 -0.3030
14780TIP3   OH265754   3.081   5.712   6.029  0.4411  0.3078 -0.5441
14780TIP3    H165755   3.098   5.753   5.944 -0.1363 -1.3147 -1.5058
14780TIP3    H265756   2.987   5.697   6.030  0.4493  0.2808  0.3772
14781TIP3   OH265757   1.479   4.826  12.265  0.5688  0.0756  0.0984
14781TIP3    H165758   1.437   4.752  12.309 -0.9799  0.4825 -0.6266
14781TIP3    H265759   1.560   4.841  12.314  0.1879 -1.1608  1.1480
14782TIP3   OH265760   0.992   1.130   3.134  0.5290 -0.1184 -0.6863
14782TIP3    H165761   0.999   1.060   3.198 -1.7146  1.9674  2.1041
14782TIP3    H265762   1.078   1.172   3.133  1.8634 -2.6222 -2.2957
14783TIP3   OH265763   3.605   6.095  15.995 -0.5857 -0.0512 -0.6131
14783TIP3    H165764   3.567   6.118  15.910 -3.3192  0.1459  0.5623
14783TIP3    H265765   3.595   6.174  16.048  1.0730 -0.1782 -0.0695
14784TIP3   OH265766   2.824   1.960   2.150  0.3610 -0.1029  0.1200
14784TIP3    H165767   2.856   1.878   2.188  2.2881  0.7432  0.4007
14784TIP3    H265768   2.863   2.029   2.204 -2.8699  1.0639  1.2163
14785TIP3   OH265769   6.419   4.361   3.754  0.0674 -0.2925  0.4461
14785TIP3    H165770   6.326   4.383   3.754 -0.5367 -2.5409  1.3077
14785TIP3    H265771   6.421   4.266   3.741  2.1980 -0.4246  1.3850
14786TIP3   OH265772   6.198   5.418   1.395 -0.2921  0.4872 -0.1565
14786TIP3    H165773   6.138   5.345   1.407 -0.9002  1.2324  1.7544
14786TIP3    H265774   6.142   5.490   1.365 -0.6653  1.4666  2.5607
14787TIP3   OH265775   4.407   3.747  17.017  0.2289  0.5168  0.2175
14787TIP3    H165776   4.356   3.666  17.030  0.5315  0.3495  0.3599
14787TIP3    H265777   4.495   3.717  16.996  0.5394  0.8090  1.0541
14788TIP3   OH265778   0.492   1.021  11.239 -0.4630  0.1338 -0.2863
14788TIP3    H165779   0.514   1.105  11.198 -0.6710  0.0632 -0.5458
14788TIP3    H265780   0.539   0.956  11.188  0.1768  0.1364  0.2787
14789TIP3   OH265781   3.490   3.218  14.044  0.2945 -0.6285 -0.0194
14789TIP3    H165782   3.547   3.247  14.115  2.3277 -1.4884 -1.2225
14789TIP3    H265783   3.448   3.139  14.078  1.9069 -1.5270 -0.0195
14790TIP3   OH265784   3.182   5.210  16.857 -0.4280 -0.6829 -0.0989
14790TIP3    H165785   3.149   5.123  16.881  0.8060 -0.7943  1.3954
14790TIP3    H265786   3.236   5.236  16.932 -0.3411  1.1554 -0.7504
14791TIP3   OH265787   4.822   1.404   4.309  0.5582  0.3234 -0.4621
14791TIP3    H165788   4.776   1.486   4.288  2.0001  0.8099 -1.8541
14791TIP3    H265789   4.867   1.423   4.391  0.6211  0.8232 -0.6082
14792TIP3   OH265790   0.168   5.453  12.895  0.7972  0.0602 -0.0347
14792TIP3    H165791   0.131   5.366  12.882  3.1358 -1.1814  0.8612
14792TIP3    H265792   0.184   5.486  12.807  0.0236 -0.4737 -0.3861
14793TIP3   OH265793   2.837   6.254   5.569  0.1904 -0.0017 -0.1548
14793TIP3    H165794   2.781   6.176   5.569 -0.4648  0.4565  0.8642
14793TIP3    H265795   2.778   6.327   5.553  0.9357  0.2390 -2.1172
14794TIP3   OH265796   1.105   0.520   3.358 -0.8947  0.1657  0.6374
14794TIP3    H165797   1.026   0.573   3.343 -0.4023  1.0060  0.9225
14794TIP3    H265798   1.133   0.495   3.270 -1.2796  0.1662  0.5123
14795TIP3   OH265799   6.620   4.130   0.718  0.3502  0.2244 -0.2577
14795TIP3    H165800   6.651   4.086   0.639  0.2103 -0.0918 -0.1379
14795TIP3    H265801   6.700   4.153   0.765  0.5819  2.5117 -1.5781
14796TIP3   OH265802   3.841   4.234  12.633  0.2425  0.5441 -0.5804
14796TIP3    H165803   3.780   4.248  12.560 -2.4887 -2.0217  0.9372
14796TIP3    H265804   3.827   4.309  12.691 -2.8350 -0.6234  0.4300
14797TIP3   OH265805   2.779   2.488   5.603 -0.5105  0.3125 -0.0552
14797TIP3    H165806   2.812   2.547   5.671 -1.0821 -0.3326  0.8024
14797TIP3    H265807   2.705   2.443   5.644 -0.0834 -1.0101 -0.6674
14798TIP3   OH265808   3.880   0.648  14.512 -0.3319 -0.0417  0.2159
14798TIP3    H165809   3.846   0.581  14.570 -1.6200  0.6870  0.3404
14798TIP3    H265810   3.856   0.619  14.424 -2.0078  0.8324  0.3510
14799TIP3   OH265811   2.634   3.432   1.368 -0.6962  0.3163 -0.1769
14799TIP3    H165812   2.723   3.406   1.343 -0.2500  1.9754 -0.5045
14799TIP3    H265813   2.581   3.354   1.354  0.5878 -0.5092 -0.6657
14800TIP3   OH265814   1.541   0.679  14.188 -0.5312 -0.5423  0.0126
14800TIP3    H165815   1.566   0.761  14.146  0.1084 -0.1894  1.0342
14800TIP3    H265816   1.588   0.680  14.272 -1.7745 -1.2044  0.7410
14801TIP3   OH265817   5.283   4.138   0.042 -0.2824  0.1156  0.3664
14801TIP3    H165818   5.290   4.187  -0.039 -2.9606 -0.3429 -0.2240
14801TIP3    H265819   5.255   4.050   0.016  2.1369 -1.1286  1.5805
14802TIP3   OH265820   5.535   5.695   5.072 -0.3471 -0.2761  0.4036
14802TIP3    H165821   5.600   5.689   5.002 -1.0525 -3.6908 -0.1501
14802TIP3    H265822   5.451   5.697   5.027 -0.7484  0.2331  1.1545
14803TIP3   OH265823   0.809   1.825  16.184  0.3659 -0.4219  0.2528
14803TIP3    H165824   0.802   1.738  16.145  0.6877 -0.6515  0.7070
14803TIP3    H265825   0.877   1.817  16.251  1.2593  0.4634 -0.5085
14804TIP3   OH265826   2.064   4.112   1.987 -0.0898 -0.3721  0.4225
14804TIP3    H165827   1.975   4.092   2.015  0.8930 -1.9012  2.8148
14804TIP3    H265828   2.103   4.155   2.063  0.8938  1.5088 -1.0471
14805TIP3   OH265829   5.438   5.397  14.710 -0.3657 -0.0820  0.4668
14805TIP3    H165830   5.478   5.450  14.779  2.1938 -1.7197  0.4018
14805TIP3    H265831   5.357   5.442  14.688  0.5833  2.5400  1.9120
14806TIP3   OH265832   3.318   2.932  12.798  0.0160  0.9105  0.0881
14806TIP3    H165833   3.270   3.003  12.756  1.3197  1.5070 -0.4491
14806TIP3    H265834   3.380   2.976  12.856  0.9518  0.2408 -0.3654
14807TIP3   OH265835   4.937   6.593   6.225 -0.2437 -0.2145 -0.0841
14807TIP3    H165836   4.848   6.596   6.260 -0.7180 -0.9381 -1.1832
14807TIP3    H265837   4.930   6.541   6.145  1.0645  0.2202 -0.5067
14808TIP3   OH265838   1.785   4.399  13.840 -0.4131 -0.6203  0.4839
14808TIP3    H165839   1.734   4.479  13.832  0.0795 -0.1874  1.4341
14808TIP3    H265840   1.876   4.428  13.837 -0.2299 -1.1733  0.5802
14809TIP3   OH265841   1.697   4.270   3.085  0.2072  0.6211  0.0899
14809TIP3    H165842   1.694   4.178   3.057 -2.4054  0.9357 -0.9668
14809TIP3    H265843   1.726   4.317   3.007  1.2894  0.7300  0.5532
14810TIP3   OH265844   0.102   3.907   1.440 -0.4043 -0.1010  0.6382
14810TIP3    H165845   0.014   3.890   1.474 -1.2021  0.7063 -0.9180
14810TIP3    H265846   0.151   3.940   1.516 -1.8507  0.7906  1.2246
14811TIP3   OH265847   6.384   0.383  16.251  0.8711 -0.2100  0.0771
14811TIP3    H165848   6.328   0.306  16.253  0.6561 -0.0489  0.5127
14811TIP3    H265849   6.333   0.448  16.203 -0.3866  0.7175  2.4841
14812TIP3   OH265850   4.678   2.423  13.524 -0.1562  0.4821 -0.1445
14812TIP3    H165851   4.619   2.461  13.459 -2.1124 -2.2673 -0.1819
14812TIP3    H265852   4.674   2.484  13.598 -0.9478  1.7162 -1.1564
14813TIP3   OH265853   5.482   0.807   4.335  0.2013 -0.3033  0.0148
14813TIP3    H165854   5.493   0.764   4.251 -1.2772 -0.4461 -0.1194
14813TIP3    H265855   5.568   0.845   4.353  1.2041 -2.2282 -0.4326
14814TIP3   OH265856   2.737   4.986  13.202  0.2524 -0.3275  0.4846
14814TIP3    H165857   2.759   5.012  13.112 -1.1846  0.4155  0.3049
14814TIP3    H265858   2.820   4.960  13.241  1.0504  0.2277 -0.7810
14815TIP3   OH265859   3.031   0.397   1.518 -0.2504  0.6709  0.0569
14815TIP3    H165860   3.089   0.404   1.594  0.9447 -2.2017 -0.4821
14815TIP3    H265861   3.086   0.424   1.444 -0.6497  1.0784 -0.0970
14816TIP3   OH265862   1.940   3.344   1.090  0.3769  0.2644  0.3997
14816TIP3    H165863   1.863   3.302   1.052 -0.0136  1.4027 -0.1011
14816TIP3    H265864   1.907   3.391   1.167  0.8635 -0.5619  1.1393
14817TIP3   OH265865   4.467   5.609  10.573  0.3710  0.1529 -0.5835
14817TIP3    H165866   4.521   5.594  10.651  0.4304  2.1088 -0.1958
14817TIP3    H265867   4.528   5.602  10.499  1.0611  1.5872 -0.1960
14818TIP3   OH265868   2.072   4.524  13.769  0.0941 -0.3953  0.2127
14818TIP3    H165869   2.054   4.612  13.738  2.0951 -0.1041 -0.3119
14818TIP3    H265870   2.078   4.533  13.864  0.0834  0.0085  0.1771
14819TIP3   OH265871   3.234   4.871   3.451 -0.2660 -0.5078 -0.0392
14819TIP3    H165872   3.139   4.875   3.443 -0.3939 -0.3459  1.3533
14819TIP3    H265873   3.263   4.961   3.435 -0.3831 -0.4530  0.0610
14820TIP3   OH265874   3.488   4.361  14.931 -0.1902  0.2324  0.4970
14820TIP3    H165875   3.451   4.375  14.844  0.1426  0.1130  0.3368
14820TIP3    H265876   3.576   4.328  14.915 -0.4471 -0.6715  0.8687
14821TIP3   OH265877   1.881   5.543  12.315 -0.1398 -0.2937 -0.1252
14821TIP3    H165878   1.917   5.614  12.263 -2.3279  0.7243 -0.3697
14821TIP3    H265879   1.786   5.558  12.314 -0.4259 -1.3483  2.5126
14822TIP3   OH265880   3.285   6.483   5.685 -0.1676  0.1739 -0.0533
14822TIP3    H165881   3.302   6.561   5.737 -1.1606  0.2051  0.2397
14822TIP3    H265882   3.190   6.472   5.689  0.1406 -2.8968  2.6140
14823TIP3   OH265883   2.087   5.711  15.479  0.0777  0.7286 -0.4629
14823TIP3    H165884   2.051   5.711  15.390 -0.0424  1.7887 -0.4183
14823TIP3    H265885   2.122   5.799  15.491 -0.1486  0.6748  0.6468
14824TIP3   OH265886   1.067   0.821  12.551  0.3359 -0.2088  0.1294
14824TIP3    H165887   1.058   0.916  12.540  1.2830 -0.1595 -0.3549
14824TIP3    H265888   1.114   0.793  12.472 -3.0450 -1.6386 -1.5541
14825TIP3   OH265889   4.672   3.744  12.712  0.2055  0.7128 -0.1343
14825TIP3    H165890   4.606   3.675  12.716  1.3123 -0.3454  0.2086
14825TIP3    H265891   4.621   3.825  12.715 -1.0511 -0.0722  0.8302
14826TIP3   OH265892   2.054   2.268  12.687 -0.1299  0.4586 -0.0895
14826TIP3    H165893   2.008   2.334  12.738  0.2514  1.2827 -0.7921
14826TIP3    H265894   2.127   2.315  12.647  0.5618 -0.5387 -0.0436
14827TIP3   OH265895   6.754   3.952  17.022 -0.7108 -0.3945  0.4398
14827TIP3    H165896   6.731   4.037  17.061 -0.3234 -0.4309  0.7495
14827TIP3    H265897   6.730   3.888  17.089 -0.5342 -0.4965  0.4042
14828TIP3   OH265898   5.370   4.130  15.676  0.2030 -0.2764 -0.4896
14828TIP3    H165899   5.335   4.186  15.607  0.8563  0.3850 -0.3104
14828TIP3    H265900   5.310   4.142  15.750 -0.0538 -0.3600 -0.6875
14829TIP3   OH265901   4.315   3.922  15.507  0.3676  0.8259  0.4930
14829TIP3    H165902   4.308   3.830  15.480  0.0954  0.6362  1.1821
14829TIP3    H265903   4.358   3.965  15.434  2.8234 -0.3219  1.1510
14830TIP3   OH265904   6.083   0.010  15.051 -0.5071  0.1419 -0.4490
14830TIP3    H165905   6.165  -0.030  15.024 -1.3410 -0.9615 -1.4851
14830TIP3    H265906   6.045   0.043  14.969 -1.1913  0.4523 -0.0171
14831TIP3   OH265907   6.167   4.511   4.253 -0.1534  0.4135  0.2813
14831TIP3    H165908   6.094   4.563   4.219 -0.6375 -0.9575 -0.8253
14831TIP3    H265909   6.126   4.432   4.287  0.9404 -1.3284 -2.2227
14832TIP3   OH265910   1.188   6.508  14.199  0.3037 -0.8548  0.6942
14832TIP3    H165911   1.211   6.590  14.242  1.0731 -0.5487 -0.2651
14832TIP3    H265912   1.179   6.445  14.270 -0.6724  0.1328  1.4779
14833TIP3   OH265913   6.293   5.035  17.253  0.1287  0.6264 -0.7775
14833TIP3    H165914   6.263   4.958  17.301  0.4665  1.4495  0.8388
14833TIP3    H265915   6.327   5.001  17.171  0.7901 -1.0093  0.1247
14834TIP3   OH265916   0.647   5.495  15.369 -0.7905 -0.2281 -0.0233
14834TIP3    H165917   0.575   5.465  15.315 -1.4566  0.8353  0.2348
14834TIP3    H265918   0.724   5.488  15.313 -1.1405 -1.0532 -0.4156
14835TIP3   OH265919   3.747   0.850  13.721  0.1017 -0.1928  0.6338
14835TIP3    H165920   3.771   0.763  13.691  1.3219  0.0445  0.8503
14835TIP3    H265921   3.746   0.904  13.642 -1.6500 -0.5855  0.3540
14836TIP3   OH265922   5.064   5.749   0.237  0.1899  0.4011 -0.4380
14836TIP3    H165923   4.975   5.783   0.250 -0.3791 -1.1218 -0.1435
14836TIP3    H265924   5.051   5.657   0.216  1.7455 -0.0793  0.5601
14837TIP3   OH265925   4.449   0.835   5.968 -0.8153  0.4417 -0.0208
14837TIP3    H165926   4.541   0.863   5.970 -0.1817 -1.5626  1.0703
14837TIP3    H265927   4.411   0.875   6.047 -0.5517  0.2587  0.2031
14838TIP3   OH265928   5.097   2.745  13.551 -0.0339  0.0338  0.7312
14838TIP3    H165929   5.011   2.749  13.592 -0.4921  1.3840 -0.3126
14838TIP3    H265930   5.147   2.684  13.606 -1.5225 -0.4786  1.5614
14839TIP3   OH265931   3.299   0.642  12.647 -0.6978 -0.3145  0.1672
14839TIP3    H165932   3.335   0.699  12.579  0.9490  0.2484  1.4427
14839TIP3    H265933   3.215   0.613  12.612  0.5989 -1.0542 -2.6553
14840TIP3   OH265934   6.066   4.659   5.603 -0.1426  0.9268 -0.0312
14840TIP3    H165935   6.082   4.607   5.682 -1.3888 -0.1005 -0.4044
14840TIP3    H265936   6.109   4.609   5.533 -0.2522  1.0799 -0.2083
14841TIP3   OH265937   6.658   3.273   2.327  0.4924  0.6768  0.0907
14841TIP3    H165938   6.739   3.319   2.306  0.1004  1.2731 -0.1771
14841TIP3    H265939   6.589   3.332   2.295 -0.0034 -1.0777 -2.3324
14842TIP3   OH265940   6.543   0.447   4.433 -0.1058 -0.1658 -0.0095
14842TIP3    H165941   6.487   0.403   4.369  1.1493 -0.5643 -0.8794
14842TIP3    H265942   6.527   0.401   4.515 -1.3056 -0.0307 -0.1545
14843TIP3   OH265943   5.589   0.331   0.116  0.5734 -0.8799  0.0124
14843TIP3    H165944   5.676   0.371   0.127 -0.3778  1.6139 -0.9846
14843TIP3    H265945   5.581   0.315   0.022 -0.4883  0.0327 -0.0702
14844TIP3   OH265946   2.868   6.366   3.042 -0.0183  0.0715 -0.1847
14844TIP3    H165947   2.836   6.401   2.959  0.4182  0.5021 -0.1761
14844TIP3    H265948   2.962   6.352   3.028  0.1779  0.6890  0.4064
14845TIP3   OH265949   2.875   5.834  12.857 -0.4404 -0.4096 -0.6031
14845TIP3    H165950   2.834   5.902  12.804  1.6216  2.6718  1.4326
14845TIP3    H265951   2.824   5.833  12.938  0.4044 -0.1872 -0.0526
14846TIP3   OH265952   4.458   5.480   4.142  0.1798 -0.0867  0.5094
14846TIP3    H165953   4.465   5.466   4.237  1.1129 -2.2320  0.1970
14846TIP3    H265954   4.544   5.455   4.108  0.3284  2.0084 -0.8047
14847TIP3   OH265955   2.976   4.055  13.979  0.3922  0.1831 -0.0272
14847TIP3    H165956   3.053   4.067  14.035  0.4942 -1.2365  0.1667
14847TIP3    H265957   3.011   4.022  13.897 -0.0830 -1.6820  0.4797
14848TIP3   OH265958   5.014   3.393  11.981  0.0153  0.2779  0.6040
14848TIP3    H165959   4.924   3.389  11.950 -0.1035  0.4461  0.9184
14848TIP3    H265960   5.031   3.486  11.996  0.7387  0.4121 -0.8540
14849TIP3   OH265961   5.262   0.321   3.965 -0.1576  0.4049 -0.1909
14849TIP3    H165962   5.322   0.349   3.896 -0.4972 -1.5278 -1.3683
14849TIP3    H265963   5.318   0.292   4.036  0.2789  0.3308 -0.5601
14850TIP3   OH265964   0.517   1.225  15.922 -0.4596  0.0176  0.1642
14850TIP3    H165965   0.445   1.213  15.860 -0.1896 -0.4489 -0.0626
14850TIP3    H265966   0.516   1.145  15.975 -0.0785 -0.0052  0.1336
14851TIP3   OH265967   1.934   2.693   4.767  0.1973 -0.0106  0.2534
14851TIP3    H165968   1.923   2.628   4.836 -0.7577  0.1516  0.2620
14851TIP3    H265969   2.029   2.699   4.754  0.2904 -1.4270  0.2147
14852TIP3   OH265970   4.829   6.463  14.226 -0.3114 -0.0383 -0.0988
14852TIP3    H165971   4.805   6.552  14.201  0.9945 -0.0952 -1.7273
14852TIP3    H265972   4.822   6.413  14.145  1.8262 -0.7707  0.0988
14853TIP3   OH265973   1.058   6.270   2.181  0.0435  0.1184 -0.3524
14853TIP3    H165974   0.972   6.228   2.190 -0.1175  0.7458  1.8337
14853TIP3    H265975   1.043   6.360   2.209  1.3939  0.2706 -0.0468
14854TIP3   OH265976   0.377   3.263  14.004  0.5544 -0.3027 -0.3615
14854TIP3    H165977   0.376   3.207  14.081 -1.6425  0.5298  0.2771
14854TIP3    H265978   0.468   3.293  13.998  0.9282 -0.9444  1.4827
14855TIP3   OH265979   0.878   2.720  14.151 -0.0285  0.2456  0.3094
14855TIP3    H165980   0.826   2.718  14.071  1.3106  1.4933 -0.6454
14855TIP3    H265981   0.856   2.804  14.192  1.4601  0.9964 -0.3292
14856TIP3   OH265982   2.253   1.758  17.252 -0.1015  0.0671 -0.2802
14856TIP3    H165983   2.235   1.852  17.255 -1.0515 -0.0482 -1.4439
14856TIP3    H265984   2.173   1.719  17.218 -0.5612 -1.4592  2.3159
14857TIP3   OH265985   2.298   1.029   1.754 -0.5226  0.2397  0.6637
14857TIP3    H165986   2.353   1.051   1.678 -0.8670 -2.6611 -0.5544
14857TIP3    H265987   2.225   1.090   1.749  0.4957  1.4658 -0.0882
14858TIP3   OH265988   5.307   0.727  15.460  0.4408  0.0701  0.0753
14858TIP3    H165989   5.321   0.696  15.370 -0.5406  1.9602 -0.7925
14858TIP3    H265990   5.247   0.801  15.450 -1.5575 -1.0683  2.5122
14859TIP3   OH265991   5.237   3.194  12.241  0.6119 -0.3013  0.1694
14859TIP3    H165992   5.180   3.123  12.271  1.2591 -1.1572 -0.6062
14859TIP3    H265993   5.246   3.181  12.147 -1.7746  2.6386 -0.6146
14860TIP3   OH265994   3.811   2.493  12.971  0.5359  0.0702  0.0203
14860TIP3    H165995   3.852   2.579  12.961  0.5311  0.2574  1.3612
14860TIP3    H265996   3.738   2.508  13.031 -0.0259 -0.7129 -0.4435
14861TIP3   OH265997   1.517   6.196   0.699 -0.2928 -0.3357  0.6113
14861TIP3    H165998   1.591   6.255   0.712  0.1254 -0.9851  1.2439
14861TIP3    H265999   1.516   6.141   0.777 -0.7435 -1.0896  0.0915
14862TIP3   OH266000   2.680   5.714   4.273 -0.4949  0.0102  0.5673
14862TIP3    H166001   2.621   5.639   4.280  1.6453 -2.1777 -2.3251
14862TIP3    H266002   2.758   5.688   4.322  0.4124  0.1146 -0.7645
14863TIP3   OH266003   5.535   2.982   0.633  0.1626 -0.2586 -0.0238
14863TIP3    H166004   5.440   2.983   0.625  0.1487  1.6822 -0.1082
14863TIP3    H266005   5.565   3.056   0.579  1.9523 -2.4065 -2.2273
14864TIP3   OH266006   0.336   4.793   1.965 -0.0569  0.6793 -0.1801
14864TIP3    H166007   0.297   4.753   1.887  0.2319  1.9285 -0.9815
14864TIP3    H266008   0.315   4.886   1.959  1.0480  1.0046  0.5795
14865TIP3   OH266009   5.842   3.501  15.319 -0.3274 -0.1703  0.3985
14865TIP3    H166010   5.839   3.475  15.228  0.1175  0.9727  0.0345
14865TIP3    H266011   5.892   3.432  15.363  0.2638 -0.2598 -0.4017
14866TIP3   OH266012   2.497   1.708   5.987 -0.0789  0.6474  0.0827
14866TIP3    H166013   2.538   1.624   6.010 -0.6339  0.3776  0.1127
14866TIP3    H266014   2.553   1.774   6.029 -0.6219  0.2036  1.5685
14867TIP3   OH266015   6.071   1.449  16.064 -0.0740  0.7786  0.4569
14867TIP3    H166016   6.053   1.503  15.987 -1.4432  1.7995  1.4352
14867TIP3    H266017   6.028   1.496  16.136  0.0301 -0.8293  1.6076
14868TIP3   OH266018   6.381   1.467   3.090 -0.3746 -0.1352 -0.1143
14868TIP3    H166019   6.327   1.461   3.169  0.3198 -0.8297  0.3216
14868TIP3    H266020   6.414   1.378   3.076  2.2640  0.6177  0.8122
14869TIP3   OH266021   2.552   4.411  13.972  0.4890  0.4917  0.1825
14869TIP3    H166022   2.488   4.362  13.921  1.8884 -0.9185 -0.3308
14869TIP3    H266023   2.510   4.424  14.057 -0.8773  0.5893 -0.4788
14870TIP3   OH266024   4.292   0.445  12.750  0.2287 -0.2837 -0.2090
14870TIP3    H166025   4.259   0.359  12.724 -0.3392  0.2926 -1.4742
14870TIP3    H266026   4.230   0.507  12.712  1.3782  0.7354 -0.4663
14871TIP3   OH266027   5.504   1.546  12.247 -0.3266 -0.2949 -0.7497
14871TIP3    H166028   5.429   1.584  12.294  0.0705  0.5010 -0.7487
14871TIP3    H266029   5.568   1.528  12.316  0.2799  0.9281 -0.9721
14872TIP3   OH266030   1.850   2.278   5.394  0.2797 -0.0942 -0.3425
14872TIP3    H166031   1.844   2.308   5.304  1.1129  0.2366 -0.2976
14872TIP3    H266032   1.941   2.295   5.419  0.7221 -2.4098 -0.2205
14873TIP3   OH266033   0.923   0.992  13.265  0.0910  0.0814  0.2003
14873TIP3    H166034   0.870   0.916  13.290 -0.8794  0.6004 -0.2291
14873TIP3    H266035   0.953   0.971  13.176 -0.5479  0.3808 -0.0937
14874TIP3   OH266036   5.116   0.884  13.658 -0.2121  0.0434 -0.2012
14874TIP3    H166037   5.212   0.886  13.653 -0.2825  0.5693 -1.5714
14874TIP3    H266038   5.093   0.964  13.705  0.0787 -1.0355  1.9070
14875TIP3   OH266039   1.786   5.276  15.042 -0.6357  0.1287  0.0742
14875TIP3    H166040   1.712   5.334  15.058 -0.6580 -0.1313  0.9414
14875TIP3    H266041   1.780   5.255  14.949 -1.9881 -0.3367  0.2427
14876TIP3   OH266042   6.526   4.143  13.273 -0.6567  0.1175 -0.2231
14876TIP3    H166043   6.543   4.129  13.180  0.8471  0.8209 -0.0830
14876TIP3    H266044   6.506   4.236  13.280  1.2475  0.5282  0.3861
14877TIP3   OH266045   0.677   6.142   0.819  0.2007 -0.4917  0.4346
14877TIP3    H166046   0.626   6.190   0.884  0.6229  0.6239 -0.0134
14877TIP3    H266047   0.767   6.172   0.832  0.0475  1.4135 -1.9416
14878TIP3   OH266048   1.277   3.956   2.788  0.0369  0.2455  0.7829
14878TIP3    H166049   1.258   4.016   2.861  0.7493  1.8273 -0.2817
14878TIP3    H266050   1.363   3.920   2.808  0.0378  0.3414  0.9557
14879TIP3   OH266051   1.592   1.751   3.513  0.3787  0.1251  0.7196
14879TIP3    H166052   1.520   1.784   3.566 -1.5807 -1.4851 -0.7693
14879TIP3    H266053   1.611   1.664   3.549 -0.1259 -0.4602 -0.3617
14880TIP3   OH266054   5.672   2.155  16.181 -0.2409  0.6272 -0.3137
14880TIP3    H166055   5.723   2.110  16.113 -0.6362  0.9636 -0.8445
14880TIP3    H266056   5.651   2.086  16.244 -1.5828 -0.1603 -1.5552
14881TIP3   OH266057   1.616   4.280  15.529  0.4670  0.3605 -0.4052
14881TIP3    H166058   1.684   4.216  15.512  0.2129  0.3875 -1.5832
14881TIP3    H266059   1.541   4.229  15.560  0.8828  0.2973  0.5301
14882TIP3   OH266060   4.208   3.372   5.820  0.0833 -0.4092 -0.0257
14882TIP3    H166061   4.219   3.280   5.845  1.0111 -0.4037 -0.4067
14882TIP3    H266062   4.120   3.375   5.783 -1.1103 -0.5673  2.5213
14883TIP3   OH266063   0.713   1.398   4.378 -0.3686  0.1127 -0.4439
14883TIP3    H166064   0.677   1.344   4.448  1.1479  1.5174  1.5220
14883TIP3    H266065   0.639   1.450   4.347 -0.5594  1.6858  2.3030
14884TIP3   OH266066   1.786   4.348   3.367  0.4687  0.8408  0.1942
14884TIP3    H166067   1.745   4.435   3.364 -1.2298  0.0745 -0.6704
14884TIP3    H266068   1.796   4.323   3.275  0.6006 -0.0052  0.4290
14885TIP3   OH266069   1.442   6.598   0.152 -0.2764  0.2761  0.1723
14885TIP3    H166070   1.487   6.652   0.087  2.8890  0.1505  2.0545
14885TIP3    H266071   1.349   6.614   0.137  0.4372  3.4943 -1.6146
14886TIP3   OH266072   6.163   4.829  16.425 -0.5693  0.2745  0.1079
14886TIP3    H166073   6.254   4.836  16.455 -0.6198 -2.2703  1.0649
14886TIP3    H266074   6.110   4.854  16.500 -0.6574 -0.6567  0.3661
14887TIP3   OH266075   3.351   1.266   5.323  0.1200 -0.3409 -0.0589
14887TIP3    H166076   3.438   1.228   5.311 -0.5687 -1.4948 -1.8953
14887TIP3    H266077   3.314   1.270   5.235 -1.6663  0.2165  0.6595
14888TIP3   OH266078   3.074   6.671  11.691 -0.1629 -0.0833  0.1387
14888TIP3    H166079   3.146   6.713  11.644 -0.6800  1.1414  0.3948
14888TIP3    H266080   2.995   6.705  11.648 -0.6125 -1.5741 -0.2897
14889TIP3   OH266081   4.756   1.612  12.546 -0.0009 -0.4703 -0.4254
14889TIP3    H166082   4.697   1.577  12.479 -0.3187 -1.7475  0.4838
14889TIP3    H266083   4.715   1.587  12.629  0.5414  0.8143  0.2506
14890TIP3   OH266084   6.531   4.843   0.199  0.1508  0.4126  0.0787
14890TIP3    H166085   6.592   4.808   0.263 -1.0683 -1.5419  0.2671
14890TIP3    H266086   6.565   4.813   0.115  1.3683  2.3890 -0.1876
14891TIP3   OH266087   3.759   2.666   6.612  0.1785  0.1130 -0.0090
14891TIP3    H166088   3.761   2.678   6.517  2.0318 -2.8296 -0.5093
14891TIP3    H266089   3.704   2.589   6.626  1.2288 -0.4916  1.0861
14892TIP3   OH266090   4.570   6.663   3.096 -0.1486 -0.3390  0.3637
14892TIP3    H166091   4.648   6.650   3.041 -0.1601  0.1927  0.2063
14892TIP3    H266092   4.603   6.709   3.173 -0.4134  0.6008 -0.0623
14893TIP3   OH266093   3.872   4.443  16.125 -0.1922 -0.3975  0.0510
14893TIP3    H166094   3.965   4.425  16.136 -0.1966 -0.4952 -0.0762
14893TIP3    H266095   3.853   4.416  16.036 -0.0967  0.6299 -0.3001
14894TIP3   OH266096   0.231   0.729   6.554 -0.3029  0.0633  0.3946
14894TIP3    H166097   0.176   0.708   6.478 -1.6371  0.4119  1.2311
14894TIP3    H266098   0.230   0.649   6.607 -0.0097  0.0789  0.4236
14895TIP3   OH266099   1.418   0.002  15.144  0.3955  0.7779 -0.2114
14895TIP3    H166100   1.376  -0.059  15.083 -0.6236  0.8512  0.4079
14895TIP3    H266101   1.416   0.086  15.099  0.4412  0.6620 -0.4337
14896TIP3   OH266102   5.213   4.565  13.666 -0.0610  0.1499 -0.2021
14896TIP3    H166103   5.129   4.604  13.690 -3.2449 -4.6454 -1.9264
14896TIP3    H266104   5.225   4.588  13.574  0.7503  1.0664  0.1178
14897TIP3   OH266105   4.973   2.773  11.812  0.3247 -0.2221  0.5753
14897TIP3    H166106   4.972   2.865  11.837 -0.1600 -0.3865  1.1808
14897TIP3    H266107   5.035   2.732  11.873 -0.2467 -0.4813  0.9852
14898TIP3   OH266108   1.469   2.676   2.998  0.0176 -0.3280  0.0636
14898TIP3    H166109   1.533   2.633   3.054 -0.1471  0.0436  0.5447
14898TIP3    H266110   1.433   2.747   3.051 -0.6982 -0.4456 -0.2398
14899TIP3   OH266111   1.343   5.068  11.043  0.0054  0.6405  0.0979
14899TIP3    H166112   1.420   5.085  11.097  0.0087  1.3187 -0.1112
14899TIP3    H266113   1.377   5.055  10.955  0.0293 -0.8018  0.3051
14900TIP3   OH266114   4.212   3.504  12.040 -0.0194  0.4156  0.2574
14900TIP3    H166115   4.142   3.482  12.102 -0.8519 -1.3981 -1.2164
14900TIP3    H266116   4.168   3.552  11.970  0.4673  0.5034  0.0071
14901TIP3   OH266117   1.744   4.418   2.857 -0.0310  0.0595 -0.5033
14901TIP3    H166118   1.671   4.407   2.797 -0.5483  0.4723  0.0313
14901TIP3    H266119   1.719   4.494   2.911  1.2374  0.8418 -0.9729
14902TIP3   OH266120   4.323   0.410   3.227  0.4976  0.0308  0.0622
14902TIP3    H166121   4.305   0.503   3.243  0.9810  0.0309  0.6737
14902TIP3    H266122   4.297   0.366   3.308 -0.9681 -0.5613 -0.6877
14903TIP3   OH266123   2.634   2.954  12.062  0.1995 -0.1829 -0.0521
14903TIP3    H166124   2.663   2.952  11.971  0.4100  1.8746 -0.0823
14903TIP3    H266125   2.639   2.863  12.091  3.2549 -0.4749 -1.1241
14904TIP3   OH266126   3.589   5.928  12.789 -0.1180 -0.0920 -0.8722
14904TIP3    H166127   3.588   5.842  12.747 -0.4367 -0.2513 -0.5475
14904TIP3    H266128   3.655   5.978  12.741  0.5459 -0.7257 -0.6515
14905TIP3   OH266129   5.588   3.583   3.549  0.0984 -0.5397  0.3063
14905TIP3    H166130   5.604   3.497   3.510  0.5625 -0.4712  0.3485
14905TIP3    H266131   5.674   3.615   3.573 -0.0787 -0.0732  0.3215
14906TIP3   OH266132   0.601   3.305  15.830 -0.1765  0.1376  0.4527
14906TIP3    H166133   0.612   3.287  15.736 -3.8380  0.0580 -0.1127
14906TIP3    H266134   0.674   3.362  15.852  1.7873 -1.2142 -1.9998
14907TIP3   OH266135   3.172   6.058  11.638  0.1950 -0.4498 -0.1897
14907TIP3    H166136   3.112   6.082  11.568 -0.3459 -1.8655 -0.2501
14907TIP3    H266137   3.229   5.991  11.599  2.9756  1.9649 -0.6476
14908TIP3   OH266138   5.498   3.859  17.105  0.2890 -0.5709  0.3237
14908TIP3    H166139   5.505   3.953  17.091 -0.2891 -0.5163  0.3590
14908TIP3    H266140   5.406   3.839  17.087  0.2394 -1.0089  1.0210
14909TIP3   OH266141   1.779   4.874   6.077 -0.3532  0.0929  0.2896
14909TIP3    H166142   1.828   4.954   6.058 -0.3547  0.4130  1.5308
14909TIP3    H266143   1.689   4.904   6.091 -0.0474  0.1652  2.4839
14910TIP3   OH266144   4.201   1.346  15.565  0.0796 -0.3347  0.2682
14910TIP3    H166145   4.120   1.391  15.587 -1.1876 -1.4930 -1.7757
14910TIP3    H266146   4.181   1.253  15.578  1.5776 -0.5649  1.1616
14911TIP3   OH266147   3.140   4.879   6.002 -0.6764  0.6613 -0.0776
14911TIP3    H166148   3.222   4.848   6.041  0.1501 -1.3936 -3.1501
14911TIP3    H266149   3.072   4.828   6.046 -0.0257  0.0926  0.2933
14912TIP3   OH266150   6.748   5.679  12.806  0.3388  0.2410  0.0143
14912TIP3    H166151   6.727   5.626  12.883 -0.3917 -0.3356 -0.5753
14912TIP3    H266152   6.793   5.756  12.842  2.9945 -1.5141  0.7848
14913TIP3   OH266153   5.543   2.170   0.473 -0.2689  0.5507 -0.0495
14913TIP3    H166154   5.556   2.078   0.449  0.2654  0.4687  0.5316
14913TIP3    H266155   5.627   2.212   0.457 -0.3908  0.8491  0.0769
14914TIP3   OH266156   4.717   4.509  15.362 -0.3231  0.1882  0.3802
14914TIP3    H166157   4.631   4.506  15.319 -0.3321 -0.7009  0.4279
14914TIP3    H266158   4.726   4.599  15.391 -0.1848  0.9230 -1.7365
14915TIP3   OH266159   2.936   0.908   2.671  1.1507 -0.4730  0.6429
14915TIP3    H166160   2.869   0.848   2.640  0.0078 -0.2581  2.5393
14915TIP3    H266161   3.018   0.859   2.665  0.4459 -1.6926  0.7911
14916TIP3   OH266162   2.105   0.210   0.377  0.2095  0.2560  0.3859
14916TIP3    H166163   2.169   0.271   0.342 -0.7103  0.4956 -0.9582
14916TIP3    H266164   2.025   0.262   0.390  0.1999 -0.0727  1.8509
14917TIP3   OH266165   0.563   6.179   1.814 -0.0903 -0.5390  0.1109
14917TIP3    H166166   0.620   6.238   1.763  0.4850  0.2942  1.6327
14917TIP3    H266167   0.580   6.092   1.778  0.1576  0.0354 -1.2189
14918TIP3   OH266168   6.407   3.138   2.598  0.3095 -0.4762 -0.0593
14918TIP3    H166169   6.474   3.106   2.538 -0.0855 -0.8805 -0.2887
14918TIP3    H266170   6.359   3.060   2.625  1.0131 -0.4197  1.4579
14919TIP3   OH266171   5.234   4.117   3.427 -0.0075  0.0087  0.2263
14919TIP3    H166172   5.269   4.108   3.516 -0.2554 -0.5945  0.2693
14919TIP3    H266173   5.169   4.047   3.420 -1.5268  1.3570  0.3055
14920TIP3   OH266174   1.481   3.744  13.096 -0.3309 -0.0498  0.2038
14920TIP3    H166175   1.478   3.752  13.191  0.5415  1.9624  0.1063
14920TIP3    H266176   1.448   3.827  13.063 -1.0497 -0.8748 -1.2820
14921TIP3   OH266177   1.903   5.553   5.121  0.2975  0.5505  0.0921
14921TIP3    H166178   1.900   5.524   5.212 -0.1884  0.4714  0.0560
14921TIP3    H266179   1.842   5.628   5.118  1.4280  1.5010  0.1543
14922TIP3   OH266180   5.836   1.405   5.871 -0.1485  0.3913  0.3805
14922TIP3    H166181   5.894   1.331   5.885 -0.3289  0.2366  0.3187
14922TIP3    H266182   5.881   1.459   5.806 -0.1777  0.1564  0.1645
14923TIP3   OH266183   2.618   3.627  16.038  0.2608  0.1734  0.2147
14923TIP3    H166184   2.686   3.561  16.052 -0.1015 -0.5705 -1.2906
14923TIP3    H266185   2.537   3.585  16.065 -0.0861 -0.3605 -1.5034
14924TIP3   OH266186   1.429   0.626  15.554 -0.2161 -0.0792 -0.3403
14924TIP3    H166187   1.382   0.690  15.607 -2.0508 -1.4573 -0.2432
14924TIP3    H266188   1.362   0.580  15.505  1.0717 -1.7308 -0.6530
14925TIP3   OH266189   3.492   4.577  11.284 -0.0152 -0.4707  0.1814
14925TIP3    H166190   3.432   4.520  11.333  0.1912 -3.7430 -2.8964
14925TIP3    H266191   3.436   4.627  11.225  0.0077  0.0364  0.5870
14926TIP3   OH266192   1.129   0.191   3.464 -0.3088 -0.3868  0.1907
14926TIP3    H166193   1.055   0.170   3.522 -1.3367 -0.5890 -1.1310
14926TIP3    H266194   1.112   0.281   3.435 -1.7746 -1.3801 -2.4625
14927TIP3   OH266195   3.728   4.115   3.162 -0.0043  1.0601  0.0441
14927TIP3    H166196   3.726   4.193   3.218 -4.3399  0.8984  0.5028
14927TIP3    H266197   3.648   4.068   3.185  1.0635 -2.1562 -2.1642
14928TIP3   OH266198   3.191   6.721   4.802  0.0604 -0.4582  0.8405
14928TIP3    H166199   3.260   6.662   4.833 -0.7625 -1.2636  1.1729
14928TIP3    H266200   3.239   6.793   4.762  1.1076 -0.8879  1.2574
14929TIP3   OH266201   0.147   0.458  11.386 -0.1884 -0.2870  0.1754
14929TIP3    H166202   0.085   0.528  11.407  0.8432  0.6609  0.1662
14929TIP3    H266203   0.116   0.382  11.436  0.9689  1.3013  3.6245
14930TIP3   OH266204   3.491   2.999   3.567 -0.2538  0.2583 -0.2365
14930TIP3    H166205   3.466   2.995   3.475  1.3994 -0.4154 -0.6987
14930TIP3    H266206   3.587   2.997   3.566 -0.1024  2.5191  1.3898
14931TIP3   OH266207   0.194   3.629   5.858 -0.6275  0.2903  0.6384
14931TIP3    H166208   0.211   3.549   5.808 -0.3343 -0.5651  2.0273
14931TIP3    H266209   0.233   3.699   5.806  1.5866 -0.8159  0.6659
14932TIP3   OH266210   2.727   5.603  14.400 -0.1485  0.1785 -0.2808
14932TIP3    H166211   2.748   5.510  14.402  0.9267  0.4104 -0.0448
14932TIP3    H266212   2.812   5.647  14.392 -0.7328  1.1017 -1.8620
14933TIP3   OH266213   2.387   5.354  12.483 -0.0931 -0.3437  0.7728
14933TIP3    H166214   2.422   5.365  12.394  2.1808  1.3706  1.7740
14933TIP3    H266215   2.295   5.330  12.469  0.2063 -0.2847 -2.0288
14934TIP3   OH266216   4.048   2.501  16.617 -0.6949  0.0793 -0.1976
14934TIP3    H166217   3.963   2.540  16.636 -0.1173  1.5114 -0.3992
14934TIP3    H266218   4.106   2.538  16.683 -0.4197 -1.7182  0.6106
14935TIP3   OH266219   4.046   1.558  15.298 -0.0794  0.8967  0.0687
14935TIP3    H166220   3.984   1.577  15.228  1.4563  0.3196 -1.5179
14935TIP3    H266221   4.120   1.615  15.281  0.4000  0.6266  1.1552
14936TIP3   OH266222   0.559   1.604  16.102  0.6270  0.1538  0.8919
14936TIP3    H166223   0.471   1.583  16.071  0.2316 -0.3916  2.3424
14936TIP3    H266224   0.614   1.597  16.023 -0.5379  0.0867  0.0561
14937TIP3   OH266225   2.402   2.571   6.175 -0.3541 -0.1320  0.0342
14937TIP3    H166226   2.334   2.557   6.240  0.0516 -0.2182  0.4489
14937TIP3    H266227   2.392   2.500   6.113  1.9830 -2.7454  2.3493
14938TIP3   OH266228   6.488   6.014   0.306  0.4424  0.6295 -0.1899
14938TIP3    H166229   6.568   5.960   0.310 -0.4665 -0.7724 -0.2958
14938TIP3    H266230   6.496   6.074   0.379  0.3109 -1.3913  1.5785
14939TIP3   OH266231   1.899   1.891   2.163 -0.3569 -0.2079  0.0721
14939TIP3    H166232   1.827   1.829   2.171 -0.5084 -0.0663 -0.1896
14939TIP3    H266233   1.858   1.977   2.171 -0.5593 -0.0258 -2.3333
14940TIP3   OH266234   3.472   0.935   4.453 -0.2099 -0.0805  0.6202
14940TIP3    H166235   3.450   0.855   4.406 -2.1213  0.7787 -0.0717
14940TIP3    H266236   3.500   0.996   4.385 -3.5950  1.3787  0.2965
14941TIP3   OH266237   1.051   5.735   6.437 -0.7914  0.0986 -0.1467
14941TIP3    H166238   1.084   5.795   6.504  1.3187 -1.6547  0.4919
14941TIP3    H266239   1.088   5.767   6.355 -0.1647  0.0181  0.1011
14942TIP3   OH266240   3.604   6.731   1.184 -0.6105  0.1345  0.4138
14942TIP3    H166241   3.531   6.671   1.169 -0.2000 -0.8975  2.2147
14942TIP3    H266242   3.676   6.694   1.134 -0.4279 -0.7679  1.3183
14943TIP3   OH266243   3.583   1.565  11.921  0.1827  0.5682 -0.0618
14943TIP3    H166244   3.553   1.597  12.007  1.7217  0.1154  0.6781
14943TIP3    H266245   3.601   1.472  11.935 -1.0415  0.1046 -1.3223
14944TIP3   OH266246   0.440   5.667   4.268  0.0593  0.3824  0.3084
14944TIP3    H166247   0.449   5.721   4.346  1.0719  0.2549  0.2834
14944TIP3    H266248   0.351   5.684   4.237  0.6280  2.7389 -0.2180
14945TIP3   OH266249   5.260   6.456   2.735  0.3095 -0.2585 -0.4691
14945TIP3    H166250   5.198   6.499   2.676  0.1762 -0.1598 -0.2589
14945TIP3    H266251   5.228   6.477   2.823  0.4852 -0.4346 -0.3616
14946TIP3   OH266252   2.036   2.625   3.713 -0.9335  0.2705 -0.3422
14946TIP3    H166253   2.041   2.691   3.644 -1.6265  0.9354  0.2290
14946TIP3    H266254   1.964   2.654   3.769  0.5857  0.5664  1.5347
14947TIP3   OH266255   0.056   3.235  14.133  0.2839 -0.0787 -0.1662
14947TIP3    H166256   0.141   3.194  14.115  0.4264 -0.6952  1.7209
14947TIP3    H266257  -0.008   3.168  14.110  0.3462 -0.0240 -0.5118
14948TIP3   OH266258   4.588   1.689   6.520 -0.1626  0.1092  0.1722
14948TIP3    H166259   4.523   1.712   6.586  1.0647 -2.3908  2.5054
14948TIP3    H266260   4.665   1.662   6.571  1.1174 -1.3754 -2.3155
14949TIP3   OH266261   3.616   2.782   1.267  0.3066 -0.3892 -0.8736
14949TIP3    H166262   3.652   2.871   1.262  0.8826 -0.5781 -0.2351
14949TIP3    H266263   3.655   2.736   1.194  1.2646 -0.5487 -0.2747
14950TIP3   OH266264   6.423   1.634  10.924 -0.0538 -0.1575  0.0069
14950TIP3    H166265   6.503   1.668  10.962  0.5225 -0.7549 -0.6423
14950TIP3    H266266   6.432   1.539  10.929 -0.3423 -0.2431 -0.8165
14951TIP3   OH266267   5.153   0.169   0.350 -0.6880 -0.4632 -0.2729
14951TIP3    H166268   5.212   0.094   0.354  0.7833  0.6955  1.5264
14951TIP3    H266269   5.104   0.165   0.432  0.2976  1.1640  0.4492
14952TIP3   OH266270   2.771   1.944  12.555  0.4894  0.2585 -0.4415
14952TIP3    H166271   2.681   1.975  12.547 -0.9434 -3.1265  0.8076
14952TIP3    H266272   2.790   1.947  12.649  1.0688 -0.5943 -0.5210
14953TIP3   OH266273   5.740   2.675   5.181  0.0467  0.1917 -0.1475
14953TIP3    H166274   5.651   2.694   5.210  0.4560  1.7029  0.2119
14953TIP3    H266275   5.787   2.654   5.262  0.2310  0.3553 -0.2117
14954TIP3   OH266276   2.398   1.879  12.203  0.2616  0.1241 -0.7472
14954TIP3    H166277   2.403   1.912  12.113  3.0182 -0.3464 -0.8426
14954TIP3    H266278   2.361   1.791  12.195 -2.2193  1.1202 -1.0419
14955TIP3   OH266279   0.019   4.143  13.419 -0.0134 -0.0416 -0.3231
14955TIP3    H166280   0.051   4.205  13.485 -1.5846  1.4157 -0.8628
14955TIP3    H266281  -0.032   4.197  13.358 -2.7050 -2.0571 -0.0323
14956TIP3   OH266282   0.511   0.733   3.423  0.4950  0.3881 -0.2159
14956TIP3    H166283   0.428   0.739   3.468 -1.0209  0.4530 -2.8008
14956TIP3    H266284   0.529   0.823   3.394  0.9850  0.2163 -0.4681
14957TIP3   OH266285   6.671   6.598  15.785 -0.7935  0.0227 -0.2984
14957TIP3    H166286   6.682   6.668  15.720 -0.7444  2.0827  1.7594
14957TIP3    H266287   6.704   6.636  15.866  1.5893 -3.3294  0.4932
14958TIP3   OH266288   3.963   4.372  13.293  0.5523 -0.0890 -0.0881
14958TIP3    H166289   3.902   4.445  13.306  0.3469 -0.5353  1.6879
14958TIP3    H266290   3.917   4.311  13.235 -1.5887 -1.3408  2.7395
14959TIP3   OH266291   3.548   2.611  11.455  0.5276 -0.3960 -0.4896
14959TIP3    H166292   3.489   2.650  11.390  0.4886 -0.0479 -0.2501
14959TIP3    H266293   3.626   2.587  11.405  0.6915  0.3060 -0.5939
14960TIP3   OH266294   3.309   1.071   1.018  0.0515  0.3556 -0.2971
14960TIP3    H166295   3.277   0.984   0.993  1.1559 -0.3545  0.6837
14960TIP3    H266296   3.255   1.131   0.967 -1.0851 -0.8796 -0.6173
14961TIP3   OH266297   1.457   5.290   4.796 -0.1576 -0.3248  0.6253
14961TIP3    H166298   1.456   5.275   4.890  2.1550  1.1928  0.9834
14961TIP3    H266299   1.468   5.385   4.786  0.0036 -0.4787 -1.1522
14962TIP3   OH266300   5.732   5.014  13.024  0.0579 -0.2836  0.3507
14962TIP3    H166301   5.790   5.090  13.031 -0.5061  0.3650 -1.4382
14962TIP3    H266302   5.651   5.042  13.068 -0.6085  0.6942 -1.3934
14963TIP3   OH266303   3.348   6.663  15.886  0.1954  0.4222 -0.2381
14963TIP3    H166304   3.274   6.651  15.826  0.1224  3.0623 -0.8113
14963TIP3    H266305   3.419   6.612  15.846 -0.2039  1.1129 -1.9330
14964TIP3   OH266306   1.286   3.108  15.013 -0.3682  0.2896 -0.3938
14964TIP3    H166307   1.241   3.027  14.988 -0.7253  0.7264 -1.2312
14964TIP3    H266308   1.224   3.178  14.990 -1.6975  0.7194  3.7955
14965TIP3   OH266309   4.671   3.067  15.527 -0.2860  0.0695 -0.4797
14965TIP3    H166310   4.697   3.081  15.436  0.6803  0.8818 -0.0951
14965TIP3    H266311   4.659   3.155  15.562  0.0429 -0.2152  0.3753
14966TIP3   OH266312   5.784   4.271  11.783  0.3058  0.3024 -0.5300
14966TIP3    H166313   5.722   4.341  11.806  0.7200  1.1090 -1.7245
14966TIP3    H266314   5.778   4.266  11.687  1.4584 -0.2041 -0.5849
14967TIP3   OH266315   4.658   6.268   1.515 -0.0837 -0.3117  0.1597
14967TIP3    H166316   4.630   6.245   1.427 -0.9707 -0.3038  0.4298
14967TIP3    H266317   4.748   6.235   1.521 -0.5037 -1.6154 -0.2585
14968TIP3   OH266318   5.062   1.829  12.325  0.1127 -0.5547 -0.5006
14968TIP3    H166319   5.034   1.910  12.281  2.0269 -0.7602 -2.2300
14968TIP3    H266320   5.002   1.762  12.291 -0.5109 -0.1599 -0.2178
14969TIP3   OH266321   6.150   4.213   2.057  0.0121 -0.0741  0.2793
14969TIP3    H166322   6.166   4.147   1.990  1.7289  0.9472 -0.4051
14969TIP3    H266323   6.173   4.170   2.139 -1.0000 -0.9794  0.1090
14970TIP3   OH266324   1.681   0.931   5.962 -1.2447 -0.4581  0.0992
14970TIP3    H166325   1.732   0.892   5.891  2.2393  0.8688  1.6344
14970TIP3    H266326   1.674   0.860   6.027  1.4862  0.0726  1.1338
14971TIP3   OH266327   3.173   2.501  16.244  0.1396 -0.0855  0.3749
14971TIP3    H166328   3.148   2.503  16.336  0.1230  1.1246  0.3578
14971TIP3    H266329   3.108   2.556  16.200  1.5456  1.3728  0.0205
14972TIP3   OH266330   0.625   2.961   2.172  0.0186 -0.1162 -0.4593
14972TIP3    H166331   0.691   2.917   2.119 -0.2712 -0.7712 -0.2914
14972TIP3    H266332   0.583   2.890   2.221  0.5141  0.5028  0.9182
14973TIP3   OH266333   1.235   2.644   0.240 -0.1182  0.2215 -0.2501
14973TIP3    H166334   1.275   2.685   0.163  0.0263  0.3482 -0.1091
14973TIP3    H266335   1.170   2.708   0.269 -0.6971 -0.1592 -0.7130
14974TIP3   OH266336   3.472   3.494   5.642  0.2191 -0.0163  0.5450
14974TIP3    H166337   3.380   3.505   5.665  0.3388  0.8770  0.6288
14974TIP3    H266338   3.472   3.427   5.573 -0.3351 -1.1719  1.6405
14975TIP3   OH266339   3.679   0.078  11.435 -0.5602 -0.4744  0.1351
14975TIP3    H166340   3.674  -0.002  11.383 -1.9558  0.0109 -0.5388
14975TIP3    H266341   3.772   0.097  11.441 -0.3433 -0.5253 -2.2739
14976TIP3   OH266342   2.450   3.470   5.718 -0.0105 -0.7006 -0.1753
14976TIP3    H166343   2.392   3.394   5.720  0.4174 -1.0284  1.4949
14976TIP3    H266344   2.463   3.488   5.625 -2.1811 -1.0602 -0.6057
14977TIP3   OH266345   6.214   5.947   4.588 -0.2280  0.3802 -0.3166
14977TIP3    H166346   6.143   5.969   4.647  0.8788  0.2742  1.1246
14977TIP3    H266347   6.174   5.945   4.501 -1.7811  1.1373  0.3463
14978TIP3   OH266348   6.319   5.212  16.426 -0.2309  0.0936  0.3179
14978TIP3    H166349   6.339   5.287  16.481 -1.5890 -0.2586  1.3614
14978TIP3    H266350   6.226   5.222  16.405 -0.1650 -0.7345 -0.4186
14979TIP3   OH266351   2.800   5.720   6.049 -0.5157  0.1893  0.5319
14979TIP3    H166352   2.801   5.624   6.043  1.5822  0.1758  0.2087
14979TIP3    H266353   2.714   5.745   6.014  0.0964 -1.4553 -2.5198
14980TIP3   OH266354   2.282   0.504  15.501 -0.5828  0.3904 -0.4821
14980TIP3    H166355   2.259   0.566  15.570  0.8086 -1.0073  1.3606
14980TIP3    H266356   2.203   0.453  15.487 -0.7986  0.4826  0.3459
14981TIP3   OH266357   5.129   5.701  11.339 -0.1246  0.0457  0.3175
14981TIP3    H166358   5.087   5.665  11.261 -0.0202  1.7282 -0.5498
14981TIP3    H266359   5.219   5.717  11.313 -0.5268  2.3325  0.1675
14982TIP3   OH266360   0.452   4.264  15.541 -0.5820  0.1885 -0.3962
14982TIP3    H166361   0.489   4.267  15.453  0.5226  0.0353  0.0446
14982TIP3    H266362   0.472   4.350  15.578  1.1439 -0.5633  0.5308
14983TIP3   OH266363   5.550   5.919  11.926  0.2511  0.3831  0.8110
14983TIP3    H166364   5.525   5.919  11.834 -1.3964 -1.2132  1.2001
14983TIP3    H266365   5.476   5.960  11.971 -0.2409 -1.3567  1.6679
14984TIP3   OH266366   6.077   0.894   4.617  0.0361  0.7934 -0.0355
14984TIP3    H166367   6.101   0.905   4.525  2.1600 -2.0864  0.0114
14984TIP3    H266368   6.139   0.950   4.665  2.0548 -1.0671 -0.2774
14985TIP3   OH266369   4.991   0.495   0.562 -0.8073 -0.3253  0.3355
14985TIP3    H166370   5.006   0.469   0.471 -0.5495 -0.3248  0.3783
14985TIP3    H266371   5.068   0.464   0.609 -0.1739  1.1255  0.2754
14986TIP3   OH266372   2.424   1.602  15.034  0.3672 -0.0414  0.6491
14986TIP3    H166373   2.490   1.632  15.096 -0.0766  0.8496  0.7007
14986TIP3    H266374   2.350   1.576  15.088  0.2169  0.1224  0.5201
14987TIP3   OH266375   3.229   5.451   3.698 -0.5078  0.5330 -0.2145
14987TIP3    H166376   3.294   5.400   3.746 -1.8573  0.6003  1.7899
14987TIP3    H266377   3.279   5.521   3.657  0.8325 -0.0726  0.3153
14988TIP3   OH266378   0.125   2.587  11.044 -0.0249 -0.0364  0.3566
14988TIP3    H166379   0.157   2.519  11.103 -1.8555 -1.8542 -0.5919
14988TIP3    H266380   0.196   2.650  11.039  2.2991 -2.4552  0.3813
14989TIP3   OH266381   0.353   0.607   1.317 -0.3491 -0.0463 -0.0246
14989TIP3    H166382   0.390   0.695   1.316  0.7108 -0.4641 -2.1476
14989TIP3    H266383   0.405   0.559   1.381 -0.7277  0.7496  0.9106
14990TIP3   OH266384   4.726   3.599  12.006 -0.1440 -0.1546  0.9087
14990TIP3    H166385   4.809   3.626  11.966  0.4097 -1.5227  1.0603
14990TIP3    H266386   4.729   3.634  12.095  0.1203  0.0872  0.8051
14991TIP3   OH266387   2.819   1.948  12.987 -0.5664 -0.4078  0.0528
14991TIP3    H166388   2.807   1.894  13.065  1.5298 -3.0189 -1.3058
14991TIP3    H266389   2.910   1.976  12.990 -0.1884 -1.3000 -1.8781
14992TIP3   OH266390   5.098   3.284  15.574 -0.4261 -0.1526 -0.2059
14992TIP3    H166391   5.186   3.318  15.589  0.0137 -1.7990  1.2595
14992TIP3    H266392   5.045   3.363  15.561  0.9553  0.9837  0.6276
14993TIP3   OH266393   5.659   3.511   2.962  0.3694  0.2161 -0.2052
14993TIP3    H166394   5.704   3.596   2.962  0.4351  0.1826  0.1534
14993TIP3    H266395   5.567   3.533   2.979  0.5964  0.1140  1.2466
14994TIP3   OH266396   0.344   2.277   5.209  0.3408 -0.2922 -0.0192
14994TIP3    H166397   0.335   2.183   5.226  1.0818 -0.5061 -0.7312
14994TIP3    H266398   0.356   2.316   5.295  0.9467 -0.9696  0.2125
14995TIP3   OH266399   4.246   6.469   2.433  0.3332  0.1722 -0.1723
14995TIP3    H166400   4.338   6.444   2.436 -0.1216 -1.9237 -1.2997
14995TIP3    H266401   4.234   6.528   2.508  2.7490  1.2254 -0.5388
14996TIP3   OH266402   5.628   4.106   5.865  0.5587  0.0221 -0.5502
14996TIP3    H166403   5.646   4.021   5.824  1.0401  0.0324 -0.3633
14996TIP3    H266404   5.710   4.130   5.907  0.3625  0.4896 -0.4335
14997TIP3   OH266405   0.242   6.453  16.419 -0.5752  0.1146  0.8996
14997TIP3    H166406   0.154   6.485  16.398 -0.8354 -0.7377  0.6538
14997TIP3    H266407   0.268   6.505  16.496 -1.2104  0.5069  0.8605
14998TIP3   OH266408   3.581   1.151   0.941 -0.4143  0.7423  0.1096
14998TIP3    H166409   3.619   1.192   1.018  0.7821 -1.3327  0.6978
14998TIP3    H266410   3.491   1.129   0.967  0.3545 -1.0578  1.4213
14999TIP3   OH266411   3.837   0.511  12.813  0.0975 -0.5416  0.9445
14999TIP3    H166412   3.879   0.427  12.834 -0.3469 -0.5727  1.7824
14999TIP3    H266413   3.793   0.536  12.895  0.2462  0.5231  0.7062
15000TIP3   OH266414   1.333   1.052  10.832 -0.0365 -0.0361 -0.5295
15000TIP3    H166415   1.243   1.069  10.805 -0.4396 -0.9773  0.1694
15000TIP3    H266416   1.373   1.007  10.758  0.6932  2.6522 -1.9276
15001TIP3   OH266417   2.252   1.982   1.417  0.3959 -0.4294  0.0990
15001TIP3    H166418   2.237   2.051   1.352  1.8064  0.9806  1.1739
15001TIP3    H266419   2.329   1.935   1.385  1.3408  0.5222  0.8741
15002TIP3   OH266420   2.345   6.492   3.554  0.1507 -0.4191  0.0508
15002TIP3    H166421   2.295   6.552   3.610  0.2083  0.4876 -0.8438
15002TIP3    H266422   2.353   6.539   3.470  0.1829 -1.6902 -0.6730
15003TIP3   OH266423   1.545   6.754   3.548 -0.3636  0.1820 -0.4328
15003TIP3    H166424   1.616   6.805   3.586  0.1572 -0.7884 -0.0458
15003TIP3    H266425   1.475   6.756   3.614 -0.4399  0.5985 -0.5286
15004TIP3   OH266426   2.750   1.422  15.638  0.4938 -0.0670 -0.0741
15004TIP3    H166427   2.825   1.372  15.605  2.5093  2.6194  0.0664
15004TIP3    H266428   2.758   1.507  15.596 -2.2270  0.5007  0.3969
15005TIP3   OH266429   2.026   5.553  14.902 -0.3612  0.2114 -0.2690
15005TIP3    H166430   1.934   5.577  14.909 -0.6221 -0.7689 -0.1103
15005TIP3    H266431   2.051   5.581  14.814 -0.2371  2.2784  0.3644
15006TIP3   OH266432   4.733   4.597   2.072  0.2771 -0.1726 -0.6364
15006TIP3    H166433   4.748   4.587   1.978  1.6211 -2.2843 -0.2725
15006TIP3    H266434   4.664   4.533   2.092 -0.6878  0.9469 -0.3258
15007TIP3   OH266435   2.293   3.007   3.619  0.2643  0.3625 -0.0709
15007TIP3    H166436   2.322   2.939   3.679 -0.3131 -1.0948 -1.3377
15007TIP3    H266437   2.208   3.034   3.653  0.1254 -0.1617  0.0155
15008TIP3   OH266438   3.502   1.322   2.773 -0.1978 -0.3825 -0.0030
15008TIP3    H166439   3.574   1.385   2.770  0.5120 -1.1471  0.5126
15008TIP3    H266440   3.461   1.337   2.858 -0.3771 -0.2318 -0.1173
15009TIP3   OH266441   2.701   6.758   4.096 -0.1767  0.0754  0.3677
15009TIP3    H166442   2.717   6.846   4.131 -2.4667  0.4693  0.6078
15009TIP3    H266443   2.726   6.765   4.003  0.5709  0.6882  0.6040
15010TIP3   OH266444   5.618   2.456   5.537 -0.1357 -0.1861 -0.0669
15010TIP3    H166445   5.659   2.373   5.560 -0.3044 -0.6924 -1.4768
15010TIP3    H266446   5.541   2.461   5.593 -0.8668 -1.6553 -0.8658
15011TIP3   OH266447   6.665   2.445   3.026  0.1673  0.0246 -0.2530
15011TIP3    H166448   6.739   2.503   3.040 -1.3976  1.9731  0.3604
15011TIP3    H266449   6.610   2.489   2.961 -1.0544 -0.7689  0.1875
15012TIP3   OH266450   3.016   1.773   2.641 -0.1762 -0.3064  0.4064
15012TIP3    H166451   3.021   1.772   2.737  1.0100 -0.4831  0.3521
15012TIP3    H266452   3.074   1.702   2.614 -0.6962 -0.4141 -0.4450
15013TIP3   OH266453   4.870   2.783   3.663  0.1932  0.1834  0.2472
15013TIP3    H166454   4.925   2.743   3.730  0.6081 -0.0333 -0.2289
15013TIP3    H266455   4.805   2.716   3.642  0.5215 -0.0265 -0.1114
15014TIP3   OH266456   3.667   3.450  11.924 -0.4973 -0.0968 -0.3276
15014TIP3    H166457   3.731   3.438  11.854 -0.4654 -0.7790 -0.1902
15014TIP3    H266458   3.588   3.480  11.881  0.2900  2.1006 -0.3667
15015TIP3   OH266459   5.869   4.386   3.259 -0.7557 -0.0508 -0.0686
15015TIP3    H166460   5.822   4.440   3.196 -1.6517 -0.0644  0.5727
15015TIP3    H266461   5.823   4.302   3.258  0.1585 -0.5672 -0.4995
15016TIP3   OH266462   2.250   1.622   5.571  0.1087 -0.2845 -0.2620
15016TIP3    H166463   2.308   1.656   5.503 -1.4263  2.3332 -0.3655
15016TIP3    H266464   2.255   1.686   5.641 -1.6296 -0.7009  0.2868
15017TIP3   OH266465   1.476   4.446  15.089 -0.5910  0.6710 -0.3050
15017TIP3    H166466   1.411   4.434  15.020 -0.9027 -1.2732  0.2622
15017TIP3    H266467   1.444   4.393  15.162  0.5872  1.3234  0.7212
15018TIP3   OH266468   6.741   2.091   1.676 -0.2536  0.2810  0.4278
15018TIP3    H166469   6.663   2.102   1.621  0.4465  0.8729 -0.4577
15018TIP3    H266470   6.791   2.171   1.664  0.3239  0.0662  1.2960
15019TIP3   OH266471   6.710   5.184   3.302  0.3094  0.5600 -0.1049
15019TIP3    H166472   6.775   5.245   3.268 -0.6727  1.9770  0.4653
15019TIP3    H266473   6.762   5.110   3.333  2.0120  2.6492  2.6060
15020TIP3   OH266474   2.734   0.205   0.957 -0.1282 -0.4402  0.4267
15020TIP3    H166475   2.650   0.232   0.920  0.3298  0.4077 -0.0176
15020TIP3    H266476   2.718   0.202   1.052 -0.3315  0.9614  0.4607
15021TIP3   OH266477   5.074   5.887   2.762 -0.1063  0.3139  0.0075
15021TIP3    H166478   5.157   5.874   2.807 -1.6275  0.1945  3.0354
15021TIP3    H266479   5.039   5.799   2.750  0.0269  0.3822 -0.9731
15022TIP3   OH266480   6.650   3.539   1.211  0.3514  0.4240  0.1753
15022TIP3    H166481   6.666   3.523   1.304 -1.4301 -2.4413  0.1239
15022TIP3    H266482   6.725   3.498   1.167  0.5506  0.6347  0.3174
15023TIP3   OH266483   4.194   1.026   3.708  0.7387  0.4223  0.5145
15023TIP3    H166484   4.122   0.997   3.765  0.6464 -1.1863 -0.3449
15023TIP3    H266485   4.151   1.078   3.640  0.7286  1.5115  1.3190
15024TIP3   OH266486   1.797   4.022  14.597  0.7385  0.2154  0.5732
15024TIP3    H166487   1.737   4.014  14.523  0.8157  0.2900  0.5023
15024TIP3    H266488   1.883   4.036  14.557  0.4207  3.0465  0.6704
15025TIP3   OH266489   0.836   2.181  12.776  0.3525 -0.1975  0.3762
15025TIP3    H166490   0.873   2.205  12.861 -1.8104  1.2148  0.9963
15025TIP3    H266491   0.750   2.144  12.796 -1.2606  2.3933 -1.2513
15026TIP3   OH266492   1.751   2.327  12.895  0.1975  0.0926  0.0291
15026TIP3    H166493   1.811   2.398  12.871 -0.7707  0.3150 -1.8711
15026TIP3    H266494   1.808   2.259  12.932  1.7054  0.2139 -1.9162
15027TIP3   OH266495   6.205   4.348   4.874 -0.1177 -0.2924 -0.0781
15027TIP3    H166496   6.237   4.412   4.811 -0.1055 -0.3921 -0.1725
15027TIP3    H266497   6.111   4.343   4.858 -0.1874  0.0077  0.2055
15028TIP3   OH266498   1.389   5.846   2.899 -0.3261 -0.4347  0.3201
15028TIP3    H166499   1.322   5.909   2.874  1.7900  1.1951 -1.6420
15028TIP3    H266500   1.361   5.764   2.858  0.0840  0.8410 -2.7960
15029TIP3   OH266501   4.242   2.901  14.341 -0.2447  0.1278  0.1833
15029TIP3    H166502   4.190   2.957  14.397 -0.5509  1.4147 -1.3058
15029TIP3    H266503   4.232   2.813  14.378  0.7782  1.1063  2.9495
15030TIP3   OH266504   2.721   2.215   2.940 -0.0144 -0.5349 -0.6293
15030TIP3    H166505   2.752   2.232   2.851 -1.1238 -1.7232 -1.2872
15030TIP3    H266506   2.676   2.130   2.933  0.5056 -0.9971  1.2319
15031TIP3   OH266507   1.072   4.189   0.118  0.5119  0.1411 -0.4121
15031TIP3    H166508   1.079   4.095   0.130  0.7326  0.1283 -0.6340
15031TIP3    H266509   0.978   4.206   0.120  0.5273  0.2888  2.3552
15032TIP3   OH266510   3.350   2.335  14.560  0.1251 -0.2727  0.0292
15032TIP3    H166511   3.263   2.305  14.585 -0.4845  1.5282  0.2468
15032TIP3    H266512   3.382   2.269  14.498 -1.6935 -0.6178 -0.6131
15033TIP3   OH266513   0.772   0.221   3.886 -0.9013  0.6321 -0.3447
15033TIP3    H166514   0.688   0.182   3.862 -0.8139  0.5561 -0.5291
15033TIP3    H266515   0.837   0.170   3.838 -0.7103  0.3940  0.1497
15034TIP3   OH266516   6.096   3.193   1.640 -0.6413 -0.0177  0.2476
15034TIP3    H166517   6.096   3.288   1.653  0.4498  0.3324 -1.9047
15034TIP3    H266518   6.188   3.169   1.643 -0.8689 -0.9142  0.1293
15035TIP3   OH266519   6.678   5.356   5.288  0.2179  0.2790 -0.3064
15035TIP3    H166520   6.648   5.409   5.214  1.2304 -1.0214 -1.6975
15035TIP3    H266521   6.661   5.266   5.263  0.0652 -0.1770  1.3060
15036TIP3   OH266522   3.393   1.310  12.170  0.5194  0.8421  0.0326
15036TIP3    H166523   3.392   1.274  12.081 -1.3572  0.4157  0.1680
15036TIP3    H266524   3.407   1.234  12.226  0.0523  0.8500  0.1641
15037TIP3   OH266525   5.990   0.036  12.294  0.2266  0.0250 -0.3718
15037TIP3    H166526   6.067  -0.020  12.288 -1.6034 -2.7141  0.0032
15037TIP3    H266527   5.962   0.028  12.385 -0.9299  0.3651 -0.6841
15038TIP3   OH266528   2.991   4.082   0.718 -0.4986  0.7457  0.3361
15038TIP3    H166529   3.083   4.107   0.732  0.3255 -1.3531 -0.7537
15038TIP3    H266530   2.993   4.028   0.638 -3.0323  2.3362 -0.9341
15039TIP3   OH266531   5.493   0.676   2.272 -0.3432  0.0796 -0.5434
15039TIP3    H166532   5.417   0.731   2.250 -0.2902  0.3556 -0.0637
15039TIP3    H266533   5.474   0.592   2.232  0.3122  0.8885 -2.6999
15040TIP3   OH266534   2.606   2.212   4.865  0.4427  0.1977  0.2720
15040TIP3    H166535   2.545   2.270   4.820  0.1397  0.3969  0.9253
15040TIP3    H266536   2.621   2.254   4.950 -0.9517 -1.4069  1.3767
15041TIP3   OH266537   0.746   2.724   2.846 -0.0639  0.3766  0.4294
15041TIP3    H166538   0.706   2.808   2.867  0.4350  0.7251 -0.0041
15041TIP3    H266539   0.683   2.682   2.787  0.6267  1.3281 -1.0198
15042TIP3   OH266540   3.119   6.278   2.251  0.6102  0.2210  0.4583
15042TIP3    H166541   3.189   6.218   2.225 -0.0207 -1.2930  1.9868
15042TIP3    H266542   3.163   6.346   2.301  1.2543  0.6233 -0.6305
15043TIP3   OH266543   2.689   6.564   1.397  0.0488  0.3999  0.0289
15043TIP3    H166544   2.614   6.538   1.451  0.0898  0.3500  0.0616
15043TIP3    H266545   2.762   6.512   1.430  0.3581  1.2713  0.7597
15044TIP3   OH266546   4.483   6.005   0.545 -0.4490  0.5688 -0.3595
15044TIP3    H166547   4.473   5.924   0.595  0.7210 -0.7404 -2.1115
15044TIP3    H266548   4.483   5.977   0.454  0.5449  2.4809 -1.0040
15045TIP3   OH266549   0.317   3.505   5.441 -0.1745 -0.6193  0.0907
15045TIP3    H166550   0.320   3.584   5.496  0.9023 -0.5068 -0.1077
15045TIP3    H266551   0.409   3.488   5.418 -0.6190 -0.2433 -2.2684
15046TIP3   OH266552   1.798   1.856  15.851  0.1034 -0.1736  0.1157
15046TIP3    H166553   1.816   1.950  15.852  1.4950 -0.4028  1.7660
15046TIP3    H266554   1.747   1.840  15.930 -2.1520 -0.5097 -1.3396
15047TIP3   OH266555   1.780   3.543  11.859 -0.1221  0.8243 -0.2195
15047TIP3    H166556   1.820   3.458  11.878  0.6929  1.3442  0.4471
15047TIP3    H266557   1.759   3.579  11.944 -0.0569  1.4895 -0.4807
15048TIP3   OH266558   4.863   1.493   4.570 -0.1182  0.8477  0.4344
15048TIP3    H166559   4.869   1.581   4.607  1.6695  0.5372  0.9445
15048TIP3    H266560   4.885   1.434   4.642 -0.9498 -0.0213  0.0140
15049TIP3   OH266561   4.702   2.604   0.238 -0.1127  0.6733  0.0785
15049TIP3    H166562   4.710   2.590   0.333  3.1087 -0.5468 -0.2561
15049TIP3    H266563   4.621   2.559   0.214  0.0199 -0.7120  1.9889
15050TIP3   OH266564   0.913   4.610  15.641  0.5134  0.3954 -0.0058
15050TIP3    H166565   0.990   4.580  15.593  2.2564 -0.5621  3.1253
15050TIP3    H266566   0.875   4.530  15.678  0.6883  1.2587  2.1505
15051TIP3   OH266567   4.088   4.984   5.570 -0.1726 -0.3748  0.3057
15051TIP3    H166568   4.054   4.899   5.597 -0.7821 -0.6652 -1.2864
15051TIP3    H266569   4.109   5.029   5.652  1.4740 -2.5546  1.1889
15052TIP3   OH266570   2.562   1.317   4.846  0.1214  0.2144  0.6363
15052TIP3    H166571   2.625   1.251   4.874 -0.6925 -1.0540 -0.3908
15052TIP3    H266572   2.614   1.385   4.805  0.7877 -1.6847 -1.9222
15053TIP3   OH266573   2.982   2.893  13.007 -0.0195 -0.8116  0.1968
15053TIP3    H166574   2.935   2.964  12.964 -0.2130 -0.0109  1.6894
15053TIP3    H266575   2.914   2.830  13.033  0.0421 -1.0253 -0.1469
15054TIP3   OH266576   6.626   0.001  16.270 -0.6509  0.3559 -0.5707
15054TIP3    H166577   6.685  -0.057  16.319  1.6591  2.6324 -0.4869
15054TIP3    H266578   6.555   0.020  16.332  0.9957  1.2938  1.1306
15055TIP3   OH266579   2.150   6.072   4.809  0.2867 -0.0429  0.5048
15055TIP3    H166580   2.060   6.062   4.840  0.1870  2.4083  1.2432
15055TIP3    H266581   2.204   6.065   4.888  0.3734  2.2104  0.7063
15056TIP3   OH266582   0.006   4.775  12.923  0.2997  0.1393  0.5921
15056TIP3    H166583   0.035   4.855  12.968 -1.5315  2.2476 -1.6905
15056TIP3    H266584   0.008   4.798  12.831 -2.2899 -1.7823 -0.0372
15057TIP3   OH266585   2.450   4.349   2.463 -0.2434 -0.2546 -0.1551
15057TIP3    H166586   2.403   4.393   2.392 -0.4409 -0.0258  0.1142
15057TIP3    H266587   2.383   4.295   2.505 -0.6819  1.2722  1.2273
15058TIP3   OH266588   5.048   1.584   0.837 -0.3927 -0.3676  0.2428
15058TIP3    H166589   5.094   1.501   0.847  0.2411 -0.0297  0.2186
15058TIP3    H266590   5.038   1.595   0.742  0.3391  0.0037  0.1961
15059TIP3   OH266591   4.730   1.407  14.523 -0.1652 -0.1858  0.2528
15059TIP3    H166592   4.821   1.425  14.498  1.1627 -2.9105  2.6189
15059TIP3    H266593   4.712   1.467  14.595 -0.6883  1.0614 -0.8632
15060TIP3   OH266594   0.450   5.787  16.269 -0.6725  0.2524 -0.1379
15060TIP3    H166595   0.513   5.859  16.275 -1.3096  0.7855  0.4866
15060TIP3    H266596   0.474   5.740  16.190 -1.6690  2.5724 -1.9479
15061TIP3   OH266597   1.332   2.800  15.706 -0.3868  0.1929  0.0905
15061TIP3    H166598   1.374   2.884  15.720 -2.1698  1.2763 -0.7045
15061TIP3    H266599   1.345   2.782  15.613  0.5708 -0.7782  0.3909
15062TIP3   OH266600   1.255   0.129  11.357  0.3185 -0.2233  0.6042
15062TIP3    H166601   1.236   0.071  11.431  0.5344 -2.0783 -0.7426
15062TIP3    H266602   1.275   0.070  11.284 -1.0356  1.5100 -1.2769
15063TIP3   OH266603   1.826   4.025  14.310 -0.0524 -0.4440  0.2702
15063TIP3    H166604   1.904   4.052  14.360  0.3829 -0.1148 -0.5744
15063TIP3    H266605   1.771   4.103  14.306  0.4003 -0.1571 -0.6574
15064TIP3   OH266606   3.365   5.336   2.660 -0.3432 -0.6037 -0.2985
15064TIP3    H166607   3.358   5.388   2.741 -1.1230 -2.1689  0.6813
15064TIP3    H266608   3.275   5.309   2.641 -0.1795 -0.2085 -1.7542
15065TIP3   OH266609   5.628   5.337  12.021  0.4222 -0.1981 -0.5401
15065TIP3    H166610   5.599   5.303  11.936 -1.3864 -0.4365  0.1358
15065TIP3    H266611   5.698   5.278  12.048 -1.6167 -2.5676 -0.1072
15066TIP3   OH266612   2.610   1.576  14.199  0.1372 -0.1853  0.4516
15066TIP3    H166613   2.525   1.541  14.171 -0.7990  2.4622 -0.3482
15066TIP3    H266614   2.623   1.540  14.287 -0.8429 -2.1757 -0.1573
15067TIP3   OH266615   1.620   3.872  12.376  0.3302  0.4180 -0.5905
15067TIP3    H166616   1.653   3.794  12.421  0.7908 -0.5618 -2.4953
15067TIP3    H266617   1.530   3.849  12.353  0.4634  0.4303 -1.1436
15068TIP3   OH266618   3.796   0.613   5.495 -0.6402  0.3320  0.5204
15068TIP3    H166619   3.785   0.708   5.485  3.2097  0.9354  0.6975
15068TIP3    H266620   3.716   0.576   5.457 -1.7925  3.5803 -0.5730
15069TIP3   OH266621   4.111   5.935  16.187 -0.1869 -0.1751  0.4105
15069TIP3    H166622   4.114   5.845  16.154 -1.3811 -0.8294  1.9596
15069TIP3    H266623   4.024   5.967  16.162 -0.0746  0.2612  0.5709
15070TIP3   OH266624   2.857   5.587  12.652  0.1708 -0.2324  0.7417
15070TIP3    H166625   2.882   5.622  12.738  0.5482  2.1666 -0.2476
15070TIP3    H266626   2.936   5.599  12.598 -0.3897 -0.7031 -0.2109
15071TIP3   OH266627   1.747   4.333  11.362  0.2016 -0.2043 -1.1237
15071TIP3    H166628   1.781   4.416  11.329 -1.7340  0.0498 -2.7263
15071TIP3    H266629   1.660   4.355  11.396  0.3609 -1.2933  0.0210
15072TIP3   OH266630   5.042   3.112  17.280  0.0772 -0.1210 -0.4341
15072TIP3    H166631   5.035   3.038  17.220 -2.1783  0.9407 -1.5878
15072TIP3    H266632   5.065   3.186  17.224  1.3948  0.2619  0.5713
15073TIP3   OH266633   5.257   2.609  13.726 -0.3654  0.1902  0.7632
15073TIP3    H166634   5.258   2.686  13.783  0.0101  0.3200  0.5831
15073TIP3    H266635   5.346   2.604  13.691 -0.3508 -0.4030  0.8770
15074TIP3   OH266636   4.746   0.150  16.329  0.2750  0.3865  0.0048
15074TIP3    H166637   4.773   0.077  16.273 -0.0368 -0.6677  1.1831
15074TIP3    H266638   4.653   0.134  16.346  0.1077  1.2856 -0.0516
15075TIP3   OH266639   0.459   1.399   1.864 -0.1083 -0.1325 -0.3195
15075TIP3    H166640   0.489   1.466   1.803 -0.5646  1.4827  1.1579
15075TIP3    H266641   0.368   1.422   1.883 -0.4839 -1.5562 -0.2646
15076TIP3   OH266642   2.574   3.778   1.961  0.3215 -0.2235  0.2391
15076TIP3    H166643   2.515   3.846   1.993  2.5794  2.0673 -0.1190
15076TIP3    H266644   2.661   3.804   1.992  1.9368 -0.4893 -3.4541
15077TIP3   OH266645   5.237   5.080  11.327  0.0170 -0.0874  0.2493
15077TIP3    H166646   5.144   5.100  11.343  0.5982  0.3295  4.0271
15077TIP3    H266647   5.247   4.989  11.355  0.6371 -0.3253 -0.7242
15078TIP3   OH266648   1.607   5.497  15.018 -0.7389 -0.2118 -0.2562
15078TIP3    H166649   1.583   5.573  15.071 -2.5967 -0.7881 -0.2153
15078TIP3    H266650   1.662   5.534  14.948 -2.9122  1.5053 -1.1939
15079TIP3   OH266651   0.331   2.526   5.128 -0.0414 -0.3971 -0.1783
15079TIP3    H166652   0.405   2.559   5.179 -0.4624  0.2303  0.0501
15079TIP3    H266653   0.324   2.434   5.152 -0.3741 -0.0647  1.0907
15080TIP3   OH266654   6.288   6.459  16.138  0.0676 -0.4265  0.6649
15080TIP3    H166655   6.354   6.394  16.117 -0.7597 -1.0647 -0.0001
15080TIP3    H266656   6.336   6.542  16.138  1.4264 -1.1132  2.8299
15081TIP3   OH266657   1.514   4.777   3.631 -0.3425 -0.1927  0.6275
15081TIP3    H166658   1.438   4.835   3.623 -1.2590 -1.0650  2.4721
15081TIP3    H266659   1.584   4.834   3.663 -0.6921  0.2557  0.6099
15082TIP3   OH266660   5.442   3.882   3.807  0.2432 -0.3549 -0.3233
15082TIP3    H166661   5.434   3.964   3.759 -2.3310 -0.8251 -0.8457
15082TIP3    H266662   5.448   3.908   3.899 -0.6349  0.4264 -0.4788
15083TIP3   OH266663   6.607   2.119  13.894  0.0632  0.1270 -0.7229
15083TIP3    H166664   6.525   2.161  13.918  0.3851 -0.9327  2.8430
15083TIP3    H266665   6.650   2.182  13.835 -1.3250  2.8192  0.9239
15084TIP3   OH266666   5.591   3.610  14.835 -0.0784 -0.3036 -0.2389
15084TIP3    H166667   5.581   3.628  14.742  0.8424 -2.6449 -0.8889
15084TIP3    H266668   5.624   3.520  14.838 -1.3851 -0.8092  2.4031
15085TIP3   OH266669   2.649   5.400   3.303  0.2703  0.4527  0.6058
15085TIP3    H166670   2.673   5.311   3.275 -2.1264 -0.1687  0.2908
15085TIP3    H266671   2.710   5.457   3.257 -0.4144 -0.8471 -2.1050
15086TIP3   OH266672   3.297   3.817   0.626 -0.0654  0.5733 -0.2515
15086TIP3    H166673   3.288   3.912   0.637 -1.6183  0.3337  0.6767
15086TIP3    H266674   3.372   3.808   0.566  0.3523  2.3570 -0.0684
15087TIP3   OH266675   6.492   3.110  16.841 -0.2748  0.5380  0.2865
15087TIP3    H166676   6.477   3.118  16.747  1.8613 -2.6641 -0.4775
15087TIP3    H266677   6.565   3.170  16.859  0.0707  0.3067 -0.3300
15088TIP3   OH266678   1.344   0.799  11.601 -0.6466  0.4980  0.1338
15088TIP3    H166679   1.411   0.762  11.543 -0.2427 -0.5427  1.2329
15088TIP3    H266680   1.323   0.883  11.562  0.4381  0.3167 -0.9003
15089TIP3   OH266681   4.478   4.950   1.387 -0.4439  0.6282  0.4168
15089TIP3    H166682   4.483   4.925   1.295 -1.2485 -0.2895  0.6011
15089TIP3    H266683   4.542   4.894   1.431 -1.6392 -0.5551  0.7099
15090TIP3   OH266684   5.222   1.953   0.543 -0.0270 -0.3064 -0.3173
15090TIP3    H166685   5.287   1.905   0.492 -1.4302 -1.4359 -1.1255
15090TIP3    H266686   5.150   1.891   0.554 -0.3761  0.3889  1.8526
15091TIP3   OH266687   1.342   0.619  10.474 -0.5290  0.1536  0.5245
15091TIP3    H166688   1.379   0.569  10.546 -0.5463 -0.5548  0.0486
15091TIP3    H266689   1.248   0.620  10.490 -0.4131  1.2126  1.2647
15092TIP3   OH266690   0.895   3.106   1.570 -0.0053  0.2988  0.8046
15092TIP3    H166691   0.859   3.135   1.654 -0.8025  2.9076 -0.3155
15092TIP3    H266692   0.855   3.165   1.506  0.7568 -1.4510 -1.3940
15093TIP3   OH266693   1.125   3.374  14.933  0.0712 -0.0019 -0.1199
15093TIP3    H166694   1.036   3.340  14.940  0.0310  0.3593  1.6644
15093TIP3    H266695   1.122   3.458  14.979  0.9642  0.8264 -1.4923
15094TIP3   OH266696   0.271   1.692   6.144 -0.6228 -0.0345 -0.1823
15094TIP3    H166697   0.354   1.715   6.186 -0.7509 -0.4138  0.2901
15094TIP3    H266698   0.260   1.599   6.162 -2.2600  0.4663  1.7927
15095TIP3   OH266699   6.740   3.841  13.441  0.2852 -0.0676 -0.1887
15095TIP3    H166700   6.799   3.795  13.500 -1.1998 -1.6563  0.1709
15095TIP3    H266701   6.732   3.929  13.477  2.2644  0.1505 -0.1840
15096TIP3   OH266702   3.465   5.559  12.473 -0.3577  0.0096 -0.1189
15096TIP3    H166703   3.434   5.643  12.506  0.6939  0.3240  0.0781
15096TIP3    H266704   3.492   5.511  12.551  5.3534  1.9968 -0.4448
15097TIP3   OH266705   1.644   3.576   3.875  0.2076  0.1207  0.1598
15097TIP3    H166706   1.587   3.519   3.824  0.8331  0.5126 -0.9998
15097TIP3    H266707   1.583   3.630   3.926 -0.3910 -1.7499  1.5378
15098TIP3   OH266708   3.383   3.333   4.322  0.2120 -0.1203  0.4207
15098TIP3    H166709   3.351   3.244   4.314  0.7877 -0.4051  1.2356
15098TIP3    H266710   3.323   3.385   4.268  0.6193 -1.1572 -1.0909
15099TIP3   OH266711   2.802   5.653  13.302  0.2030  0.1840 -0.6295
15099TIP3    H166712   2.806   5.558  13.305 -0.5792  0.1749  0.9842
15099TIP3    H266713   2.714   5.672  13.268 -0.0375  0.3057  0.0382
15100TIP3   OH266714   5.301   4.508  10.683  0.1907  0.1141  0.2303
15100TIP3    H166715   5.217   4.471  10.710  1.2224 -1.3602  1.5861
15100TIP3    H266716   5.277   4.586  10.632 -1.9791  0.2887  1.3728
15101TIP3   OH266717   1.052   5.687   5.199  0.4374  1.0326 -0.1156
15101TIP3    H166718   0.961   5.655   5.200  0.6663  0.3372 -0.6559
15101TIP3    H266719   1.094   5.639   5.271  1.1528 -1.0821 -1.8479
15102TIP3   OH266720   2.343   4.710  13.674 -0.0343  0.4001  0.0177
15102TIP3    H166721   2.326   4.804  13.685  0.6899  0.7709 -1.7164
15102TIP3    H266722   2.265   4.667  13.710 -0.5328  1.6787  0.5119
15103TIP3   OH266723   0.783   3.978  15.867  0.6116 -0.2797  0.3309
15103TIP3    H166724   0.774   3.893  15.911  1.8307  0.6530  2.5171
15103TIP3    H266725   0.851   3.964  15.802  2.1843 -0.5753  1.9597
15104TIP3   OH266726   5.089   3.222   2.786  0.7271  0.5657  0.0068
15104TIP3    H166727   5.003   3.261   2.800 -0.6177 -2.4794  0.9345
15104TIP3    H266728   5.121   3.202   2.874 -0.2387 -3.4010 -0.3809
15105TIP3   OH266729   0.642   0.112   5.665  0.1823 -0.3555  0.4348
15105TIP3    H166730   0.634   0.199   5.703  0.1659  0.4039 -1.2055
15105TIP3    H266731   0.685   0.127   5.581  0.4092 -1.9708  0.2315
15106TIP3   OH266732   1.525   2.501  14.469  0.2454  0.1621 -0.2630
15106TIP3    H166733   1.556   2.421  14.427  0.2488  0.6484 -1.2169
15106TIP3    H266734   1.560   2.496  14.559  0.8979 -0.5284 -0.5409
15107TIP3   OH266735   0.214   6.047  16.372  0.6888 -0.4357 -0.3845
15107TIP3    H166736   0.250   6.032  16.459 -0.3522 -0.8708 -0.0112
15107TIP3    H266737   0.235   6.139  16.353  2.1926 -0.7427 -0.3076
15108TIP3   OH266738   2.343   1.884  16.058 -0.3610  0.5824  0.6710
15108TIP3    H166739   2.394   1.827  16.000 -1.2006  0.1917  0.2893
15108TIP3    H266740   2.336   1.836  16.140  1.9106  1.6799  1.5865
15109TIP3   OH266741   3.339   0.942  14.930  0.3042 -0.2680  0.1610
15109TIP3    H166742   3.340   0.957  14.836  0.4748 -0.1977  0.1747
15109TIP3    H266743   3.403   1.004  14.965  0.9534 -0.9579  0.2255
15110TIP3   OH266744   5.167   3.406  15.863 -0.0935 -0.1873  0.4179
15110TIP3    H166745   5.216   3.350  15.802 -0.0637 -0.5068  0.7292
15110TIP3    H266746   5.078   3.407  15.827  0.1067  0.2875 -0.0770
15111TIP3   OH266747   3.676   2.754  11.024  0.1723  0.3900  0.1677
15111TIP3    H166748   3.729   2.834  11.031 -0.0874  0.8268 -2.1210
15111TIP3    H266749   3.602   2.779  10.969 -0.3881 -1.2114  0.1460
15112TIP3   OH266750   2.514   3.114   4.448  0.5909 -0.0069 -0.2211
15112TIP3    H166751   2.600   3.072   4.441  0.2680 -0.7353  0.1325
15112TIP3    H266752   2.502   3.156   4.363  1.6908  0.8824  0.0307
15113TIP3   OH266753   6.367   2.448  16.283 -0.0116 -0.1724 -0.3997
15113TIP3    H166754   6.440   2.473  16.340 -1.3145  1.6826  0.5547
15113TIP3    H266755   6.400   2.373  16.233  1.5220 -1.3166  2.1178
15114TIP3   OH266756   1.683   4.547   0.446 -0.1113 -0.0360 -0.4049
15114TIP3    H166757   1.701   4.503   0.363 -2.6064 -1.8929 -0.0990
15114TIP3    H266758   1.767   4.549   0.491  0.7125 -1.7740 -1.7451
15115TIP3   OH266759   2.432   2.504   1.152  0.1289  0.3035 -0.1773
15115TIP3    H166760   2.480   2.442   1.207  0.7180  0.2432 -0.7544
15115TIP3    H266761   2.355   2.455   1.122 -0.0515  0.2504  0.3630
15116TIP3   OH266762   5.046   3.897   4.401 -0.5820 -1.0337  0.0486
15116TIP3    H166763   5.096   3.845   4.338 -2.8901 -1.7534 -1.3270
15116TIP3    H266764   4.990   3.953   4.347  1.5364  2.8472  1.4539
15117TIP3   OH266765   6.562   0.266  14.927 -0.0422  0.0904 -0.3899
15117TIP3    H166766   6.634   0.203  14.923 -0.1995 -0.1840  0.7761
15117TIP3    H266767   6.587   0.327  14.997 -0.4903  0.5603 -0.6376
15118TIP3   OH266768   5.690   5.399   1.502  0.1546  0.2650 -0.1802
15118TIP3    H166769   5.666   5.427   1.413  1.2340  2.0903  0.0493
15118TIP3    H266770   5.771   5.349   1.490 -1.1839 -1.9698 -0.4687
15119TIP3   OH266771   3.256   4.139   0.608 -0.0247  0.1719 -0.1516
15119TIP3    H166772   3.253   4.122   0.514 -0.8674  2.3483 -0.5916
15119TIP3    H266773   3.346   4.121   0.633  0.9575  2.0582 -1.9645
15120TIP3   OH266774   1.337   6.445   0.937  0.1567 -0.5450  0.3274
15120TIP3    H166775   1.281   6.386   0.887  1.7029 -2.1030  0.3489
15120TIP3    H266776   1.379   6.500   0.872 -0.0222 -0.5909  0.1716
15121TIP3   OH266777   4.388   4.256   3.502  0.2811 -0.0666  0.3307
15121TIP3    H166778   4.398   4.344   3.466 -1.4717 -0.5500 -1.5785
15121TIP3    H266779   4.364   4.270   3.593 -3.8416  1.7570 -0.7826
15122TIP3   OH266780   5.043   2.495  17.340 -0.5930  0.0219 -0.3317
15122TIP3    H166781   4.989   2.417  17.333  0.2880 -0.4658 -2.3131
15122TIP3    H266782   5.029   2.542  17.257 -2.1201  2.7150  1.2855
15123TIP3   OH266783   0.837   3.185   1.811 -0.1586 -0.1774 -0.0361
15123TIP3    H166784   0.913   3.197   1.867  1.4240 -0.6083 -1.9744
15123TIP3    H266785   0.762   3.210   1.866  1.3500  0.2508  1.9343
15124TIP3   OH266786   1.543   4.007   2.178 -0.0443  0.4090  0.0283
15124TIP3    H166787   1.472   3.943   2.166  1.5934 -1.4853 -0.1053
15124TIP3    H266788   1.564   4.036   2.090 -0.1207  0.3627 -0.0057
15125TIP3   OH266789   6.728   4.681  16.158  0.1990 -0.3415  0.3781
15125TIP3    H166790   6.764   4.760  16.200 -0.5022  0.4125 -0.4122
15125TIP3    H266791   6.642   4.670  16.199 -0.6852  0.6567 -1.1080
15126TIP3   OH266792   3.417   4.571  14.517 -0.2029  0.8248  0.2160
15126TIP3    H166793   3.365   4.637  14.471 -1.7189 -1.1611 -1.1237
15126TIP3    H266794   3.352   4.512  14.554  1.0810 -0.8618 -0.1052
15127TIP3   OH266795   4.150   1.829   5.505 -0.2303 -0.2313  0.0784
15127TIP3    H166796   4.126   1.749   5.551  2.0835 -0.2635  1.4107
15127TIP3    H266797   4.177   1.889   5.575  2.0247  0.2287 -1.0973
15128TIP3   OH266798   3.536   4.580  13.019 -0.2742  0.0549  0.3217
15128TIP3    H166799   3.515   4.550  13.107  1.5290 -2.0007  0.1340
15128TIP3    H266800   3.575   4.666  13.032  0.4587 -0.4407  1.6282
15129TIP3   OH266801   4.961   3.387  12.946  0.2409  0.1608  0.1439
15129TIP3    H166802   4.896   3.454  12.924  0.1005  0.2151  0.6989
15129TIP3    H266803   5.024   3.390  12.875  0.3027  0.9753  0.2243
15130TIP3   OH266804   5.582   6.180   5.580  0.3790 -0.6910 -0.2386
15130TIP3    H166805   5.512   6.241   5.599  1.3892  0.2646  0.5624
15130TIP3    H266806   5.605   6.197   5.488 -0.0224 -0.5766 -0.3169
15131TIP3   OH266807   5.919   2.537  13.310 -0.2506  0.1633  0.2507
15131TIP3    H166808   5.983   2.481  13.354  0.9936  1.4239  0.1098
15131TIP3    H266809   5.944   2.536  13.218 -1.7642 -1.0223 -0.1956
15132TIP3   OH266810   1.968   2.276  16.753  0.0793  0.2256 -0.0842
15132TIP3    H166811   1.933   2.293  16.840  0.9115 -0.5930  0.4308
15132TIP3    H266812   1.891   2.267  16.697 -0.7337 -3.2478  1.3228
15133TIP3   OH266813   0.248   1.643  14.149 -0.1306 -0.0698 -0.4990
15133TIP3    H166814   0.159   1.679  14.140  0.0467  0.7425  0.8043
15133TIP3    H266815   0.233   1.553  14.178 -0.5388 -0.4521 -1.8151
15134TIP3   OH266816   2.030   1.961  13.702 -0.3423 -0.0247  0.1964
15134TIP3    H166817   1.973   1.940  13.776  0.1101 -0.0982  0.5277
15134TIP3    H266818   1.980   2.023  13.650 -0.8726 -0.3656  0.2939
15135TIP3   OH266819   1.089   4.726   2.569 -0.0823 -0.4965  0.1918
15135TIP3    H166820   1.093   4.687   2.482  0.6064 -1.6049  0.6904
15135TIP3    H266821   1.167   4.692   2.614  0.6260  1.5702  0.6363
15136TIP3   OH266822   1.429   1.094   3.449  0.1002 -0.4083  0.0635
15136TIP3    H166823   1.411   1.129   3.362  1.4193 -0.2952 -0.1895
15136TIP3    H266824   1.519   1.061   3.444  0.0568 -0.7829  1.2627
15137TIP3   OH266825   0.088   0.414   0.502 -0.0473 -0.0499  0.3431
15137TIP3    H166826   0.077   0.347   0.434  0.5906 -0.7295  0.8901
15137TIP3    H266827   0.160   0.468   0.470 -1.7805  1.5831 -1.0174
15138TIP3   OH266828   2.552   4.487   5.724 -0.4548  0.3937 -0.3924
15138TIP3    H166829   2.562   4.396   5.749  0.1636  0.2262 -1.2080
15138TIP3    H266830   2.591   4.493   5.636  0.0877  1.5661 -0.1020
15139TIP3   OH266831   5.311   4.136  11.802  0.0414  0.0382 -0.3129
15139TIP3    H166832   5.224   4.110  11.771  0.1099 -0.4402 -0.0965
15139TIP3    H266833   5.348   4.186  11.729 -0.3795  0.1754 -0.4371
15140TIP3   OH266834   2.197   2.710  13.748  0.0277  0.5274  0.4790
15140TIP3    H166835   2.215   2.739  13.838  0.0346 -0.2186  0.7256
15140TIP3    H266836   2.275   2.737  13.699 -0.2791  1.5718  0.5374
15141TIP3   OH266837   3.045   4.158   4.396  0.0056 -0.1624 -0.3130
15141TIP3    H166838   2.958   4.191   4.416 -1.3705 -2.2721 -2.3573
15141TIP3    H266839   3.031   4.070   4.361  2.9574 -0.5565 -0.8280
15142TIP3   OH266840   2.377   3.512   4.135  0.1941  0.3219 -0.2666
15142TIP3    H166841   2.464   3.510   4.096 -0.0593  0.0256 -0.8337
15142TIP3    H266842   2.318   3.483   4.065 -0.5319  1.8728 -0.3421
15143TIP3   OH266843   2.258   1.340  14.836  0.3921 -0.0131 -0.2950
15143TIP3    H166844   2.183   1.333  14.777  0.6158 -1.3776 -0.4661
15143TIP3    H266845   2.221   1.335  14.924  0.1488  0.9485 -0.3382
15144TIP3   OH266846   5.096   1.371   3.827  0.8705 -0.3229  0.0416
15144TIP3    H166847   5.077   1.442   3.766  0.4568 -0.1740  0.3358
15144TIP3    H266848   5.054   1.398   3.909 -0.5731 -1.5777 -0.2460
15145TIP3   OH266849   1.900   5.996  11.140 -0.0758 -0.4825 -0.6259
15145TIP3    H166850   1.899   6.047  11.221  1.6769  0.7462 -1.3241
15145TIP3    H266851   1.992   5.973  11.128  0.0327  1.0101 -3.2381
15146TIP3   OH266852   5.883   5.262   3.161 -0.0196 -0.0814 -0.4551
15146TIP3    H166853   5.888   5.308   3.077  1.6044  2.4224  0.8708
15146TIP3    H266854   5.973   5.233   3.178 -0.0909  0.4183  0.8793
15147TIP3   OH266855   5.763   1.345  16.691 -0.2830 -0.2245  0.2128
15147TIP3    H166856   5.718   1.285  16.631  1.5363 -0.4192 -1.0729
15147TIP3    H266857   5.843   1.298  16.715  0.7064  1.2679 -0.0274
15148TIP3   OH266858   3.761   4.811  14.923 -0.6792 -0.2786 -0.7480
15148TIP3    H166859   3.758   4.739  14.859  0.7045 -0.7311 -0.3337
15148TIP3    H266860   3.769   4.890  14.869  2.3354 -0.7678 -1.2042
15149TIP3   OH266861   1.395   3.404   3.000  0.0013 -0.0646  0.4736
15149TIP3    H166862   1.378   3.487   3.043  0.3905  0.4975 -0.4285
15149TIP3    H266863   1.479   3.417   2.955 -0.9053 -0.2186 -1.3798
15150TIP3   OH266864   3.024   6.079   5.766  0.1101 -0.3438  0.0393
15150TIP3    H166865   3.045   6.119   5.851  1.4343  1.2924 -0.9861
15150TIP3    H266866   3.000   6.152   5.710 -0.5640 -1.3706 -1.0667
15151TIP3   OH266867   3.012   1.843  11.539  0.5105  0.0582  0.4090
15151TIP3    H166868   3.046   1.802  11.460 -0.9600 -1.3540  0.4334
15151TIP3    H266869   3.013   1.937  11.521  2.2161 -0.0888 -0.4103
15152TIP3   OH266870   0.518   4.927  10.952  0.2234 -0.0384  0.4930
15152TIP3    H166871   0.424   4.941  10.953  0.3767  1.0837  0.9462
15152TIP3    H266872   0.555   5.011  10.977  1.2809 -1.1594  3.0193
15153TIP3   OH266873   2.337   3.313  15.304  0.2661 -0.0268 -0.2223
15153TIP3    H166874   2.264   3.251  15.298 -0.6081  0.9676  0.0449
15153TIP3    H266875   2.372   3.317  15.215  1.7510 -2.5357  0.1336
15154TIP3   OH266876   1.328   2.662  13.674 -0.6041 -0.2208 -0.0810
15154TIP3    H166877   1.317   2.652  13.768  1.9102  0.0881  0.3191
15154TIP3    H266878   1.324   2.573  13.639 -0.5199 -0.4303  0.4450
15155TIP3   OH266879   4.039   4.219   1.874  0.1443 -0.3040 -0.1935
15155TIP3    H166880   4.116   4.163   1.866  0.9863  0.6672  0.9264
15155TIP3    H266881   4.022   4.224   1.968  0.0507  1.2604 -0.2664
15156TIP3   OH266882   2.970   1.505   0.138  0.1686 -0.0221  0.1298
15156TIP3    H166883   2.881   1.520   0.108  0.1369 -0.0609  0.2033
15156TIP3    H266884   3.008   1.592   0.146  0.2126 -0.0183 -0.1267
15157TIP3   OH266885   5.663   0.165  13.861 -0.0567  0.3323  0.4811
15157TIP3    H166886   5.654   0.124  13.946 -0.0271  0.1755  0.4086
15157TIP3    H266887   5.715   0.244  13.878  0.1127  0.2015  0.5781
15158TIP3   OH266888   2.001   2.137  13.424  0.6484  0.1496  0.1148
15158TIP3    H166889   1.919   2.187  13.416  0.8378  0.3051 -1.0041
15158TIP3    H266890   2.068   2.195  13.387  1.0967 -0.3934  0.0679
15159TIP3   OH266891   1.986   4.200  15.635  0.0004  0.2210  0.5522
15159TIP3    H166892   1.996   4.172  15.726  0.2251 -0.9809  0.1711
15159TIP3    H266893   1.969   4.119  15.587 -0.0113  0.8329 -0.4931
15160TIP3   OH266894   6.497   6.175  15.827 -0.6947  0.0475 -0.6134
15160TIP3    H166895   6.432   6.171  15.897  0.6256 -0.3078  0.6433
15160TIP3    H266896   6.492   6.089  15.784  0.8325 -1.1084  1.3226
15161TIP3   OH266897   0.091   5.460   1.205 -0.7777 -0.3908 -0.5868
15161TIP3    H166898   0.105   5.382   1.258 -1.1534 -0.1166 -0.0800
15161TIP3    H266899   0.179   5.494   1.188 -0.5769 -1.2533 -1.3237
15162TIP3   OH266900   1.141   6.578  12.421  0.3293 -0.5376 -0.1541
15162TIP3    H166901   1.146   6.486  12.397 -0.6223 -0.6757  0.1286
15162TIP3    H266902   1.085   6.617  12.353  0.1431 -0.3214  0.1190
15163TIP3   OH266903   4.183   4.311   2.692 -0.0939 -0.4904 -0.2838
15163TIP3    H166904   4.090   4.301   2.713 -0.5095  1.9415 -0.7034
15163TIP3    H266905   4.213   4.222   2.674 -2.3822 -1.3165 -0.3626
15164TIP3   OH266906   0.589   3.243   2.692  0.3695 -0.0064  0.1264
15164TIP3    H166907   0.563   3.218   2.604  0.4261  2.5722 -0.7034
15164TIP3    H266908   0.684   3.254   2.687  0.1686  2.1526 -0.1439
15165TIP3   OH266909   5.065   0.223  13.760  0.0189 -0.2825 -0.7993
15165TIP3    H166910   4.978   0.196  13.729 -0.4666  0.4645 -0.1117
15165TIP3    H266911   5.060   0.318  13.765 -0.4044 -0.3462  2.7724
15166TIP3   OH266912   6.088   5.586  16.913  0.2291  0.2265  0.3745
15166TIP3    H166913   6.025   5.519  16.886 -1.0978  2.5543 -3.0800
15166TIP3    H266914   6.173   5.552  16.882  0.0364 -0.9954  1.1148
15167TIP3   OH266915   0.311   1.380   4.758 -0.5488 -0.4332  0.4464
15167TIP3    H166916   0.241   1.382   4.823  0.2144  1.3386  1.2884
15167TIP3    H266917   0.265   1.366   4.675 -1.7200 -1.0363  1.1630
15168TIP3   OH266918   6.699   6.235  15.005 -0.0600 -0.2288  0.5956
15168TIP3    H166919   6.638   6.286  15.059  1.8599  1.5045  1.2429
15168TIP3    H266920   6.661   6.147  15.003 -2.0337  0.5250  1.7971
15169TIP3   OH266921   2.306   3.874  11.183 -0.1703  0.2316 -0.3681
15169TIP3    H166922   2.313   3.878  11.279 -0.5171  1.2843 -0.3837
15169TIP3    H266923   2.382   3.922  11.151 -0.7462  1.0048 -0.6068
15170TIP3   OH266924   5.263   2.789  16.257  0.2631 -0.9600  0.6672
15170TIP3    H166925   5.332   2.852  16.236 -0.0773 -0.4204  1.1447
15170TIP3    H266926   5.309   2.718  16.301  1.0372 -2.2236 -1.9609
15171TIP3   OH266927   4.111   6.647  15.159 -0.0959  0.6784  0.1367
15171TIP3    H166928   4.121   6.667  15.066  0.1189  0.9783  0.2230
15171TIP3    H266929   4.100   6.551  15.161 -2.1203  0.8570 -0.3662
15172TIP3   OH266930   2.846   6.337   5.246  0.4450 -0.4503 -0.1163
15172TIP3    H166931   2.756   6.313   5.270  1.0181  0.5775  3.7699
15172TIP3    H266932   2.853   6.430   5.266  2.5107 -0.6264  0.2569
15173TIP3   OH266933   3.616   1.466   6.084  0.9007 -0.7449  0.2069
15173TIP3    H166934   3.623   1.560   6.068  0.8983 -0.4696  1.6865
15173TIP3    H266935   3.610   1.427   5.997  1.8170  0.5488 -0.4637
15174TIP3   OH266936   4.080   5.261  10.472  0.1745 -0.0806  0.0571
15174TIP3    H166937   3.992   5.277  10.437 -0.1591  1.0475  1.3002
15174TIP3    H266938   4.119   5.348  10.478  0.6259 -0.3500  1.3895
15175TIP3   OH266939   1.808   4.415  12.210 -0.2912  0.3840 -0.2318
15175TIP3    H166940   1.897   4.390  12.184  1.1315  1.5736  2.9721
15175TIP3    H266941   1.813   4.509  12.223 -1.3985  0.1897  2.0108
15176TIP3   OH266942   1.146   5.004   2.394  0.0056  0.1345 -0.2876
15176TIP3    H166943   1.230   4.958   2.401 -0.0322  0.1336  0.2491
15176TIP3    H266944   1.089   4.958   2.455 -0.4802 -0.0600 -0.8836
15177TIP3   OH266945   4.190   3.324   4.247 -0.0095  0.4847 -0.2713
15177TIP3    H166946   4.151   3.236   4.249 -1.6338  1.1731 -0.2719
15177TIP3    H266947   4.285   3.308   4.240 -0.2630 -1.2571 -0.1725
15178TIP3   OH266948   5.169   5.556  16.319 -0.0193 -0.6394 -0.3214
15178TIP3    H166949   5.111   5.607  16.261  0.3400  0.0727 -0.0576
15178TIP3    H266950   5.257   5.589  16.301  0.0560 -0.1033  0.9335
15179TIP3   OH266951   5.068   5.115   1.960  0.1932  0.5947  0.3321
15179TIP3    H166952   4.974   5.129   1.949 -0.1424 -0.2684  1.7783
15179TIP3    H266953   5.090   5.046   1.897  0.0676  1.4319 -0.6505
15180TIP3   OH266954   1.192   3.803  15.533  0.6025 -0.2237 -0.4429
15180TIP3    H166955   1.159   3.891  15.546  0.9958 -0.2243  0.7443
15180TIP3    H266956   1.287   3.812  15.537  0.6447 -0.6976 -0.2876
15181TIP3   OH266957   5.079   2.148   6.533  0.1611  0.2186  0.6647
15181TIP3    H166958   5.034   2.225   6.568 -0.3415 -0.0032  0.5175
15181TIP3    H266959   5.028   2.074   6.565  1.4056 -0.1414  1.9459
15182TIP3   OH266960   4.691   5.749   4.112  0.5440  0.5505 -0.2212
15182TIP3    H166961   4.597   5.757   4.126  0.6534  0.0707  0.9212
15182TIP3    H266962   4.702   5.667   4.065  0.4549  0.1133  0.5103
15183TIP3   OH266963   4.240   3.940   1.360 -0.6197 -0.0855 -0.0274
15183TIP3    H166964   4.169   3.885   1.326 -2.0599  1.3914  0.4208
15183TIP3    H266965   4.221   3.948   1.454  1.0641 -0.9209  0.4198
15184TIP3   OH266966   6.141   4.016   2.433  0.1226  1.0719 -0.4080
15184TIP3    H166967   6.160   4.093   2.379  1.4682  0.3641 -0.9957
15184TIP3    H266968   6.163   4.043   2.522 -0.9466  1.8546 -0.3584
15185TIP3   OH266969   1.424   2.154  15.438  0.4595 -0.5254 -0.1382
15185TIP3    H166970   1.447   2.241  15.472  0.2816  0.9936 -3.5310
15185TIP3    H266971   1.331   2.145  15.456  0.5049 -0.0586  0.3408
15186TIP3   OH266972   3.753   0.751  11.820  0.3454  0.0602  0.3030
15186TIP3    H166973   3.766   0.838  11.856  0.0742 -0.0432  0.6565
15186TIP3    H266974   3.841   0.714  11.813  0.4220  0.1908  0.5758
15187TIP3   OH266975   1.326   0.723  16.717  0.2498  0.4003  0.3820
15187TIP3    H166976   1.379   0.801  16.701  0.8363 -0.3359 -1.5422
15187TIP3    H266977   1.242   0.741  16.676  0.4635 -0.0491 -0.2684
15188TIP3   OH266978   1.964   4.341  11.586  0.1849 -0.0493 -0.1086
15188TIP3    H166979   1.993   4.286  11.659  1.1582 -0.8418 -1.0774
15188TIP3    H266980   2.024   4.321  11.515 -0.5093  1.0109 -1.0234
15189TIP3   OH266981   3.007   3.673  11.244 -0.3942 -0.6493 -0.1778
15189TIP3    H166982   3.078   3.613  11.268  1.0616  0.1906 -2.1334
15189TIP3    H266983   2.940   3.617  11.205 -0.7669 -1.4264  1.4787
15190TIP3   OH266984   6.490   0.778  14.277 -0.8205  0.1643 -0.4700
15190TIP3    H166985   6.519   0.792  14.187  0.1861  0.0563 -0.1732
15190TIP3    H266986   6.421   0.843  14.290  0.2752  1.4304 -0.7519
15191TIP3   OH266987   3.839   0.056   5.867  0.3555  0.2647  0.5854
15191TIP3    H166988   3.823  -0.020   5.923 -0.6854  0.9063  1.1865
15191TIP3    H266989   3.777   0.122   5.898 -1.7548 -0.0021 -2.6040
15192TIP3   OH266990   2.544   3.682  14.860  0.5153  0.3656 -0.1271
15192TIP3    H166991   2.489   3.623  14.911 -1.5197  2.0585 -0.1979
15192TIP3    H266992   2.609   3.715  14.923  1.2921 -1.3975  0.0498
15193TIP3   OH266993   0.577   1.730  13.692 -0.5252 -0.2886  0.3088
15193TIP3    H166994   0.648   1.790  13.671 -1.9308  1.5209  0.4507
15193TIP3    H266995   0.570   1.733  13.788 -1.3437  0.2350  0.2408
15194TIP3   OH266996   4.007   5.167   4.991  0.0991 -0.5264 -0.2006
15194TIP3    H166997   4.025   5.253   4.955  0.7617 -1.2479 -1.6548
15194TIP3    H266998   3.916   5.149   4.967  0.1530 -0.4891 -0.4287
15195TIP3   OH266999   2.796   4.386  12.965 -0.0520  0.2172  0.0994
15195TIP3    H167000   2.827   4.298  12.991 -3.2582 -1.2765 -0.6986
15195TIP3    H267001   2.839   4.402  12.881  1.9122  0.2578  1.0404
15196TIP3   OH267002   6.488   4.016   1.916  0.0029 -0.6102  0.2924
15196TIP3    H167003   6.500   4.111   1.909  2.4218 -0.9718 -1.5591
15196TIP3    H267004   6.396   4.002   1.892 -0.3740  1.2273  0.4768
15197TIP3   OH267005   0.595   6.718   1.983  0.6392  0.3604 -0.1675
15197TIP3    H167006   0.532   6.681   1.921  0.0507  0.2285  0.4954
15197TIP3    H267007   0.665   6.754   1.928  0.3383 -0.1310 -0.8882
15198TIP3   OH267008   3.049   4.163  15.769 -0.1706  0.2901  0.4789
15198TIP3    H167009   2.972   4.153  15.712  0.1008  0.4169  0.0794
15198TIP3    H267010   3.060   4.258  15.776  1.0818  0.3135 -1.0576
15199TIP3   OH267011   6.229   3.106  16.121 -0.2851 -0.0417 -0.0172
15199TIP3    H167012   6.314   3.063  16.107  0.0631  0.1134  1.4317
15199TIP3    H267013   6.219   3.108  16.216 -2.0597 -0.2919 -0.1727
15200TIP3   OH267014   5.283   3.219  10.821 -0.6111  0.1355  0.2651
15200TIP3    H167015   5.192   3.202  10.848 -0.6870 -0.6738 -0.4452
15200TIP3    H267016   5.274   3.275  10.744 -0.3794  3.0450  2.1919
15201TIP3   OH267017   6.207   2.033  14.318  0.3480 -0.0645 -0.5475
15201TIP3    H167018   6.133   2.093  14.332  1.2944  1.1802 -0.6491
15201TIP3    H267019   6.228   2.043  14.225  1.5825  0.7555 -0.2062
15202TIP3   OH267020   3.364   0.444   1.036 -0.1334 -0.3142 -0.3427
15202TIP3    H167021   3.301   0.464   0.966 -1.9827 -1.2955  0.9600
15202TIP3    H267022   3.366   0.522   1.090 -0.5666 -0.4182 -0.1686
15203TIP3   OH267023   5.261   2.058  13.795 -0.0812  0.6001  0.1370
15203TIP3    H167024   5.242   1.967  13.819  0.1414  0.9675  1.8371
15203TIP3    H267025   5.317   2.050  13.718  0.0086 -0.7237  0.3007
15204TIP3   OH267026   3.027   2.248  16.936 -0.4383 -0.2462 -0.4185
15204TIP3    H167027   3.000   2.339  16.944  0.9452  0.1572  0.0341
15204TIP3    H267028   3.122   2.252  16.927 -0.3283 -1.6561 -0.1891
15205TIP3   OH267029   2.287   5.688   1.800 -0.1859  0.1804 -0.3026
15205TIP3    H167030   2.348   5.724   1.736  0.8815 -0.5318  0.2751
15205TIP3    H267031   2.302   5.594   1.797 -1.8844 -0.1007 -0.7473
15206TIP3   OH267032   5.883   2.578   5.445  0.0071  0.2140 -0.3402
15206TIP3    H167033   5.924   2.497   5.415  0.0602  0.5179 -1.1239
15206TIP3    H267034   5.796   2.552   5.474 -0.2659 -0.0122 -1.3335
15207TIP3   OH267035   1.606   3.897   5.051  0.6402 -0.4780 -0.1388
15207TIP3    H167036   1.671   3.829   5.035  1.1963  0.1346 -0.5031
15207TIP3    H267037   1.633   3.937   5.134  1.0227  0.1105 -0.5431
15208TIP3   OH267038   5.115   0.361   2.870  0.4196 -0.4122 -0.1457
15208TIP3    H167039   5.179   0.417   2.913  1.3176 -0.7588 -0.9947
15208TIP3    H267040   5.167   0.295   2.824 -0.6095 -2.1907  1.1069
15209TIP3   OH267041   5.365   2.882   5.773 -0.2199  0.4140  0.2965
15209TIP3    H167042   5.373   2.800   5.821 -0.8441  0.5018  0.5584
15209TIP3    H267043   5.418   2.944   5.822  1.3398 -0.1141 -0.6116
15210TIP3   OH267044   3.589   2.195  16.336  0.1895 -0.5642 -0.3960
15210TIP3    H167045   3.661   2.206  16.399  0.0664 -0.3822 -0.2879
15210TIP3    H267046   3.523   2.145  16.383 -1.1278  1.9536  0.6115
15211TIP3   OH267047   1.735   4.333   6.532 -0.1156 -0.4987  0.2902
15211TIP3    H167048   1.649   4.317   6.495 -1.0053 -1.4659  2.5530
15211TIP3    H267049   1.744   4.428   6.533 -1.5447 -0.3430  0.7913
15212TIP3   OH267050   3.693   3.664  10.964  0.0157 -0.5969 -0.3155
15212TIP3    H167051   3.660   3.632  11.048 -1.1326 -0.5997 -0.7499
15212TIP3    H267052   3.709   3.757  10.978  0.2625 -0.6907  0.0341
15213TIP3   OH267053   3.691   1.617  16.446  0.1494  0.2134 -0.6845
15213TIP3    H167054   3.714   1.708  16.428  1.0306 -0.1900 -1.6927
15213TIP3    H267055   3.627   1.594  16.379 -1.6550  0.6684  0.7970
15214TIP3   OH267056   3.226   1.115   1.459  0.0662  1.0813 -0.5007
15214TIP3    H167057   3.284   1.039   1.452  0.6243  1.5643 -1.2610
15214TIP3    H267058   3.252   1.172   1.386 -2.2139  0.7122 -1.7077
15215TIP3   OH267059   1.257   4.948   1.503  0.0029  0.0788 -0.2680
15215TIP3    H167060   1.251   5.043   1.509  1.3586  0.4824 -3.2021
15215TIP3    H267061   1.339   4.926   1.548 -1.1910  0.0076  1.9777
15216TIP3   OH267062   2.571   3.702  12.840 -0.4753  0.2236 -0.0582
15216TIP3    H167063   2.627   3.697  12.763  0.0970  0.2394  0.3506
15216TIP3    H267064   2.629   3.736  12.909 -1.0824  0.5975  0.2753
15217TIP3   OH267065   4.193   6.429   2.808 -0.2925 -0.8667 -0.0467
15217TIP3    H167066   4.252   6.504   2.799  0.8880 -1.8641 -0.9996
15217TIP3    H267067   4.140   6.449   2.885  1.5113 -0.0693  1.0459
15218TIP3   OH267068   6.218   1.047  14.093 -0.1515  0.0036  0.1468
15218TIP3    H167069   6.182   1.077  14.010  0.3183 -1.1979 -0.5328
15218TIP3    H267070   6.268   1.121  14.126 -0.4087  0.5263 -0.6109
15219TIP3   OH267071   2.926   5.099   2.545 -0.3821 -0.4117  0.1678
15219TIP3    H167072   2.957   5.009   2.556  0.2042 -0.3274 -0.6797
15219TIP3    H267073   2.832   5.094   2.561 -0.2468 -1.0389  0.8449
15220TIP3   OH267074   6.357   3.996   0.815 -0.2596  0.3318 -0.2528
15220TIP3    H167075   6.409   4.070   0.847  0.5713 -0.2592 -0.2002
15220TIP3    H267076   6.377   3.991   0.722 -1.4272  1.0437 -0.5684
15221TIP3   OH267077   0.400   0.637   4.610  0.0673  0.7196  0.0418
15221TIP3    H167078   0.336   0.702   4.582  0.9268  1.5111 -0.0827
15221TIP3    H267079   0.480   0.686   4.626  1.3305 -0.5409 -1.9764
15222TIP3   OH267080   6.029   5.776  11.008  0.2327  0.1798 -0.2330
15222TIP3    H167081   6.026   5.748  10.916  1.4995 -0.1552 -0.1864
15222TIP3    H267082   5.937   5.785  11.033 -0.1295  0.4758 -1.5933
15223TIP3   OH267083   1.663   2.837  11.882 -0.1077 -0.2375 -0.1117
15223TIP3    H167084   1.687   2.822  11.790  0.3985  0.9385 -0.1866
15223TIP3    H267085   1.743   2.818  11.931  0.0411  0.4773 -0.0585
15224TIP3   OH267086   1.993   2.352   0.933 -0.0279  0.1782  0.6141
15224TIP3    H167087   1.953   2.384   0.852 -0.3862 -2.5765 -0.4250
15224TIP3    H267088   1.927   2.294   0.971  1.1981 -0.8043  1.3450
15225TIP3   OH267089   6.278   0.542  14.417  0.4133  0.4825  0.2175
15225TIP3    H167090   6.248   0.602  14.486  0.2408 -1.3051  1.7954
15225TIP3    H267091   6.198   0.519  14.370  0.1479 -0.0410  0.9032
15226TIP3   OH267092   3.905   1.792  12.356 -0.6014  0.3247  0.3650
15226TIP3    H167093   3.930   1.704  12.328  0.0754 -0.1495  2.3161
15226TIP3    H267094   3.815   1.782  12.387 -0.4346  0.2410  0.8351
15227TIP3   OH267095   0.895   5.570  12.636 -0.0200 -0.1047  0.2803
15227TIP3    H167096   0.956   5.544  12.704 -1.0140 -0.0039  1.2310
15227TIP3    H267097   0.945   5.631  12.581  0.6107  0.2742  1.2550
15228TIP3   OH267098   1.005   3.976  16.735  0.4392 -0.1354  0.1968
15228TIP3    H167099   0.987   4.039  16.805 -0.1793 -1.0362  0.8826
15228TIP3    H267100   0.991   4.025  16.654  1.4701  1.0229  0.6719
15229TIP3   OH267101   4.884   0.717   1.327 -0.1066 -0.8812  0.9005
15229TIP3    H167102   4.810   0.773   1.303  0.0873 -0.8695  0.3044
15229TIP3    H267103   4.946   0.728   1.255  0.1585 -1.4616  1.0361
15230TIP3   OH267104   0.276   4.103  17.248  0.5828 -0.0496 -0.0978
15230TIP3    H167105   0.255   4.088  17.156 -2.5417 -0.4065  0.5574
15230TIP3    H267106   0.318   4.022  17.277 -0.0096 -0.6172 -0.7945
15231TIP3   OH267107   2.311   6.043   3.106 -0.5957 -0.7045 -0.2233
15231TIP3    H167108   2.247   5.972   3.094 -1.4522 -0.1385  0.8686
15231TIP3    H267109   2.284   6.111   3.045 -0.3449 -0.9171 -0.5776
15232TIP3   OH267110   2.172   5.900  11.485  0.3950 -0.1310  0.2373
15232TIP3    H167111   2.209   5.818  11.517  1.1470 -0.8212 -2.1977
15232TIP3    H267112   2.221   5.968  11.531  1.8507 -1.0457  0.1004
15233TIP3   OH267113   6.475   2.040   3.607 -0.0085 -0.3968  0.2733
15233TIP3    H167114   6.439   2.012   3.523  0.7071  1.1972 -0.6055
15233TIP3    H267115   6.556   1.990   3.616  0.0982 -0.3067 -0.1598
15234TIP3   OH267116   0.933   4.158   2.221 -0.2820 -0.1002  0.2958
15234TIP3    H167117   0.862   4.209   2.259  0.1822  0.1079  0.8951
15234TIP3    H267118   0.904   4.067   2.231  0.1228 -0.0868  1.7758
15235TIP3   OH267119   5.313   3.291  16.074 -0.2186 -0.6809 -0.5395
15235TIP3    H167120   5.361   3.357  16.125  0.8019 -1.1671 -0.8447
15235TIP3    H267121   5.276   3.339  16.000 -0.9982 -0.1281  0.1815
15236TIP3   OH267122   6.522   4.548   4.302 -0.2738 -0.6413  0.0545
15236TIP3    H167123   6.492   4.465   4.341  0.7459 -0.9713  0.1562
15236TIP3    H267124   6.577   4.521   4.228 -0.2776 -0.0434 -0.1708
15237TIP3   OH267125   4.814   1.932  12.605 -0.3781  0.7648  0.6842
15237TIP3    H167126   4.759   1.962  12.533  0.1995  0.1732 -0.0213
15237TIP3    H267127   4.760   1.867  12.651 -0.9379  1.5106  1.1101
15238TIP3   OH267128   5.194   2.844   4.272 -0.1636  0.1492  0.6946
15238TIP3    H167129   5.177   2.834   4.178  1.8687  2.0012  0.0365
15238TIP3    H267130   5.288   2.830   4.280  0.2203  2.7939  1.9338
15239TIP3   OH267131   2.800   3.416  16.418 -0.4964  0.6094  0.6773
15239TIP3    H167132   2.814   3.505  16.448  0.6915  0.6952 -0.0406
15239TIP3    H267133   2.732   3.381  16.475 -0.7134  1.8503  1.1984
15240TIP3   OH267134   4.348   2.458  13.499  0.4330  0.5364 -0.3025
15240TIP3    H167135   4.275   2.487  13.444  0.6502 -0.5855 -1.2248
15240TIP3    H267136   4.368   2.533  13.554 -0.3827  1.3997 -1.1442
15241TIP3   OH267137   0.998   0.695  12.795 -0.2540  0.6675  0.3531
15241TIP3    H167138   0.985   0.613  12.747 -0.5473 -0.0377  1.5865
15241TIP3    H267139   1.008   0.762  12.727 -0.5466 -0.3077 -0.6752
15242TIP3   OH267140   1.438   5.847   5.020 -0.0280  0.0816 -0.3666
15242TIP3    H167141   1.391   5.764   5.014 -0.8517  0.5867 -1.0751
15242TIP3    H267142   1.516   5.834   4.965  0.1039 -0.3784 -0.0808
15243TIP3   OH267143   6.289   5.253  14.488  0.4115  0.6974 -0.5644
15243TIP3    H167144   6.306   5.345  14.505 -0.5495  1.4126 -3.0640
15243TIP3    H267145   6.200   5.239  14.519 -0.2864  1.2488 -2.2350
15244TIP3   OH267146   5.097   3.256   1.071  0.1447  0.3224  0.5012
15244TIP3    H167147   5.161   3.258   0.999 -1.3116 -0.4717 -0.8660
15244TIP3    H267148   5.093   3.165   1.098 -1.6012  0.0467 -0.5682
15245TIP3   OH267149   2.211   5.716   4.769 -0.2905  0.5804  0.2251
15245TIP3    H167150   2.209   5.755   4.681 -1.2237  2.2096  0.9181
15245TIP3    H267151   2.120   5.693   4.787  0.1576 -1.5089  0.0703
15246TIP3   OH267152   6.719   5.988  12.792 -0.3025  0.2403  0.0974
15246TIP3    H167153   6.799   5.938  12.774 -1.5952 -1.8405 -0.2251
15246TIP3    H267154   6.688   6.014  12.705  1.4003  3.5660  0.3088
15247TIP3   OH267155   5.561   3.988  12.488 -0.3534  0.3333 -0.1377
15247TIP3    H167156   5.562   3.959  12.397  3.5561  0.6929 -0.4095
15247TIP3    H267157   5.561   3.907  12.539 -2.5390  0.1300 -0.3721
15248TIP3   OH267158   5.271   1.921  16.130 -0.0882  0.8069  0.6962
15248TIP3    H167159   5.249   1.906  16.222  1.1233  1.6657  1.1626
15248TIP3    H267160   5.253   2.014  16.116  0.6688  0.9155  0.3661
15249TIP3   OH267161   1.333   3.140   2.389  0.4246  0.0796  0.1142
15249TIP3    H167162   1.304   3.162   2.477 -0.5084 -1.0755  0.1147
15249TIP3    H267163   1.274   3.070   2.361 -0.1351  1.2660 -1.9021
15250TIP3   OH267164   6.199   1.912  15.525 -0.1804  0.6163 -0.4505
15250TIP3    H167165   6.144   1.893  15.449 -0.2182 -1.9276  0.1333
15250TIP3    H267166   6.280   1.949  15.488 -0.3366 -0.2538 -1.7094
15251TIP3   OH267167   5.272   6.505  13.510 -0.2132 -0.3480  0.1352
15251TIP3    H167168   5.256   6.593  13.545 -0.8991 -1.8113  4.0791
15251TIP3    H267169   5.351   6.514  13.458  0.4024  2.4158  1.3376
15252TIP3   OH267170   2.916   4.133   6.642  0.1742  0.4272  0.3147
15252TIP3    H167171   2.823   4.111   6.649  0.3294 -0.1157  0.7765
15252TIP3    H267172   2.959   4.074   6.704  1.1602 -1.4539 -1.9826
15253TIP3   OH267173   1.861   5.387   0.243  0.4068  0.2697  0.0602
15253TIP3    H167174   1.847   5.435   0.325 -1.2350 -0.8829  0.4954
15253TIP3    H267175   1.927   5.439   0.197 -0.4396  2.3209  1.0040
15254TIP3   OH267176   4.010   3.863  17.229  0.3261 -0.4033 -0.1264
15254TIP3    H167177   4.061   3.870  17.148 -0.9473 -1.4101 -1.0603
15254TIP3    H267178   4.024   3.947  17.273  1.1079  0.1436 -1.3377
15255TIP3   OH267179   0.254   0.706  13.297 -0.3667  0.6605 -0.0954
15255TIP3    H167180   0.161   0.693  13.279 -0.2065 -0.8986  0.1129
15255TIP3    H267181   0.255   0.762  13.375 -1.0892  2.1806 -1.1323
15256TIP3   OH267182   0.593   0.368   2.488  0.0095 -0.2504  0.3395
15256TIP3    H167183   0.538   0.441   2.459  1.6113  0.7405 -0.3678
15256TIP3    H267184   0.551   0.336   2.567 -1.9380  0.0161 -0.5254
15257TIP3   OH267185   0.285   6.428   5.739 -0.2687 -0.8569 -0.1236
15257TIP3    H167186   0.333   6.388   5.811  1.4340  1.2296 -0.0193
15257TIP3    H267187   0.215   6.478   5.781  0.1472 -0.3997  0.0306
15258TIP3   OH267188   1.928   2.400   1.422 -0.4588  0.2404 -0.2723
15258TIP3    H167189   1.951   2.471   1.482  0.2250 -0.0022 -0.2333
15258TIP3    H267190   1.975   2.421   1.341 -0.7098  0.1324 -0.4455
15259TIP3   OH267191   5.347   5.810   4.898  0.1332  0.5389 -0.0126
15259TIP3    H167192   5.370   5.894   4.939 -0.7112  1.3088 -1.0714
15259TIP3    H267193   5.319   5.833   4.809  1.2801 -1.0157 -0.8308
15260TIP3   OH267194   3.189   5.890  14.100  0.1147  0.1461 -0.4037
15260TIP3    H167195   3.237   5.966  14.131  1.2358 -0.7286  0.0853
15260TIP3    H267196   3.100   5.902  14.135  0.4080  0.9708  0.0844
15261TIP3   OH267197   1.746   6.646   0.756 -0.0599  0.2882  0.1965
15261TIP3    H167198   1.717   6.726   0.713  0.1445 -0.4790 -1.4780
15261TIP3    H267199   1.836   6.635   0.727 -0.5052 -1.2347 -0.7668
15262TIP3   OH267200   3.500   2.945   0.332 -0.2334  0.1384  0.1877
15262TIP3    H167201   3.474   2.852   0.334  0.6949 -0.1278  0.3204
15262TIP3    H267202   3.418   2.992   0.344 -0.7369 -0.6660  0.0269
15263TIP3   OH267203   5.737   3.993  14.086 -0.8053 -0.0895 -0.5402
15263TIP3    H167204   5.669   3.940  14.127  0.9924 -1.4835  0.8195
15263TIP3    H267205   5.812   3.987  14.146 -0.1312  3.1406 -0.8837
15264TIP3   OH267206   6.016   3.573   3.523  0.0266  0.2625  0.0945
15264TIP3    H167207   6.012   3.669   3.527  1.2963  0.3068  0.7162
15264TIP3    H267208   6.020   3.553   3.430  1.8875  0.9505 -0.0101
15265TIP3   OH267209   1.576   0.800   1.122  0.2974  0.1986  0.1680
15265TIP3    H167210   1.580   0.887   1.161  1.2675  0.2611 -0.0319
15265TIP3    H267211   1.503   0.804   1.061 -0.5716  0.4203  1.2052
15266TIP3   OH267212   2.062   2.811   6.817  0.0857 -0.4092 -0.2827
15266TIP3    H167213   2.047   2.903   6.794 -0.7795 -0.5131 -0.1670
15266TIP3    H267214   2.106   2.814   6.902 -1.5396 -0.1176  0.5826
15267TIP3   OH267215   5.129   6.715  16.414  0.1581  0.2289 -0.4632
15267TIP3    H167216   5.195   6.659  16.375  0.6445  0.9861 -0.7484
15267TIP3    H267217   5.052   6.705  16.358 -0.0039 -0.6926 -0.0993
15268TIP3   OH267218   2.770   2.782   2.142 -0.0577 -0.3057 -0.0161
15268TIP3    H167219   2.731   2.831   2.069 -0.4354 -1.6492 -0.7433
15268TIP3    H267220   2.851   2.829   2.162  0.0828  0.0627 -1.3421
15269TIP3   OH267221   6.320   0.328  17.213 -0.3747  0.3330 -0.0524
15269TIP3    H167222   6.375   0.358  17.285 -0.2952 -0.5530  0.2738
15269TIP3    H267223   6.301   0.407  17.163  2.5399  0.4956 -1.1242
15270TIP3   OH267224   0.071   4.677  15.037 -0.1445  0.5101  0.2577
15270TIP3    H167225   0.161   4.679  15.070  0.0286 -1.2934  0.0029
15270TIP3    H267226   0.037   4.592  15.065 -2.2790  1.7190  1.5400
15271TIP3   OH267227   2.872   4.929  10.240 -0.0483  0.9921 -0.5537
15271TIP3    H167228   2.809   4.946  10.310  0.6460 -0.2085  0.3897
15271TIP3    H267229   2.946   4.985  10.260  0.9051 -0.6275  0.7534
15272TIP3   OH267230   0.908   0.675  16.509  0.2540 -0.0977 -0.3461
15272TIP3    H167231   0.910   0.684  16.604 -0.5621  0.8258 -0.4068
15272TIP3    H267232   0.869   0.756  16.477  2.9719  0.8312 -1.6534
15273TIP3   OH267233   5.256   3.566  17.055  0.1535  0.0078  0.1025
15273TIP3    H167234   5.209   3.647  17.072  1.7867  1.0637 -0.2505
15273TIP3    H267235   5.295   3.578  16.968  1.1015 -0.8063  0.3951
15274TIP3   OH267236   0.656   4.809  17.323  0.5060  0.0377  0.0503
15274TIP3    H167237   0.748   4.806  17.349  0.4635  1.7574  0.5241
15274TIP3    H267238   0.658   4.824  17.229  0.7564  1.8951  0.3227
15275TIP3   OH267239   2.849   4.226   5.087 -0.4717  0.1153 -0.1933
15275TIP3    H167240   2.903   4.197   5.013  0.2365  0.9486 -0.0203
15275TIP3    H267241   2.813   4.309   5.058 -1.3964 -0.2619 -0.1604
15276TIP3   OH267242   1.154   5.342   1.218  0.1006  0.0181 -0.0745
15276TIP3    H167243   1.079   5.331   1.159 -0.0075 -3.1971  0.4813
15276TIP3    H267244   1.231   5.329   1.163  0.2300  1.5822 -0.3075
15277TIP3   OH267245   4.440   1.059   3.632  0.2295  0.2589 -0.0371
15277TIP3    H167246   4.494   1.039   3.708 -1.6392 -0.0516  1.2891
15277TIP3    H267247   4.350   1.047   3.663 -0.6835  2.3395 -1.6669
15278TIP3   OH267248   3.923   1.650   3.057 -0.4379 -0.5085  0.5313
15278TIP3    H167249   3.920   1.574   2.999  0.6655 -0.3372  0.2434
15278TIP3    H267250   4.014   1.679   3.055 -0.7187  0.4537  1.1207
15279TIP3   OH267251   5.497   4.138   1.964  0.4551 -0.4472  0.6167
15279TIP3    H167252   5.549   4.062   1.988 -1.7011 -1.4857  2.4610
15279TIP3    H267253   5.527   4.208   2.022  2.6844  0.3246 -1.3243
15280TIP3   OH267254   0.775   1.914  13.680  0.1123 -0.2355 -0.3056
15280TIP3    H167255   0.734   1.999  13.664 -0.1347 -0.5734 -1.6227
15280TIP3    H267256   0.841   1.906  13.611  0.3939 -0.9445  0.0309
15281TIP3   OH267257   1.373   3.138  16.986 -0.1966 -0.4338 -0.5337
15281TIP3    H167258   1.457   3.093  16.985  0.5877  0.5761  3.2322
15281TIP3    H267259   1.394   3.229  17.005 -2.0792 -0.0695  0.0549
15282TIP3   OH267260   4.629   1.366   4.811 -0.5536 -0.3890 -0.2461
15282TIP3    H167261   4.719   1.383   4.837 -0.8354  0.3131  0.3370
15282TIP3    H267262   4.596   1.452   4.783 -0.7861 -0.8059 -1.2777
15283TIP3   OH267263   5.015   2.595   1.818  0.3607 -0.0952  0.1378
15283TIP3    H167264   5.031   2.689   1.818 -0.8301  0.1309 -0.4774
15283TIP3    H267265   4.954   2.581   1.745  1.3021 -1.4864 -0.4274
15284TIP3   OH267266   5.498   6.556   3.932 -0.1691 -0.4234  0.8107
15284TIP3    H167267   5.561   6.601   3.876 -0.6141 -1.5378 -0.6602
15284TIP3    H267268   5.428   6.529   3.872 -0.4896 -1.9691  1.8288
15285TIP3   OH267269   5.477   1.776  15.394  0.1441  0.4838 -0.2123
15285TIP3    H167270   5.431   1.857  15.416 -0.4326  0.0322  0.2547
15285TIP3    H267271   5.493   1.733  15.478  1.4550  0.6368 -0.3553
15286TIP3   OH267272   2.644   6.452  12.770  0.1243 -0.0112  0.2784
15286TIP3    H167273   2.688   6.461  12.685 -1.5303  3.1607 -0.4107
15286TIP3    H267274   2.586   6.377  12.758  0.7915 -0.3599 -0.9882
15287TIP3   OH267275   5.520   0.723  14.193  0.3544 -0.2547 -0.2170
15287TIP3    H167276   5.475   0.785  14.252 -2.2226 -0.4594 -1.8058
15287TIP3    H267277   5.593   0.773  14.157 -0.6251  1.3058 -0.1409
15288TIP3   OH267278   3.533   5.297  16.422  0.5831 -0.1217 -0.1661
15288TIP3    H167279   3.547   5.249  16.504 -0.6555 -0.8949 -0.3744
15288TIP3    H267280   3.574   5.242  16.355  1.0240  0.1856 -0.1536
15289TIP3   OH267281   3.047   0.021   3.592 -0.3099  0.0806  0.1104
15289TIP3    H167282   3.081   0.089   3.651 -0.2816 -0.6461  0.9597
15289TIP3    H267283   2.985   0.067   3.535  0.1190  0.9172  0.3089
15290TIP3   OH267284   6.657   4.827  14.662  0.5873  0.8624 -0.0547
15290TIP3    H167285   6.634   4.803  14.752 -1.4250  1.3144 -0.4091
15290TIP3    H267286   6.597   4.898  14.640  0.5095  0.2524 -2.0042
15291TIP3   OH267287   5.360   5.174  11.962  0.0467  0.2037 -0.3772
15291TIP3    H167288   5.374   5.128  11.880  1.1287  1.5453 -0.9854
15291TIP3    H267289   5.319   5.257  11.937  0.0762  0.4830  0.4530
15292TIP3   OH267290   4.029   3.655   4.958 -0.3901 -0.0145 -0.4789
15292TIP3    H167291   4.088   3.729   4.947 -1.5858  1.6150  2.7548
15292TIP3    H267292   3.965   3.665   4.888 -0.9370  2.5172  0.2889
15293TIP3   OH267293   2.503   0.452  16.372 -0.7794  0.1005 -0.2092
15293TIP3    H167294   2.585   0.494  16.395  0.2409 -0.9147 -1.8022
15293TIP3    H267295   2.474   0.409  16.453 -0.6862  1.9279  0.8322
15294TIP3   OH267296   5.688   5.200   3.333  0.1943  0.4059 -0.1816
15294TIP3    H167297   5.763   5.196   3.272 -0.3523 -0.4573 -0.8330
15294TIP3    H267298   5.611   5.199   3.276 -0.3316 -0.2903  0.5094
15295TIP3   OH267299   4.947   6.444  13.945 -0.4759  0.0273 -0.2320
15295TIP3    H167300   5.011   6.461  14.014 -1.0948 -0.1663  0.4047
15295TIP3    H267301   4.964   6.512  13.880  0.4026 -0.0552 -0.1002
15296TIP3   OH267302   5.723   0.623   0.111  0.2467 -0.5542 -0.1429
15296TIP3    H167303   5.635   0.662   0.103 -0.2176 -1.2232  1.2958
15296TIP3    H267304   5.772   0.661   0.038 -1.6584 -1.3727 -1.9770
15297TIP3   OH267305   0.090   5.762  11.498 -0.1874 -0.5276  0.5407
15297TIP3    H167306   0.139   5.825  11.444 -1.3729 -0.0075  0.0452
15297TIP3    H267307   0.081   5.806  11.582 -1.0302 -0.0031  0.1900
15298TIP3   OH267308   5.551   0.956   3.969  0.1287 -0.1944 -0.0556
15298TIP3    H167309   5.575   0.941   3.878 -2.6731  2.0505 -1.2771
15298TIP3    H267310   5.602   1.033   3.995 -0.3414  0.1922 -0.2800
15299TIP3   OH267311   2.775   3.287   1.721  0.3030 -0.5273 -0.2892
15299TIP3    H167312   2.727   3.311   1.801 -1.2145 -2.7263 -0.4688
15299TIP3    H267313   2.783   3.370   1.673 -1.7597  0.2451  0.5755
15300TIP3   OH267314   0.770   1.686   3.777  0.2579  0.3642  0.1679
15300TIP3    H167315   0.712   1.762   3.764  3.5696  3.0967  0.1493
15300TIP3    H267316   0.831   1.713   3.845  1.6916 -2.2959  0.0713
15301TIP3   OH267317   3.622   5.520   2.144  0.3769 -0.6949  0.2221
15301TIP3    H167318   3.540   5.568   2.154 -0.1483 -1.4222 -0.4361
15301TIP3    H267319   3.641   5.486   2.231 -0.0617 -0.5746  0.3648
15302TIP3   OH267320   5.257   6.247  15.658  0.3262  0.0635  0.0385
15302TIP3    H167321   5.312   6.267  15.582 -0.2206  1.6893  0.0334
15302TIP3    H267322   5.227   6.332  15.688 -0.9187 -0.6918  0.9995
15303TIP3   OH267323   0.658   1.969  14.165 -0.1986 -0.4325  0.1413
15303TIP3    H167324   0.706   1.981  14.083 -0.9406  2.4786  0.0257
15303TIP3    H267325   0.677   1.879  14.191  1.1357 -1.0146 -2.5177
15304TIP3   OH267326   6.520   6.247  14.361 -0.2853  0.4345  0.1491
15304TIP3    H167327   6.496   6.159  14.332 -0.3371  1.0615 -1.8083
15304TIP3    H267328   6.442   6.299  14.346 -0.4457  0.7412  1.8410
15305TIP3   OH267329   4.960   1.336   2.582  0.7615  0.3353 -0.2305
15305TIP3    H167330   4.968   1.413   2.527  0.7817  0.9321  0.5909
15305TIP3    H267331   4.874   1.300   2.562  0.6139  0.7680 -0.3686
15306TIP3   OH267332   0.428   2.991   1.453  0.4241 -0.4594 -0.9308
15306TIP3    H167333   0.431   3.070   1.507  0.4976 -0.3226 -1.1303
15306TIP3    H267334   0.481   2.927   1.499  0.2754 -0.4256 -0.7127
15307TIP3   OH267335   4.135   5.507  11.304  0.3767 -0.5614 -0.0754
15307TIP3    H167336   4.159   5.525  11.395  1.0484  0.2434 -0.3952
15307TIP3    H267337   4.072   5.576  11.282  2.6244  1.3111 -1.1687
15308TIP3   OH267338   1.246   2.773  11.627  0.2752 -0.3167  0.6117
15308TIP3    H167339   1.328   2.730  11.651  0.6144  0.6365  1.2219
15308TIP3    H267340   1.197   2.779  11.709  0.8225  1.6562  0.8454
15309TIP3   OH267341   0.437   0.170  12.864  0.0937  0.0691  0.1296
15309TIP3    H167342   0.510   0.210  12.816 -0.6683  1.2116 -0.1113
15309TIP3    H267343   0.359   0.208  12.824 -0.5906  0.0217  1.3959
15310TIP3   OH267344   5.403   0.502   5.093  0.3202 -0.0351  0.5409
15310TIP3    H167345   5.385   0.571   5.030 -0.6577 -0.5523  0.2356
15310TIP3    H267346   5.454   0.545   5.162  0.2978  0.8234  0.0334
15311TIP3   OH267347   1.785   6.395  15.252 -0.0937  0.1009 -0.0600
15311TIP3    H167348   1.755   6.484  15.272  0.7742  0.0631  1.5321
15311TIP3    H267349   1.877   6.406  15.228  0.2389 -0.4360  0.9142
15312TIP3   OH267350   6.418   6.015  16.254 -0.5903 -0.2523  0.3361
15312TIP3    H167351   6.437   5.922  16.244  0.0086  0.0148 -1.3689
15312TIP3    H267352   6.479   6.044  16.322  0.1982 -0.8482 -0.0915
15313TIP3   OH267353   3.360   3.646   5.934  0.8335 -0.1037  0.3602
15313TIP3    H167354   3.430   3.583   5.918  0.5132 -0.4329  0.2386
15313TIP3    H267355   3.296   3.629   5.865 -0.4363 -1.3321  1.7572
15314TIP3   OH267356   0.408   4.593  17.258  0.4438 -0.4907  0.0271
15314TIP3    H167357   0.493   4.566  17.225 -0.1154 -0.9455 -1.1220
15314TIP3    H267358   0.372   4.649  17.190 -0.3947 -0.7503  0.2371
15315TIP3   OH267359   5.398   1.733   2.141 -0.2350  0.0902  0.8316
15315TIP3    H167360   5.348   1.814   2.144  0.5305  0.6327 -0.3875
15315TIP3    H267361   5.333   1.663   2.146 -1.3921  0.7159 -2.7526
15316TIP3   OH267362   2.180   5.202   1.754 -0.2512 -0.2465  0.0434
15316TIP3    H167363   2.266   5.243   1.762 -0.0497 -0.6607 -0.0281
15316TIP3    H267364   2.188   5.141   1.681 -1.4720  1.9142 -2.0597
15317TIP3   OH267365   3.962   2.157   4.540 -0.6730  0.0064  0.0238
15317TIP3    H167366   4.021   2.217   4.493 -0.9422 -1.1646 -1.9417
15317TIP3    H267367   3.931   2.208   4.615 -0.6744  2.2500 -1.3952
15318TIP3   OH267368   0.587   0.519   3.698  0.7457 -0.0926 -0.4519
15318TIP3    H167369   0.617   0.491   3.785 -0.6162 -0.0219  0.0660
15318TIP3    H267370   0.608   0.612   3.695 -0.2327  0.1654  0.2778
15319TIP3   OH267371   0.665   0.776   4.650 -0.2026 -0.6309 -0.1698
15319TIP3    H167372   0.667   0.852   4.709  0.7638 -0.3776 -0.4967
15319TIP3    H267373   0.676   0.814   4.562 -1.2099 -1.0367 -0.4833
15320TIP3   OH267374   5.778   2.907  17.250  0.1558  0.1077  0.2609
15320TIP3    H167375   5.699   2.934  17.204 -0.8165 -1.3117  1.0020
15320TIP3    H267376   5.826   2.854  17.185 -0.4918 -0.6680  0.3928
15321TIP3   OH267377   1.841   2.913   4.869  0.0597 -0.2162 -0.1202
15321TIP3    H167378   1.869   2.827   4.835  2.0664  0.6513 -0.8176
15321TIP3    H267379   1.919   2.949   4.910 -0.1689  2.0491 -1.4774
15322TIP3   OH267380   2.882   4.325   1.662  0.4260  0.5471 -0.1029
15322TIP3    H167381   2.855   4.290   1.577  0.5152  1.7274 -0.6362
15322TIP3    H267382   2.839   4.269   1.726 -0.0289 -0.0693 -0.9303
15323TIP3   OH267383   4.973   1.100  12.615  0.0131  0.1459  0.1978
15323TIP3    H167384   4.879   1.081  12.608 -0.1752  1.2094 -0.4577
15323TIP3    H267385   5.009   1.026  12.662 -1.3244  0.2074  1.3805
15324TIP3   OH267386   0.694   5.206   2.621 -0.5543 -0.6946  0.3642
15324TIP3    H167387   0.661   5.123   2.586  0.6366 -1.0181 -0.0650
15324TIP3    H267388   0.728   5.184   2.708  0.9638 -0.9776 -0.2657
15325TIP3   OH267389   0.638   3.205   3.287 -0.2604 -0.5319 -0.5108
15325TIP3    H167390   0.554   3.172   3.317 -0.3078  0.0284  0.0186
15325TIP3    H267391   0.666   3.145   3.218 -1.2153 -0.5687 -0.8734
15326TIP3   OH267392   2.720   6.443   2.795 -0.2576 -0.1221  0.2254
15326TIP3    H167393   2.754   6.370   2.743 -0.1666 -0.5641  0.9002
15326TIP3    H267394   2.625   6.434   2.792 -0.2477 -0.2345  0.2639
15327TIP3   OH267395   3.820   1.505  11.663 -0.6467  0.0115 -0.2057
15327TIP3    H167396   3.847   1.440  11.598 -0.7946 -1.4632  1.1280
15327TIP3    H267397   3.770   1.454  11.728 -2.3580  1.7925 -0.0409
15328TIP3   OH267398   5.157   3.127  11.145 -0.2659  0.0420  0.2674
15328TIP3    H167399   5.102   3.114  11.068 -0.8621  3.2581 -0.0125
15328TIP3    H267400   5.214   3.200  11.122  0.8930 -0.1913  2.1968
15329TIP3   OH267401   3.199   2.224  11.080 -0.2493 -0.1960  0.2126
15329TIP3    H167402   3.213   2.317  11.098  0.6024 -0.1127 -0.8344
15329TIP3    H267403   3.286   2.184  11.088 -0.6096 -0.9153  0.6750
15330TIP3   OH267404   2.007   3.046   5.038  0.1939  0.3935  0.1037
15330TIP3    H167405   1.995   3.121   5.097  1.5963  1.1220 -0.5023
15330TIP3    H267406   2.090   3.007   5.065  1.1181  1.0363 -1.6790
15331TIP3   OH267407   1.805   0.453  15.014  0.2162 -0.2309  0.6906
15331TIP3    H167408   1.839   0.529  15.060 -4.4971  2.0158  1.0326
15331TIP3    H267409   1.780   0.392  15.084 -1.5046  0.6058  0.8427
15332TIP3   OH267410   2.945   1.465   6.010 -0.2587 -0.3994 -0.1881
15332TIP3    H167411   2.865   1.511   6.035 -0.1207 -1.2149  2.0135
15332TIP3    H267412   2.922   1.418   5.930 -1.5971  0.3470 -0.2760
15333TIP3   OH267413   2.992   0.591   0.302 -0.1499  0.0315 -0.5332
15333TIP3    H167414   2.943   0.538   0.239 -1.7716  2.4372 -1.4660
15333TIP3    H267415   2.925   0.624   0.362  1.3774 -2.4962  2.8724
15334TIP3   OH267416   4.138   6.545   4.206  0.2623  0.4018 -0.5189
15334TIP3    H167417   4.136   6.540   4.111 -1.4881 -1.2821 -0.4329
15334TIP3    H267418   4.081   6.475   4.236  0.1631  1.3680  1.7790
15335TIP3   OH267419   2.333   0.291  15.101  0.1472 -0.0240  0.4325
15335TIP3    H167420   2.320   0.292  15.195  0.4583  0.1086  0.4763
15335TIP3    H267421   2.267   0.231  15.068  1.8303 -2.3432  1.0264
15336TIP3   OH267422   5.482   1.850  12.746  0.2515  0.6059 -0.0872
15336TIP3    H167423   5.556   1.909  12.761  0.6716 -0.2918  1.7210
15336TIP3    H267424   5.522   1.764  12.736 -0.5180  0.1968  0.3128
15337TIP3   OH267425   2.648   5.988  12.239  0.1185  0.1428 -0.1698
15337TIP3    H167426   2.690   6.037  12.309  2.2687 -0.5761 -0.8580
15337TIP3    H267427   2.624   6.054  12.174 -0.3243  0.6397  0.4962
15338TIP3   OH267428   6.575   3.057  13.742 -0.1233  0.4543 -0.2560
15338TIP3    H167429   6.574   3.009  13.824  1.8808  0.9241  0.1024
15338TIP3    H267430   6.654   3.110  13.746  0.2976  0.1406 -2.6904
15339TIP3   OH267431   6.015   2.701  16.432  0.0532 -0.1986 -0.2456
15339TIP3    H167432   5.919   2.704  16.440 -0.1407  2.1977 -2.3238
15339TIP3    H267433   6.032   2.620  16.384 -0.8874 -0.6862  0.2024
15340TIP3   OH267434   6.364   5.357   5.404  0.1248 -0.0854 -0.6727
15340TIP3    H167435   6.285   5.330   5.452  0.0785  0.0809 -0.6553
15340TIP3    H267436   6.330   5.390   5.320  0.3283 -2.3641 -1.7330
15341TIP3   OH267437   6.149   6.337  11.914  0.0420  0.0704 -0.3259
15341TIP3    H167438   6.227   6.391  11.903  0.9366 -1.0822  0.1511
15341TIP3    H267439   6.175   6.251  11.880 -1.4939  0.0315 -1.5135
15342TIP3   OH267440   3.954   4.520  15.544  0.3309  0.0074  0.0654
15342TIP3    H167441   3.986   4.582  15.480  0.2054  0.5262  0.4974
15342TIP3    H267442   3.932   4.442  15.493  3.0548 -0.7191 -0.1795
15343TIP3   OH267443   2.606   0.364   0.329  0.1518 -0.3871  0.0630
15343TIP3    H167444   2.679   0.368   0.266 -0.0851  0.1135 -0.1823
15343TIP3    H267445   2.624   0.285   0.380  1.7880  0.6234  1.1271
15344TIP3   OH267446   1.921   1.792   3.684  0.2807 -0.3214 -0.7635
15344TIP3    H167447   1.946   1.835   3.766  1.5639 -0.1818 -1.2134
15344TIP3    H267448   1.837   1.750   3.704  0.5089 -0.1802  0.5875
15345TIP3   OH267449   3.125   5.732   6.309 -0.9929  0.0354  0.3013
15345TIP3    H167450   3.218   5.710   6.310 -0.4745  1.9618  1.9420
15345TIP3    H267451   3.104   5.744   6.216  0.5043  0.0094 -0.0627
15346TIP3   OH267452   1.251   5.769  15.281 -0.2331 -0.2133  0.1595
15346TIP3    H167453   1.284   5.710  15.214 -2.0297  0.6572 -1.5800
15346TIP3    H267454   1.315   5.841  15.284  0.5117 -0.8704  0.3265
15347TIP3   OH267455   1.409   6.591  11.723 -0.4066  0.0437 -0.2676
15347TIP3    H167456   1.491   6.575  11.675 -0.0140  0.7462  0.1356
15347TIP3    H267457   1.430   6.666  11.779 -1.5757  0.7453 -0.7451
15348TIP3   OH267458   6.153   0.187   6.500 -0.0384  0.1132 -0.0693
15348TIP3    H167459   6.089   0.221   6.562  0.2849 -1.6023  1.2963
15348TIP3    H267460   6.143   0.092   6.505  0.4331 -0.1038 -2.2198
15349TIP3   OH267461   1.507   0.613  13.919  0.4900 -0.6099  0.0367
15349TIP3    H167462   1.530   0.520  13.919 -1.7873 -1.2324  1.2229
15349TIP3    H267463   1.495   0.635  14.011 -0.7995  0.3677 -0.3374
15350TIP3   OH267464   5.616   3.375   2.048  0.6943 -0.1275 -0.0544
15350TIP3    H167465   5.557   3.371   2.123 -0.7579  1.0723 -1.0769
15350TIP3    H267466   5.685   3.436   2.075 -0.0715  0.6628  0.1698
15351TIP3   OH267467   0.960   4.177  11.018  0.2913 -0.7455  0.3000
15351TIP3    H167468   0.923   4.250  11.066  2.6078  1.2223 -0.6545
15351TIP3    H267469   0.968   4.209  10.928 -0.4589 -2.9424 -0.6323
15352TIP3   OH267470   5.538   3.457   5.001 -0.2718  0.5299  0.4988
15352TIP3    H167471   5.565   3.530   5.056  1.1561  0.9610 -0.7367
15352TIP3    H267472   5.614   3.438   4.946 -1.1907 -0.7817 -0.3783
15353TIP3   OH267473   4.812   4.409  12.079  0.1681  0.5445 -0.2245
15353TIP3    H167474   4.874   4.336  12.081 -1.0461 -0.5333  1.9979
15353TIP3    H267475   4.733   4.374  12.039  0.0739  1.1085 -0.5507
15354TIP3   OH267476   4.464   3.671   6.032 -0.4382 -0.7393  0.4065
15354TIP3    H167477   4.392   3.682   6.094  0.1093  0.2158  0.8937
15354TIP3    H267478   4.494   3.760   6.015  1.7669 -1.1886  1.6022
15355TIP3   OH267479   4.636   2.095   2.786  0.5295 -0.1461 -0.1656
15355TIP3    H167480   4.683   2.056   2.860  0.7807 -1.5955 -1.0391
15355TIP3    H267481   4.545   2.096   2.814  0.8739  1.6392  1.0997
15356TIP3   OH267482   5.487   1.584   0.143  0.4382 -0.0140 -0.0567
15356TIP3    H167483   5.499   1.527   0.218 -2.1621 -0.2751  0.2689
15356TIP3    H267484   5.455   1.526   0.073  2.1071  0.3440 -1.1737
15357TIP3   OH267485   2.267   1.187  12.913  0.3888 -0.1390  0.4003
15357TIP3    H167486   2.234   1.154  12.996 -1.0384 -0.8207 -0.4114
15357TIP3    H267487   2.223   1.271  12.901 -1.5234 -1.2594 -0.9039
15358TIP3   OH267488   3.875   5.775   1.898  0.3674  0.3428 -0.6833
15358TIP3    H167489   3.780   5.767   1.909  0.3366  0.8255 -0.5696
15358TIP3    H267490   3.908   5.687   1.913  0.0647  0.4349  0.7024
15359TIP3   OH267491   0.004   0.347  17.338  0.6139 -0.8998 -0.5887
15359TIP3    H167492   0.006   0.363  17.243  0.0674 -2.4129 -0.8890
15359TIP3    H267493  -0.084   0.372  17.365  0.5055 -1.2327 -0.6336
15360TIP3   OH267494   5.308   5.906  15.409  0.5584  0.0425  0.0362
15360TIP3    H167495   5.403   5.902  15.423  0.7548 -0.2972 -1.3104
15360TIP3    H267496   5.271   5.873  15.491  1.5008  2.6623  1.6226
15361TIP3   OH267497   1.652   4.470   0.054 -0.1289  0.0186  0.0940
15361TIP3    H167498   1.699   4.548   0.026  0.3542 -0.1595  0.4059
15361TIP3    H267499   1.720   4.411   0.087 -0.5982 -0.1065  0.8631
15362TIP3   OH267500   3.550   1.495  16.654 -0.3302 -0.9768  0.2453
15362TIP3    H167501   3.587   1.552  16.586 -1.1778 -0.3051  0.3240
15362TIP3    H267502   3.582   1.533  16.736 -2.5679  0.7535  0.4351
15363TIP3   OH267503   2.648   0.085  17.008  0.2806 -0.2939  0.0099
15363TIP3    H167504   2.714   0.152  16.989 -0.4770  0.2591 -0.7143
15363TIP3    H267505   2.670   0.013  16.950  0.8433 -0.5183  0.4897
15364TIP3   OH267506   5.657   4.737   2.034  0.2906  0.2293  0.1013
15364TIP3    H167507   5.724   4.678   2.070 -0.2202 -2.4786 -2.9351
15364TIP3    H267508   5.706   4.794   1.974  0.4237  1.3684  1.2396
15365TIP3   OH267509   6.121   6.156  11.265 -0.4089 -0.5743 -0.6228
15365TIP3    H167510   6.057   6.224  11.245 -1.8076 -0.8014  2.4094
15365TIP3    H267511   6.159   6.183  11.348 -0.0433 -2.8086  0.0033
15366TIP3   OH267512   5.832   3.868   5.477  0.3648  0.1588 -0.6103
15366TIP3    H167513   5.836   3.954   5.434  1.7560  1.8401  2.5089
15366TIP3    H267514   5.800   3.887   5.565 -0.4747 -2.7532 -0.1869
15367TIP3   OH267515   3.610   6.173  13.932 -0.1456  0.3727  0.3652
15367TIP3    H167516   3.641   6.263  13.943  1.0862 -0.0937  1.0049
15367TIP3    H267517   3.688   6.125  13.905 -0.8412 -0.4629 -0.1603
15368TIP3   OH267518   1.306   5.509   4.036 -0.0516  0.7192  0.1813
15368TIP3    H167519   1.237   5.492   3.972 -0.4030 -2.1607  1.1660
15368TIP3    H267520   1.262   5.555   4.107  0.2088  3.3634 -1.2648
15369TIP3   OH267521   2.198   0.316  11.824 -0.1406  0.1946  0.4014
15369TIP3    H167522   2.276   0.260  11.818 -0.4893 -0.2747  0.2398
15369TIP3    H267523   2.197   0.363  11.741 -0.8638 -0.9095 -0.2408
15370TIP3   OH267524   0.235   3.407  17.125 -0.1351  0.6329 -0.0012
15370TIP3    H167525   0.164   3.472  17.133 -0.1857  0.7326 -1.0863
15370TIP3    H267526   0.314   3.460  17.114 -0.0835  0.5163 -0.1956
15371TIP3   OH267527   5.679   0.931   0.621  0.0749  0.4047  0.2485
15371TIP3    H167528   5.592   0.935   0.583 -0.4573  0.9407  1.4800
15371TIP3    H267529   5.670   0.874   0.697  0.2244  2.2825  1.7512
15372TIP3   OH267530   6.507   2.215   1.587 -0.7201  0.2074  0.2642
15372TIP3    H167531   6.413   2.207   1.570 -1.3122  2.5328  1.9723
15372TIP3    H267532   6.531   2.299   1.547  0.2409  0.4373  1.2839
15373TIP3   OH267533   6.627   6.217   1.795  0.0469 -0.2052  0.1954
15373TIP3    H167534   6.581   6.263   1.724  0.7026 -0.4309 -0.3863
15373TIP3    H267535   6.633   6.127   1.764 -0.2295 -0.4512  0.8340
15374TIP3   OH267536   4.785   4.281   4.722  0.2458 -0.2522  0.0371
15374TIP3    H167537   4.868   4.236   4.740 -1.7115 -3.9558  1.0014
15374TIP3    H267538   4.798   4.325   4.639  2.7435 -2.0638 -0.6412
15375TIP3   OH267539   0.394   2.369  14.831 -0.1145  0.1619  0.3095
15375TIP3    H167540   0.425   2.412  14.751 -0.4540  0.4340  0.3212
15375TIP3    H267541   0.391   2.276  14.808 -0.7672  0.2980 -0.1904
15376TIP3   OH267542   5.835   2.807   2.654 -0.0198  0.0071  0.5294
15376TIP3    H167543   5.770   2.822   2.723 -2.0504  0.0779 -1.2946
15376TIP3    H267544   5.811   2.868   2.584  1.5571 -0.5156 -0.5217
15377TIP3   OH267545   2.309   5.304   3.297 -0.0782 -0.4355  0.2799
15377TIP3    H167546   2.384   5.361   3.281  0.1088 -0.4688  0.9852
15377TIP3    H267547   2.317   5.280   3.389 -0.2349 -1.4955  0.0261
15378TIP3   OH267548   6.421   4.404   2.597 -0.2585 -0.2603 -0.1715
15378TIP3    H167549   6.366   4.425   2.522 -1.5470 -0.1824  0.7647
15378TIP3    H267550   6.493   4.351   2.561 -0.1096  0.8923 -1.6456
15379TIP3   OH267551   2.965   5.212   6.281 -0.4432 -0.0837  0.2287
15379TIP3    H167552   3.014   5.221   6.363 -2.0219 -0.5593  1.2837
15379TIP3    H267553   2.976   5.296   6.237 -2.2375  1.5136  2.5258
15380TIP3   OH267554   3.349   6.409   0.567  0.4459  0.2869 -0.3029
15380TIP3    H167555   3.356   6.491   0.517  4.2189  1.2146  1.3810
15380TIP3    H267556   3.339   6.437   0.658  1.7216 -1.0570  0.2910
15381TIP3   OH267557   6.049   1.334   1.987 -0.2108 -0.3018 -0.6269
15381TIP3    H167558   5.961   1.327   1.949 -1.2394  0.4360  1.4584
15381TIP3    H267559   6.097   1.390   1.926 -1.2525 -0.5258 -1.6868
15382TIP3   OH267560   6.197   3.761   0.709 -0.4501  0.5113  0.4935
15382TIP3    H167561   6.276   3.810   0.733  0.5597 -0.7345 -0.1627
15382TIP3    H267562   6.175   3.710   0.786  1.7863 -2.1794 -0.4742
15383TIP3   OH267563   0.762   5.107  12.260 -0.3010 -0.1095  0.1232
15383TIP3    H167564   0.854   5.125  12.244 -0.5646  0.7491 -0.5225
15383TIP3    H267565   0.719   5.128  12.177 -1.3142  1.3319  0.9663
15384TIP3   OH267566   0.694   5.189   5.766 -0.2011  0.7110 -0.1810
15384TIP3    H167567   0.769   5.132   5.749 -0.9583 -0.4445  0.2116
15384TIP3    H267568   0.704   5.216   5.857 -0.2767  0.5098 -0.1111
15385TIP3   OH267569   3.056   4.865  11.085  0.2729  0.3757 -0.7892
15385TIP3    H167570   3.108   4.902  11.013  0.0692 -0.6414 -1.4791
15385TIP3    H267571   3.066   4.770  11.075  0.4495  0.2192  0.6913
15386TIP3   OH267572   6.306   3.096   2.313 -0.1631  0.2931 -0.0723
15386TIP3    H167573   6.265   3.110   2.399  2.4689  1.9574  1.0230
15386TIP3    H267574   6.276   3.170   2.260 -0.7586 -0.0220 -0.1812
15387TIP3   OH267575   0.680   4.652  11.709 -0.4549  0.0478 -0.4342
15387TIP3    H167576   0.604   4.661  11.651 -0.3898  0.1065 -0.5097
15387TIP3    H267577   0.658   4.579  11.767 -1.2116  0.9890  0.5151
15388TIP3   OH267578   4.487   6.758  16.184 -0.0667 -0.0401 -0.4251
15388TIP3    H167579   4.506   6.758  16.090  0.1205  1.7730 -0.4391
15388TIP3    H267580   4.568   6.729  16.225 -0.1974 -0.9837 -0.8277
15389TIP3   OH267581   6.722   2.419   4.805  0.0095  0.4129  0.4948
15389TIP3    H167582   6.781   2.478   4.852  0.7546 -0.0106  0.1087
15389TIP3    H267583   6.680   2.475   4.739  0.4449  0.5938  0.3658
15390TIP3   OH267584   0.310   1.708  13.856  0.2710 -0.3044 -0.1409
15390TIP3    H167585   0.319   1.766  13.780  0.7992  0.1055  0.2237
15390TIP3    H267586   0.343   1.760  13.929 -0.2357 -0.6955  0.3715
15391TIP3   OH267587   5.630   0.093   4.560  0.0781  0.0631 -0.1123
15391TIP3    H167588   5.595   0.142   4.486 -1.3699  1.6377  1.5122
15391TIP3    H267589   5.722   0.117   4.563  0.2072 -0.1770 -1.4798
15392TIP3   OH267590   3.248   2.366   2.978  0.1880 -0.1150  0.5089
15392TIP3    H167591   3.176   2.343   3.036  0.0444 -2.0892 -0.3376
15392TIP3    H267592   3.208   2.416   2.907 -0.5034 -1.6540 -0.2343
15393TIP3   OH267593   1.940   0.954   4.958 -0.1794 -0.1639  0.7203
15393TIP3    H167594   1.964   0.863   4.945 -2.0815 -0.9204  2.0750
15393TIP3    H267595   1.869   0.970   4.895  0.1123  0.3584  0.5209
15394TIP3   OH267596   2.769   3.674   1.132  0.0707  0.5291  0.3166
15394TIP3    H167597   2.728   3.750   1.090  1.6632  0.8585 -0.7058
15394TIP3    H267598   2.701   3.640   1.190 -1.7640  0.8890 -1.4924
15395TIP3   OH267599   3.778   6.023  12.611 -0.0407  0.0920  0.0831
15395TIP3    H167600   3.745   5.994  12.526  2.1149  2.2299 -1.6210
15395TIP3    H267601   3.841   6.092  12.590  1.9357 -0.5150  3.3211
15396TIP3   OH267602   5.637   2.932   3.949 -0.3974  0.5556  0.4652
15396TIP3    H167603   5.710   2.969   3.899 -1.0563  2.4465  0.7911
15396TIP3    H267604   5.613   2.852   3.902 -1.0877  2.2960 -2.3908
15397TIP3   OH267605   3.082   5.101   1.045  0.4257 -0.1414 -0.3524
15397TIP3    H167606   3.161   5.090   1.098  1.4450  0.0333 -1.7602
15397TIP3    H267607   3.050   5.011   1.031  0.7187 -0.2616 -0.2622
15398TIP3   OH267608   1.719   4.908   4.446  0.1463  0.3066 -0.5717
15398TIP3    H167609   1.784   4.892   4.377  0.0809  1.7872 -1.0018
15398TIP3    H267610   1.647   4.953   4.402 -1.5169 -1.8481 -0.2318
15399TIP3   OH267611   1.769   4.910   2.250 -0.1220 -0.5885 -0.6633
15399TIP3    H167612   1.696   4.883   2.194 -0.8016 -1.8423  0.7890
15399TIP3    H267613   1.822   4.967   2.193 -1.3693 -0.9160 -2.2288
15400TIP3   OH267614   4.351   2.733   1.727  0.1697 -0.2127 -0.3881
15400TIP3    H167615   4.375   2.780   1.647  0.3240  1.6917  0.7095
15400TIP3    H267616   4.378   2.792   1.798  1.7237 -2.6281  1.1501
15401TIP3   OH267617   6.462   6.564  12.858 -0.2626  0.5143  0.3542
15401TIP3    H167618   6.474   6.480  12.814 -0.6749  0.6026  0.0682
15401TIP3    H267619   6.520   6.559  12.934  0.1524  0.2020  0.0261
15402TIP3   OH267620   4.109   1.462   1.900  0.1629 -0.0657 -0.0138
15402TIP3    H167621   4.131   1.385   1.953  0.2490  0.5517  0.8819
15402TIP3    H267622   4.192   1.511   1.895 -0.6950  1.9503  2.8249
15403TIP3   OH267623   1.785   6.311   1.839 -0.3633  0.1657 -0.3397
15403TIP3    H167624   1.719   6.245   1.818 -2.1624  2.0191 -0.8583
15403TIP3    H267625   1.742   6.368   1.903  0.3758  1.9147 -1.3310
15404TIP3   OH267626   3.329   6.524  16.401  0.1608  0.0476  0.3695
15404TIP3    H167627   3.417   6.559  16.382  0.4655  0.2755  2.0792
15404TIP3    H267628   3.345   6.455  16.465 -1.0688  1.4351  2.2519
15405TIP3   OH267629   4.607   1.652  16.015  0.6310 -0.2152  0.0881
15405TIP3    H167630   4.697   1.652  15.982  1.4636 -0.3526  2.1836
15405TIP3    H267631   4.570   1.735  15.984  1.0891 -0.6509 -1.7211
15406TIP3   OH267632   6.545   5.472   0.493 -0.4277 -0.1614 -0.0573
15406TIP3    H167633   6.560   5.462   0.586  1.8046  0.4628 -0.2934
15406TIP3    H267634   6.489   5.398   0.469 -1.1646 -0.2427  1.7709
15407TIP3   OH267635   5.316   4.777   3.067  0.2779 -0.0723 -0.8743
15407TIP3    H167636   5.232   4.768   3.021  0.7471  0.3012 -1.8359
15407TIP3    H267637   5.380   4.786   2.997  1.0666  0.1327 -0.1357
15408TIP3   OH267638   5.864   2.481   4.669 -0.0747  0.2932 -0.2145
15408TIP3    H167639   5.947   2.525   4.687  0.0117  0.1074 -0.1516
15408TIP3    H267640   5.886   2.417   4.601  0.0383 -0.3967  0.4497
15409TIP3   OH267641   0.024   1.540   4.589 -0.5139 -0.0372  0.9153
15409TIP3    H167642   0.063   1.559   4.674  0.1106 -0.6251  0.7730
15409TIP3    H267643  -0.057   1.591   4.588 -1.2157 -1.0169  2.4126
15410TIP3   OH267644   0.393   1.981   4.849  0.3401  0.5071  0.4838
15410TIP3    H167645   0.420   1.926   4.922 -0.9926 -0.6955  0.1036
15410TIP3    H267646   0.475   2.005   4.806  0.9413 -1.9882  0.0965
15411TIP3   OH267647   3.951   4.673  13.219 -0.1676 -0.4831  0.3988
15411TIP3    H167648   3.975   4.659  13.310  0.0623 -0.4616  0.3417
15411TIP3    H267649   3.973   4.765  13.202 -0.6498 -0.3547  0.4569
15412TIP3   OH267650   0.540   3.009   5.518  0.5337  0.5313 -0.0670
15412TIP3    H167651   0.489   3.038   5.593 -0.2453 -3.0242  0.9520
15412TIP3    H267652   0.480   2.955   5.467  2.0887 -0.2162 -1.1885
15413TIP3   OH267653   1.560   2.948   4.221  0.0298 -0.0856 -0.3819
15413TIP3    H167654   1.592   2.900   4.297 -0.7449  0.8647  0.5803
15413TIP3    H267655   1.632   2.944   4.158  1.5779  0.9225  1.2198
15414TIP3   OH267656   3.045   1.734   4.918 -0.5690  0.1984  0.1119
15414TIP3    H167657   3.009   1.687   4.993 -0.5076  2.2442  1.5152
15414TIP3    H267658   3.003   1.820   4.922  1.2058  1.1505 -0.8120
15415TIP3   OH267659   5.225   1.242  12.490  0.5133  0.4298  0.1941
15415TIP3    H167660   5.307   1.259  12.442  0.0191 -0.8587 -1.1799
15415TIP3    H267661   5.168   1.199  12.426 -0.2115 -1.3078  1.9049
15416TIP3   OH267662   6.284   4.702   3.327  0.7970 -0.5466  0.4349
15416TIP3    H167663   6.278   4.693   3.422  2.3340  0.7805  0.6998
15416TIP3    H267664   6.309   4.615   3.296  0.6814 -0.8920  1.2864
15417TIP3   OH267665   0.032   0.476  11.771 -0.7133  0.0997 -0.3081
15417TIP3    H167666   0.002   0.566  11.759  0.8300  0.4875 -1.4850
15417TIP3    H267667   0.032   0.464  11.866 -1.8328  1.0001 -0.1707
15418TIP3   OH267668   4.591   4.081  11.417 -0.2285 -0.6085 -0.0226
15418TIP3    H167669   4.656   4.136  11.374 -0.8926 -1.6559 -2.5297
15418TIP3    H267670   4.642   4.009  11.455  0.3527  0.2026  0.7648
15419TIP3   OH267671   3.247   5.416  12.327 -1.2359  0.1533  0.2908
15419TIP3    H167672   3.269   5.431  12.235  2.4957 -0.8687  0.8381
15419TIP3    H267673   3.287   5.489  12.374  0.7135 -1.4862  1.3530
15420TIP3   OH267674   0.273   0.412  14.498  0.1340  0.3837  0.2200
15420TIP3    H167675   0.261   0.501  14.531 -0.0182 -0.0802  1.4672
15420TIP3    H267676   0.184   0.380  14.482  0.1028 -0.0220  1.1331
15421TIP3   OH267677   4.477   2.521  13.207  0.0448 -1.1228  0.6896
15421TIP3    H167678   4.451   2.589  13.146 -1.8046 -1.6258  0.8668
15421TIP3    H267679   4.407   2.519  13.273  1.0879 -1.8008  1.8307
15422TIP3   OH267680   0.240   3.060   4.805 -0.2010 -0.1217 -0.2799
15422TIP3    H167681   0.244   3.058   4.709  0.2808 -0.0454 -0.2666
15422TIP3    H267682   0.295   2.986   4.832 -1.4890 -1.0307 -0.0798
15423TIP3   OH267683   5.303   5.709   2.545 -0.5263 -0.1148  0.6918
15423TIP3    H167684   5.218   5.715   2.587 -1.1448  0.3214 -0.5801
15423TIP3    H267685   5.330   5.800   2.531 -0.5576 -0.2427 -0.2742
15424TIP3   OH267686   3.104   5.034  11.326  0.6298  0.1554 -0.0315
15424TIP3    H167687   3.188   5.058  11.366  1.8259 -2.1937 -0.9623
15424TIP3    H267688   3.126   4.965  11.264 -1.6129  1.3613 -2.3663
15425TIP3   OH267689   5.959   4.487  11.582  0.5300  0.4165 -0.0812
15425TIP3    H167690   5.903   4.412  11.563  0.5812  0.4646 -0.4201
15425TIP3    H267691   5.959   4.493  11.678 -1.4122  1.4300 -0.0871
15426TIP3   OH267692   5.267   2.923  16.555 -0.8831  0.5456  0.2592
15426TIP3    H167693   5.195   2.966  16.603 -0.0794  0.6231  1.4316
15426TIP3    H267694   5.302   2.992  16.499 -0.9317  0.8500  0.5994
15427TIP3   OH267695   1.271   1.633  14.200  0.1430  0.7945 -0.2947
15427TIP3    H167696   1.334   1.619  14.129 -2.1156  1.4706 -2.6139
15427TIP3    H267697   1.186   1.614  14.160 -1.3633  2.5187  1.8502
15428TIP3   OH267698   2.679   0.486  14.820 -0.2394  0.3844 -0.1693
15428TIP3    H167699   2.678   0.400  14.779 -1.6420  0.0588  0.5093
15428TIP3    H267700   2.641   0.545  14.755 -1.1114  0.1261  0.0954
15429TIP3   OH267701   1.811   3.582   5.259 -0.3593 -0.4128 -0.2496
15429TIP3    H167702   1.794   3.638   5.335 -0.3351 -0.5974 -0.1055
15429TIP3    H267703   1.809   3.641   5.184 -1.5090 -0.4082 -0.2287
15430TIP3   OH267704   3.950   5.206   0.666 -0.2996  0.1336  0.4576
15430TIP3    H167705   3.946   5.189   0.572 -2.8288  1.3859  0.2679
15430TIP3    H267706   3.862   5.186   0.698  0.1094  1.0837  2.3166
15431TIP3   OH267707   4.446   6.060   0.820 -0.7805 -0.0547 -0.1195
15431TIP3    H167708   4.355   6.089   0.826 -1.1708 -0.6410 -2.2639
15431TIP3    H267709   4.473   6.083   0.731  0.8619 -0.7554  0.1486
15432TIP3   OH267710   4.759   3.603  13.317  0.7783 -0.3501 -0.3415
15432TIP3    H167711   4.744   3.631  13.227  0.5696 -0.6997 -0.4187
15432TIP3    H267712   4.747   3.508  13.314  0.1487 -0.2954  0.1707
15433TIP3   OH267713   5.500   1.088   2.075  0.0032  0.1164 -0.3552
15433TIP3    H167714   5.535   1.157   2.131  2.1361 -0.8224 -0.4421
15433TIP3    H267715   5.503   1.009   2.129  1.1144 -0.6043 -1.4150
15434TIP3   OH267716   0.113   4.399  13.518 -0.4299 -0.4811 -0.1964
15434TIP3    H167717   0.164   4.451  13.456  0.0862  1.3125  1.6446
15434TIP3    H267718   0.156   4.411  13.602 -0.3927 -3.8353  0.4192
15435TIP3   OH267719   1.417   1.191  12.003 -0.5165  0.2392  0.1680
15435TIP3    H167720   1.410   1.283  12.026 -0.2823  0.0740  0.9097
15435TIP3    H267721   1.415   1.145  12.086  2.8403 -0.2499  0.0956
15436TIP3   OH267722   4.035   0.577  12.632  0.0535  0.2773 -0.3591
15436TIP3    H167723   3.966   0.552  12.694 -0.5590 -0.8263 -1.4485
15436TIP3    H267724   4.007   0.661  12.597  0.8511  1.3723  1.4663
15437TIP3   OH267725   4.362   3.157   6.848  0.6227  0.1799  0.0168
15437TIP3    H167726   4.440   3.114   6.812 -0.5768 -0.0489 -2.5558
15437TIP3    H267727   4.379   3.251   6.839  1.3151  0.1720  1.1644
15438TIP3   OH267728   3.675   0.469   1.690 -0.1121  0.4728  0.0604
15438TIP3    H167729   3.675   0.374   1.704  1.4414  0.3904 -0.3400
15438TIP3    H267730   3.754   0.500   1.735 -0.2445  1.4866 -0.3826
15439TIP3   OH267731   5.441   3.896  14.160  0.2317  0.2123  0.2717
15439TIP3    H167732   5.402   3.833  14.219  0.6302 -0.4216 -0.1325
15439TIP3    H267733   5.383   3.972  14.164  0.7350  0.5481  2.1677
15440TIP3   OH267734   4.032   0.335   5.195  0.1152 -0.2297  0.2908
15440TIP3    H167735   4.115   0.382   5.188 -0.6248  0.8927 -1.7477
15440TIP3    H267736   3.970   0.390   5.147 -1.4234 -1.9095  0.2784
15441TIP3   OH267737   2.243   1.765   3.041 -0.2734 -0.2215 -0.0817
15441TIP3    H167738   2.282   1.701   2.981  0.9961 -0.2377  0.7292
15441TIP3    H267739   2.150   1.762   3.020 -0.0455 -1.2088 -1.1214
15442TIP3   OH267740   3.079   0.269   3.719  0.1606 -0.6139  0.3852
15442TIP3    H167741   3.115   0.351   3.687 -0.0610 -0.7128 -0.1450
15442TIP3    H267742   2.984   0.281   3.716  0.0616 -1.4423 -1.3085
15443TIP3   OH267743   2.952   2.224   6.029  0.4124 -0.1642 -0.6713
15443TIP3    H167744   2.991   2.207   6.114 -1.3189 -3.2683 -0.3352
15443TIP3    H267745   2.887   2.292   6.044 -0.0956 -0.9066  0.5979
15444TIP3   OH267746   4.556   1.146  13.563  0.2446 -0.0174  0.1129
15444TIP3    H167747   4.580   1.162  13.471 -1.0774  0.3764 -0.1892
15444TIP3    H267748   4.606   1.068  13.587  2.6499  1.3545 -0.0972
15445TIP3   OH267749   5.751   1.855  15.046  0.1728 -0.1731 -0.3059
15445TIP3    H167750   5.836   1.884  15.011  0.8290 -2.6278 -0.9160
15445TIP3    H267751   5.712   1.804  14.974 -1.0965 -0.4470  0.5469
15446TIP3   OH267752   0.340   5.965  15.463  0.3760  0.4078  0.6683
15446TIP3    H167753   0.256   5.942  15.502  0.1514 -2.4929 -1.2254
15446TIP3    H267754   0.320   5.986  15.372  1.4677  2.1843  0.7847
15447TIP3   OH267755   5.900   4.535  13.107  0.4076  0.5719  0.1496
15447TIP3    H167756   5.895   4.626  13.138  0.0096  0.4160  0.5426
15447TIP3    H267757   5.840   4.532  13.033  2.2998  1.2797 -1.5301
15448TIP3   OH267758   3.805   2.639   3.342  0.2846  0.0955  0.6775
15448TIP3    H167759   3.742   2.615   3.274  0.8272  0.2736  0.1063
15448TIP3    H267760   3.847   2.718   3.309 -1.3815  1.8644  2.4558
15449TIP3   OH267761   1.510   3.353   5.270 -0.7860  0.1532 -0.2127
15449TIP3    H167762   1.508   3.380   5.178  1.2531  0.9379 -0.0573
15449TIP3    H267763   1.533   3.432   5.318  1.3593 -0.9319  0.6489
15450TIP3   OH267764   3.659   5.482  13.287  0.6409  0.2060  0.7433
15450TIP3    H167765   3.573   5.456  13.319  0.3908  0.1151  0.0211
15450TIP3    H267766   3.716   5.408  13.308  0.4926  0.1665  1.0083
15451TIP3   OH267767   2.915   6.127  15.759 -0.5312 -0.0581 -0.5134
15451TIP3    H167768   2.981   6.174  15.810 -0.8422 -0.9956  0.7907
15451TIP3    H267769   2.887   6.191  15.693 -1.7490  2.0776  1.8601
15452TIP3   OH267770   2.124   0.097  11.022 -0.2578 -0.2568  0.6056
15452TIP3    H167771   2.138   0.058  10.936 -0.1865  1.5695 -0.2473
15452TIP3    H267772   2.201   0.151  11.037 -0.7613  0.2731  1.3487
15453TIP3   OH267773   0.871   5.507  15.137 -0.1885  0.1397  0.1892
15453TIP3    H167774   0.910   5.473  15.056 -0.4904  3.5103 -1.5625
15453TIP3    H267775   0.946   5.530  15.192  0.0176 -2.2860  1.0584
15454TIP3   OH267776   2.053   5.661   1.064  1.2185  0.2388 -0.4463
15454TIP3    H167777   2.032   5.723   1.134  0.6555 -0.6264  0.1741
15454TIP3    H267778   1.981   5.598   1.066  1.1498  0.2375 -1.8648
15455TIP3   OH267779   5.929   1.694   3.095  0.3169  0.2690 -0.0770
15455TIP3    H167780   5.843   1.706   3.054  0.7489  1.4895 -0.6740
15455TIP3    H267781   5.931   1.601   3.119 -0.8760  0.0500 -0.7213
15456TIP3   OH267782   2.957   3.251   2.560 -0.3213  0.2348 -0.3587
15456TIP3    H167783   2.912   3.192   2.499 -2.3308 -0.7572  1.9444
15456TIP3    H267784   2.996   3.194   2.626 -1.4793  1.3811  1.4000
15457TIP3   OH267785   2.031   2.516   5.923 -0.0798  0.0323 -0.0150
15457TIP3    H167786   2.007   2.511   5.830  2.1262  0.9677 -0.7253
15457TIP3    H267787   1.954   2.552   5.966 -0.6037  1.2100 -1.8062
15458TIP3   OH267788   2.411   0.791   1.011 -0.1581  0.3054  0.1778
15458TIP3    H167789   2.420   0.863   1.074 -0.1070 -0.9206  1.6245
15458TIP3    H267790   2.322   0.759   1.024 -0.2720  0.2638 -0.6530
15459TIP3   OH267791   4.076   1.704  14.588  0.1539  0.1767 -0.1034
15459TIP3    H167792   4.104   1.767  14.654 -0.4805 -0.2514  0.5912
15459TIP3    H267793   3.990   1.675  14.618  0.1129 -0.4596 -0.8143
15460TIP3   OH267794   6.221   4.876   5.570 -0.3066  0.6969 -0.2755
15460TIP3    H167795   6.165   4.808   5.609  2.1967 -2.1226 -1.2064
15460TIP3    H267796   6.167   4.915   5.501 -1.5399 -1.1193 -0.4159
15461TIP3   OH267797   2.333   0.252  12.580  0.5631 -0.4043  0.5175
15461TIP3    H167798   2.328   0.180  12.643 -1.4398  0.2629  1.2003
15461TIP3    H267799   2.346   0.330  12.634  0.6413 -0.0244 -0.0472
15462TIP3   OH267800   0.952   1.786  15.004  0.3150 -0.4455  0.3061
15462TIP3    H167801   0.876   1.831  15.040 -0.7394 -0.9867 -1.1423
15462TIP3    H267802   1.026   1.820  15.054 -0.7248  1.0283  0.9128
15463TIP3   OH267803   6.734   5.013   5.762 -0.1633 -0.2914  0.4301
15463TIP3    H167804   6.749   5.074   5.834  0.5421  0.9580 -0.7271
15463TIP3    H267805   6.789   5.046   5.691  0.0447 -2.1588 -0.3202
15464TIP3   OH267806   2.578   6.359   4.023 -0.6736  0.0393 -0.0392
15464TIP3    H167807   2.610   6.424   4.086 -0.6293  0.1456 -0.1699
15464TIP3    H267808   2.655   6.304   4.006 -0.8214 -0.2957  0.3806
15465TIP3   OH267809   6.173   1.880   1.870 -0.6000 -0.7638  0.3006
15465TIP3    H167810   6.084   1.911   1.859 -1.2615 -2.8583 -0.7031
15465TIP3    H267811   6.226   1.960   1.874 -2.6002  0.6055  2.4625
15466TIP3   OH267812   1.469   6.122  14.602  0.4849 -0.1996 -0.2122
15466TIP3    H167813   1.437   6.071  14.528  0.9031 -0.9369  0.1082
15466TIP3    H267814   1.478   6.059  14.673 -0.2424  0.5568  0.5801
15467TIP3   OH267815   4.525   6.551   5.841 -0.1064 -0.4107  0.2588
15467TIP3    H167816   4.473   6.632   5.847 -0.3051 -0.4068 -1.1288
15467TIP3    H267817   4.478   6.489   5.897 -0.0341  0.3821  1.2293
15468TIP3   OH267818   0.003   4.215   3.956  0.2379 -0.2317  0.0079
15468TIP3    H167819  -0.072   4.184   3.904 -0.9643 -2.5202  2.7992
15468TIP3    H267820   0.067   4.144   3.950  0.2144 -0.3809  1.3033
15469TIP3   OH267821   6.126   5.680  15.276 -0.0429 -1.1419  0.0971
15469TIP3    H167822   6.083   5.766  15.280 -2.5282 -2.2994  0.0028
15469TIP3    H267823   6.093   5.633  15.353 -0.2702 -2.6340 -0.8664
15470TIP3   OH267824   4.729   2.802  16.068 -0.2493 -0.5641  0.2396
15470TIP3    H167825   4.703   2.768  16.154  4.0503  1.7910  2.7886
15470TIP3    H267826   4.693   2.890  16.066 -0.2257 -0.5664 -0.3447
15471TIP3   OH267827   3.707   2.091   1.705  0.1812  0.4135 -0.0138
15471TIP3    H167828   3.780   2.129   1.655  0.5513 -0.4390 -0.1483
15471TIP3    H267829   3.750   2.040   1.773 -0.1563 -2.1896 -1.6048
15472TIP3   OH267830   5.211   0.801   5.495  0.2647 -0.0339 -0.3588
15472TIP3    H167831   5.202   0.824   5.588  1.4912 -2.1151  0.3317
15472TIP3    H267832   5.283   0.738   5.493  0.0583 -0.2637 -2.7035
15473TIP3   OH267833   0.121   4.547   3.695  0.2843  0.3317  0.1442
15473TIP3    H167834   0.071   4.620   3.730 -0.0828 -0.4676  1.3431
15473TIP3    H267835   0.055   4.491   3.653  0.2492 -0.3539  1.0822
15474TIP3   OH267836   0.762   3.380  16.269  0.2046  0.0725  0.2213
15474TIP3    H167837   0.704   3.336  16.207 -1.6315  1.9368  0.5182
15474TIP3    H267838   0.733   3.349  16.355 -0.4802  1.0911  0.3769
15475TIP3   OH267839   2.206   3.945  13.299  0.2287  0.9204 -0.0118
15475TIP3    H167840   2.190   3.878  13.366 -0.9375  1.1236 -0.0733
15475TIP3    H267841   2.279   3.910  13.248 -0.2592 -0.2422  0.0505
15476TIP3   OH267842   4.883   5.086  15.334 -0.1857  0.1070  0.2313
15476TIP3    H167843   4.944   5.096  15.407 -0.2050  1.7039  0.0617
15476TIP3    H267844   4.888   4.993  15.311  2.9890  0.3621 -0.4717
15477TIP3   OH267845   0.578   2.087  12.825  0.1392  0.4361  0.3898
15477TIP3    H167846   0.529   2.164  12.797 -0.5322 -0.1141  0.0412
15477TIP3    H267847   0.541   2.063  12.909  1.6798  1.6594  1.4783
15478TIP3   OH267848   5.427   0.709   0.402 -0.4676 -1.0316  0.2055
15478TIP3    H167849   5.468   0.777   0.456  0.9187 -1.9055  0.3188
15478TIP3    H267850   5.412   0.636   0.462 -0.5093 -1.3846 -0.2290
15479TIP3   OH267851   1.627   4.695  14.141  1.0207  0.2829  0.3374
15479TIP3    H167852   1.594   4.677  14.229  1.9926 -1.6518  0.3684
15479TIP3    H267853   1.718   4.665  14.144  0.9818 -0.1199 -1.3966
15480TIP3   OH267854   2.010   2.497  14.653 -0.5161 -0.4122 -0.0992
15480TIP3    H167855   1.962   2.414  14.648 -2.7674  0.7744  0.2016
15480TIP3    H267856   2.022   2.524  14.561  0.8678 -1.3709 -0.2245
15481TIP3   OH267857   3.083   3.631   6.273 -0.7981 -0.1868  0.2212
15481TIP3    H167858   3.027   3.556   6.254 -0.9460  0.1040 -0.5525
15481TIP3    H267859   3.152   3.596   6.330 -0.4973 -1.0672 -0.6517
15482TIP3   OH267860   6.245   5.887   0.387  0.1081  0.1699  1.3067
15482TIP3    H167861   6.312   5.932   0.334 -1.4186 -1.1877 -2.0907
15482TIP3    H267862   6.282   5.801   0.405  0.1370  0.1976  1.3797
15483TIP3   OH267863   3.078   0.158   2.514  0.1972  0.2131 -0.7122
15483TIP3    H167864   3.023   0.195   2.583 -0.3944  1.6243 -1.8855
15483TIP3    H267865   3.139   0.101   2.561 -2.3329 -1.6195  0.6389
15484TIP3   OH267866   0.052   0.674   0.923 -0.1901  0.4759  0.0181
15484TIP3    H167867   0.095   0.605   0.872 -2.5710  1.0538 -3.0789
15484TIP3    H267868   0.001   0.627   0.989 -0.6284 -0.6734 -1.0989
15485TIP3   OH267869   5.632   0.649   1.190 -0.1497  0.1053 -0.2295
15485TIP3    H167870   5.603   0.738   1.170 -0.3934  0.0889  0.0384
15485TIP3    H267871   5.726   0.657   1.206 -0.4782  0.6654  1.7237
15486TIP3   OH267872   6.290   4.232   3.454  0.1212  0.0688  0.2154
15486TIP3    H167873   6.229   4.226   3.528 -1.0443 -1.3638 -0.8028
15486TIP3    H267874   6.234   4.252   3.379  0.5024 -3.2628 -1.1222
15487TIP3   OH267875   3.066   3.847  12.181 -0.1330  0.1664  0.5260
15487TIP3    H167876   3.125   3.781  12.144  0.4945  0.9475  0.1028
15487TIP3    H267877   3.029   3.805  12.259  1.5558 -0.0661  1.2248
15488TIP3   OH267878   4.282   5.240   6.701  0.0446  1.0994  0.5441
15488TIP3    H167879   4.306   5.216   6.611 -1.2750  0.8958  0.2247
15488TIP3    H267880   4.317   5.169   6.755 -0.3829  0.4796  0.0256
15489TIP3   OH267881   5.413   0.289   4.907 -0.2423 -0.6935  0.2335
15489TIP3    H167882   5.486   0.331   4.861 -0.2803 -0.7079  0.1607
15489TIP3    H267883   5.400   0.343   4.985 -0.8177 -0.1035 -0.2635
15490TIP3   OH267884   2.633   2.191   1.782 -0.4252 -0.3745  0.1010
15490TIP3    H167885   2.566   2.133   1.747 -0.6931  0.1809 -0.3109
15490TIP3    H267886   2.586   2.246   1.846 -0.5937  0.7150 -0.9332
15491TIP3   OH267887   1.822   2.205   1.099  0.4985 -0.2241 -0.3751
15491TIP3    H167888   1.752   2.141   1.104 -0.6967  1.1518  2.6516
15491TIP3    H267889   1.892   2.169   1.153 -0.2717  0.9949  1.5426
15492TIP3   OH267890   6.383   3.326  16.173 -0.2836 -0.0437  0.2961
15492TIP3    H167891   6.341   3.410  16.153 -1.2765 -0.6817 -0.4154
15492TIP3    H267892   6.318   3.260  16.147  2.1403 -1.2305 -3.4898
15493TIP3   OH267893   0.798   6.008  14.725  1.0254  0.3530 -0.7956
15493TIP3    H167894   0.813   5.949  14.652 -0.4840 -0.6351 -0.3514
15493TIP3    H267895   0.715   5.980  14.762  1.0865  1.7063  0.4652
15494TIP3   OH267896   5.604   0.898   5.341 -0.2177  0.0644  0.1258
15494TIP3    H167897   5.545   0.934   5.275  0.8082 -1.0760 -1.4755
15494TIP3    H267898   5.585   0.805   5.343 -0.6805  0.1463  1.9673
15495TIP3   OH267899   4.836   0.513  12.043  0.0927  0.1149  0.5275
15495TIP3    H167900   4.918   0.539  12.086  0.1459 -0.5806  0.8749
15495TIP3    H267901   4.808   0.591  11.995  1.1066  0.2817  0.1726
15496TIP3   OH267902   5.920   3.588   4.608 -0.3428  0.1714 -0.9034
15496TIP3    H167903   5.990   3.533   4.643 -0.8452  0.5046  0.6805
15496TIP3    H267904   5.876   3.532   4.544 -1.5195 -1.7296  1.3941
15497TIP3   OH267905   3.283   0.131   3.823 -1.0328  0.1699 -0.0578
15497TIP3    H167906   3.247   0.209   3.779  0.3509  0.8159 -0.0829
15497TIP3    H267907   3.339   0.090   3.757 -0.9770 -0.3074  0.2843
15498TIP3   OH267908   2.519   1.695   3.619  0.3581  0.1504  0.0176
15498TIP3    H167909   2.571   1.615   3.615 -0.2820 -0.2342 -2.4937
15498TIP3    H267910   2.496   1.704   3.711 -1.0551 -3.5740  0.2164
15499TIP3   OH267911   2.752   4.161  16.739  0.1305  0.3573  0.3156
15499TIP3    H167912   2.659   4.140  16.733  0.5749 -1.8956  0.3816
15499TIP3    H267913   2.779   4.176  16.648 -0.3356  1.3315  0.3247
15500TIP3   OH267914   6.341   5.837  14.824 -0.1826 -0.1392  0.6191
15500TIP3    H167915   6.284   5.905  14.860 -0.9525 -0.5474  0.1908
15500TIP3    H267916   6.387   5.880  14.752 -0.1499  0.1117  0.7864
15501TIP3   OH267917   0.061   2.178  14.136 -0.2853  0.2727 -0.1081
15501TIP3    H167918   0.035   2.087  14.153  0.4875  0.2373  0.9939
15501TIP3    H267919   0.144   2.170  14.088  1.4272  0.3260  2.6316
15502TIP3   OH267920   2.134   3.130  14.463  0.2169 -0.2856 -0.0628
15502TIP3    H167921   2.139   3.039  14.435 -2.1081 -0.3167 -0.5651
15502TIP3    H267922   2.147   3.180  14.383 -0.8597 -0.2561 -0.2348
15503TIP3   OH267923   5.750   3.284  16.315  0.1730  0.0893 -0.3591
15503TIP3    H167924   5.818   3.220  16.333  1.4534  1.5214  0.0460
15503TIP3    H267925   5.767   3.312  16.225 -1.6119 -1.5215 -1.2937
15504TIP3   OH267926   2.825   5.780  14.041 -0.1423  0.1099 -0.6566
15504TIP3    H167927   2.770   5.761  13.965 -0.9143 -0.5710  0.0588
15504TIP3    H267928   2.870   5.698  14.061  0.2453  0.3491 -0.5181
15505TIP3   OH267929   1.815   5.152  14.457  0.1561 -0.6056  0.0335
15505TIP3    H167930   1.841   5.061  14.469  0.9669 -0.7272 -2.2548
15505TIP3    H267931   1.724   5.155  14.488  0.5746 -1.8056  1.5139
15506TIP3   OH267932   3.941   6.007   2.319 -0.9170 -0.0732 -0.5376
15506TIP3    H167933   3.936   6.063   2.397 -1.1524 -0.5991 -0.1680
15506TIP3    H267934   4.023   5.958   2.330 -0.4336  0.5848 -1.1312
15507TIP3   OH267935   1.942   2.919   1.678 -0.5344  0.3390  0.5894
15507TIP3    H167936   1.935   2.992   1.618 -1.7778 -1.2149 -1.2534
15507TIP3    H267937   2.033   2.922   1.709  0.7736  0.1544 -2.8262
15508TIP3   OH267938   2.975   4.993  13.357 -0.1717 -0.6221 -0.1659
15508TIP3    H167939   2.989   5.067  13.417  2.0654 -1.7219  0.7927
15508TIP3    H267940   3.048   4.999  13.295  0.0060 -1.9721 -0.1039
15509TIP3   OH267941   6.698   6.664   4.214  0.0642 -0.9624  0.0246
15509TIP3    H167942   6.755   6.612   4.271  0.7474 -0.5893 -0.3008
15509TIP3    H267943   6.635   6.600   4.180 -0.9289 -1.0208  1.8719
15510TIP3   OH267944   0.118   1.344  11.433 -0.6501  0.0976  0.2307
15510TIP3    H167945   0.197   1.310  11.391  1.2745  2.5167  1.5883
15510TIP3    H267946   0.076   1.267  11.471  1.5376 -1.2051  0.1950
15511TIP3   OH267947   6.116   1.842   3.510  0.0935 -0.2285 -0.5221
15511TIP3    H167948   6.103   1.750   3.484 -3.5335 -0.0802  0.1376
15511TIP3    H267949   6.146   1.837   3.601  0.6278 -0.7410 -0.7168
15512TIP3   OH267950   5.243   1.414  14.722  0.2652  0.3744 -0.2829
15512TIP3    H167951   5.288   1.446  14.801  0.8289 -0.1353 -0.3897
15512TIP3    H267952   5.150   1.421  14.743  0.2907  3.0535 -0.6682
15513TIP3   OH267953   5.386   2.936  17.297 -0.2227 -0.4753  0.9467
15513TIP3    H167954   5.322   2.997  17.333 -0.5950 -0.7876  0.8189
15513TIP3    H267955   5.464   2.989  17.281 -0.2441 -0.2138  1.6801
15514TIP3   OH267956   5.925   3.510  13.407  0.2457 -0.1853  0.0654
15514TIP3    H167957   5.967   3.554  13.333 -0.2440  0.8963  0.4094
15514TIP3    H267958   5.948   3.417  13.397  2.5831  0.3317  0.1725
15515TIP3   OH267959   2.981   2.456   3.315 -0.3450  0.9531 -1.0511
15515TIP3    H167960   2.982   2.414   3.402 -0.6329  1.1194 -0.9674
15515TIP3    H267961   2.929   2.397   3.261  1.5657 -0.2492 -1.6704
15516TIP3   OH267962   1.822   2.514   4.566  0.0509  0.0421 -0.3486
15516TIP3    H167963   1.893   2.560   4.611 -0.1308 -0.5690  0.5944
15516TIP3    H267964   1.840   2.422   4.581 -0.1545 -0.1744 -1.3505
15517TIP3   OH267965   2.540   4.109   3.193  0.3668  1.0734 -0.4946
15517TIP3    H167966   2.494   4.047   3.136  0.6316 -0.1029  0.5365
15517TIP3    H267967   2.476   4.131   3.260  1.4522 -1.2063  1.4259
15518TIP3   OH267968   0.601   1.809  16.812  0.0478  0.5998 -0.2444
15518TIP3    H167969   0.631   1.844  16.728 -2.1157  3.5703  0.0621
15518TIP3    H267970   0.660   1.848  16.877  1.5620 -1.4940 -0.2945
15519TIP3   OH267971   6.452   6.234   3.760  0.8056  0.3377  0.2191
15519TIP3    H167972   6.464   6.245   3.666  0.2839 -0.5417  0.0379
15519TIP3    H267973   6.444   6.140   3.773  3.8934  0.1405  1.5585
15520TIP3   OH267974   0.255   4.353   0.002  0.4165 -0.0394  0.2369
15520TIP3    H167975   0.330   4.410  -0.017  0.2220 -0.4862 -2.1475
15520TIP3    H267976   0.266   4.278  -0.056 -1.9510 -0.0351 -0.3225
15521TIP3   OH267977   3.038   0.616  14.127 -0.8129  0.4880 -0.0341
15521TIP3    H167978   3.095   0.588  14.199  2.1219  0.6132 -2.1152
15521TIP3    H267979   2.951   0.585  14.152  0.3599 -0.9638  2.7362
15522TIP3   OH267980   5.518   0.691  14.811  0.4881  1.0391 -0.2033
15522TIP3    H167981   5.443   0.720  14.863  0.1734 -1.0558  0.6118
15522TIP3    H267982   5.562   0.627  14.866  0.4066 -0.9644 -2.2792
15523TIP3   OH267983   4.516   1.761  16.696 -0.1979  0.0678  0.2742
15523TIP3    H167984   4.577   1.834  16.687 -0.0065  0.0549  1.3177
15523TIP3    H267985   4.432   1.797  16.669 -0.5547  1.3637  2.7631
15524TIP3   OH267986   1.660   3.653   2.136 -0.2713 -0.1441  0.2986
15524TIP3    H167987   1.717   3.684   2.205  0.3924 -0.3299 -0.1575
15524TIP3    H267988   1.689   3.563   2.119  0.1505  0.1887 -0.8155
15525TIP3   OH267989   4.818   0.310  13.578  0.2431  0.0357  0.4460
15525TIP3    H167990   4.803   0.216  13.583 -1.2021  0.1815 -0.5786
15525TIP3    H267991   4.797   0.342  13.666  2.0253 -0.7103  1.2015
15526TIP3   OH267992   2.399   0.735   2.881  0.2532 -0.3640 -0.6843
15526TIP3    H167993   2.466   0.772   2.938 -2.1755  1.2968  1.3071
15526TIP3    H267994   2.383   0.647   2.916 -0.4569  0.2409  0.5552
15527TIP3   OH267995   5.956   6.358  11.181  0.1751 -0.0474 -0.1124
15527TIP3    H167996   5.954   6.397  11.268 -0.7224 -2.0077  0.8012
15527TIP3    H267997   5.896   6.412  11.129 -0.5646  0.1710  0.9419
15528TIP3   OH267998   0.777   6.358   0.088 -0.1916  0.1798 -0.1527
15528TIP3    H167999   0.788   6.364   0.183  1.2350  2.8628 -0.3800
15528TIP3    H268000   0.855   6.311   0.058 -0.1088  0.2832 -0.0975
15529TIP3   OH268001   5.055   0.929   1.178 -0.3900 -0.5382  0.5769
15529TIP3    H168002   5.117   0.999   1.157 -0.8708  0.0792  1.1502
15529TIP3    H268003   4.973   0.956   1.135 -0.8286 -0.2743  1.5383
15530TIP3   OH268004   6.007   5.974  11.965 -0.6076 -0.1088 -0.3164
15530TIP3    H168005   6.019   5.915  11.892 -0.1451  2.8635 -2.8536
15530TIP3    H268006   6.085   6.029  11.965 -2.4282  2.6964 -0.3922
15531TIP3   OH268007   1.150   5.132  16.544  0.0111 -0.2720 -0.1132
15531TIP3    H168008   1.239   5.156  16.518  1.1717 -2.9931  0.9167
15531TIP3    H268009   1.113   5.088  16.467 -0.3440  0.5557 -0.4271
15532TIP3   OH268010   3.541   3.381  13.318  0.4658 -0.1792  0.2568
15532TIP3    H168011   3.509   3.377  13.408  0.9925 -0.4049  0.4408
15532TIP3    H268012   3.620   3.327  13.318  0.0215 -0.8627 -0.5328
15533TIP3   OH268013   6.187   0.953   3.445  0.1795  0.2708 -0.2160
15533TIP3    H168014   6.101   0.914   3.430 -0.5667  1.6701  0.2593
15533TIP3    H268015   6.245   0.879   3.462 -0.3589 -0.9102 -2.9575
15534TIP3   OH268016   2.488   1.595  17.239 -0.1351  0.1915 -0.1305
15534TIP3    H168017   2.420   1.662  17.246 -0.5295 -0.2734  0.8094
15534TIP3    H268018   2.474   1.554  17.154 -1.2862 -0.1470  0.2091
15535TIP3   OH268019   4.948   3.675   4.660 -0.8454  0.3562  0.2842
15535TIP3    H168020   5.018   3.610   4.654 -1.5260 -0.3470 -0.1245
15535TIP3    H268021   4.946   3.717   4.574 -1.3859 -0.1147  0.0611
15536TIP3   OH268022   1.372   2.611   2.541  0.1737 -0.3617  0.2098
15536TIP3    H168023   1.308   2.677   2.566 -0.3199 -0.5130 -0.6044
15536TIP3    H268024   1.431   2.605   2.616 -0.3912  0.2367  0.7181
15537TIP3   OH268025   0.217   1.908   3.991 -0.2641  0.1041  0.3710
15537TIP3    H168026   0.233   1.950   3.907  1.2227 -0.2843  0.4310
15537TIP3    H268027   0.288   1.938   4.048 -1.5716  0.8416  1.6949
15538TIP3   OH268028   6.591   1.916  11.116  0.2729 -0.1431  0.8648
15538TIP3    H168029   6.659   1.976  11.086 -0.0853  0.0943  0.5275
15538TIP3    H268030   6.510   1.948  11.077  0.0718 -0.8425  0.6799
15539TIP3   OH268031   3.873   1.079  15.347  0.0698  0.1108  0.3263
15539TIP3    H168032   3.919   1.160  15.327  0.5787  0.0045  1.0341
15539TIP3    H268033   3.801   1.107  15.405 -1.8023  0.5145 -2.0420
15540TIP3   OH268034   2.302   2.805  13.095 -0.4747  0.4386 -0.4774
15540TIP3    H168035   2.371   2.739  13.084 -1.3726 -0.7830  0.8641
15540TIP3    H268036   2.250   2.773  13.169 -1.0711  2.5592  0.0793
15541TIP3   OH268037   5.345   5.585  16.009  0.4633 -0.9015  0.1045
15541TIP3    H168038   5.395   5.547  16.081  0.9259  1.4789  1.1191
15541TIP3    H268039   5.307   5.665  16.045  0.3568  0.1544 -2.1557
15542TIP3   OH268040   1.138   3.831  11.387  0.8025 -0.2271  0.0340
15542TIP3    H168041   1.155   3.919  11.353  0.9170 -0.2829 -0.0563
15542TIP3    H268042   1.131   3.776  11.308  0.8504 -0.3190  0.0939
15543TIP3   OH268043   0.025   4.923   6.683  0.5363 -0.1414 -0.0142
15543TIP3    H168044   0.095   4.873   6.723  0.1805 -0.9553 -0.3868
15543TIP3    H268045  -0.056   4.884   6.716  0.2459  0.8380  0.4787
15544TIP3   OH268046   4.242   4.604  11.600 -0.3921 -0.1609  0.1070
15544TIP3    H168047   4.282   4.663  11.537 -0.1556 -0.0091  0.3959
15544TIP3    H268048   4.182   4.551  11.549  0.1000 -0.3158 -0.3210
15545TIP3   OH268049   5.012   6.614  13.749 -0.0967 -0.2353 -0.5418
15545TIP3    H168050   4.963   6.599  13.668 -0.9413  1.6379 -0.4335
15545TIP3    H268051   5.073   6.685  13.727  0.2950 -0.3299  0.2171
15546TIP3   OH268052   1.821   3.714   4.993 -0.3339 -0.2184 -0.0671
15546TIP3    H168053   1.779   3.699   4.908 -0.5548 -1.0127  0.1835
15546TIP3    H268054   1.912   3.732   4.971 -0.4348 -0.2033 -0.4854
15547TIP3   OH268055   1.663   1.520   5.688 -0.5260  0.1569  0.4002
15547TIP3    H168056   1.658   1.537   5.594 -1.7831  1.6546  0.6948
15547TIP3    H268057   1.627   1.431   5.698 -1.1824  0.3146 -0.4519
15548TIP3   OH268058   3.493   0.756  11.723  0.1730 -0.3932  0.5254
15548TIP3    H168059   3.584   0.771  11.749  0.4064 -0.1291 -0.3892
15548TIP3    H268060   3.486   0.799  11.637 -1.0369  0.2933  0.9566
15549TIP3   OH268061   6.157   0.002  13.603 -0.7208  0.3458  0.0892
15549TIP3    H168062   6.090  -0.065  13.618 -1.3670  0.7984 -0.7690
15549TIP3    H268063   6.214  -0.035  13.535  0.0674 -0.1387  0.9785
15550TIP3   OH268064   3.105   3.950   4.899  0.4729  0.1225  0.7217
15550TIP3    H168065   3.091   4.017   4.832  1.0776 -0.1798  0.2887
15550TIP3    H268066   3.184   3.905   4.871 -0.9221 -2.0134 -0.0229
15551TIP3   OH268067   5.543   2.293  14.150  0.1914  0.3764 -0.1617
15551TIP3    H168068   5.570   2.203  14.131 -0.5553  0.3110 -1.0043
15551TIP3    H268069   5.448   2.288  14.160  0.1640  1.0377 -0.0313
15552TIP3   OH268070   2.844   6.479  17.241 -0.3334  0.1336 -0.5549
15552TIP3    H168071   2.750   6.497  17.231 -0.7071 -1.2815  0.0600
15552TIP3    H268072   2.880   6.489  17.153 -0.9484  1.2635 -0.6968
15553TIP3   OH268073   0.594   4.120  13.813  0.5680  0.0596  0.3113
15553TIP3    H168074   0.636   4.172  13.882 -0.2215  1.0259  0.0958
15553TIP3    H268075   0.501   4.139  13.823  0.5526  2.1852 -2.4820
15554TIP3   OH268076   6.446   5.119  14.273  0.3368 -0.4781  0.3582
15554TIP3    H168077   6.497   5.057  14.325  1.4467  0.4056  0.3576
15554TIP3    H268078   6.392   5.165  14.337 -0.0154 -0.9933  0.4360
15555TIP3   OH268079   6.046   4.989  15.115 -0.1953  0.9001  0.2218
15555TIP3    H168080   6.121   5.011  15.171  0.4941 -1.0158  0.1290
15555TIP3    H268081   6.046   5.058  15.048  1.0547  1.3194  0.6188
15556TIP3   OH268082   2.404   1.475   2.902  0.3674 -0.8576  0.2776
15556TIP3    H168083   2.475   1.466   2.965  2.3577 -1.2775 -1.8779
15556TIP3    H268084   2.403   1.393   2.853  1.2166  0.6164 -2.4287
15557TIP3   OH268085   1.716   5.755   5.158 -0.0078  0.2875  0.1946
15557TIP3    H168086   1.751   5.822   5.099 -1.9723  2.3415  1.2219
15557TIP3    H268087   1.665   5.804   5.223 -1.3303 -2.2026  1.1628
15558TIP3   OH268088   0.699   0.491  12.441  0.4663 -0.0902 -0.3783
15558TIP3    H168089   0.629   0.519  12.501 -1.1771 -1.1305 -1.7222
15558TIP3    H268090   0.696   0.554  12.369  0.9171 -0.1521 -0.4550
15559TIP3   OH268091   4.724   0.091   5.373 -0.2250 -0.6387 -0.1633
15559TIP3    H168092   4.719   0.120   5.282  0.4728 -0.6338 -0.2078
15559TIP3    H268093   4.637   0.055   5.392 -1.8152  2.9851  0.4026
15560TIP3   OH268094   1.875   6.350   1.544 -0.4009 -0.3392  0.2722
15560TIP3    H168095   1.837   6.343   1.632  0.4321  0.7246  0.7405
15560TIP3    H268096   1.889   6.444   1.531 -0.0768 -0.5195 -0.8139
15561TIP3   OH268097   6.170   6.303  14.060 -0.0393 -0.1516  0.4054
15561TIP3    H168098   6.139   6.222  14.019 -1.9288  0.7799 -0.1483
15561TIP3    H268099   6.244   6.331  14.006 -0.2220 -0.8298 -0.2078
15562TIP3   OH268100   3.912   2.383   5.056  0.1184 -0.3598 -0.0232
15562TIP3    H168101   3.897   2.321   5.128  0.8224  0.3796  0.7771
15562TIP3    H268102   3.893   2.468   5.094 -0.7708 -0.0542 -1.0998
15563TIP3   OH268103   4.372   1.748   2.577  0.3546 -0.7341 -0.5867
15563TIP3    H168104   4.407   1.836   2.590 -2.4581  0.5944 -1.3219
15563TIP3    H268105   4.277   1.757   2.589 -0.0900 -3.6122 -1.0486
15564TIP3   OH268106   0.614   3.267  10.997  0.1065 -0.0285 -0.2716
15564TIP3    H168107   0.526   3.233  10.981 -0.1794  0.3916  0.3808
15564TIP3    H268108   0.660   3.252  10.914 -0.3516 -0.9241 -0.3819
15565TIP3   OH268109   3.072   5.219  15.100 -0.0767  0.5509 -0.5118
15565TIP3    H168110   3.137   5.164  15.055  0.6551  1.4688 -0.5993
15565TIP3    H268111   2.988   5.194  15.061  0.4300  0.5801 -1.6507
15566TIP3   OH268112   3.008   1.523  14.473 -0.1387  0.5886 -0.4261
15566TIP3    H168113   3.036   1.491  14.387 -1.2048 -0.0745 -0.5528
15566TIP3    H268114   2.968   1.608  14.455  0.4019  0.8344 -0.4631
15567TIP3   OH268115   5.968   3.521   3.269 -0.6262 -0.2340  0.1971
15567TIP3    H168116   5.898   3.459   3.251 -1.0276 -0.0171  1.0051
15567TIP3    H268117   5.980   3.568   3.186 -2.2147  0.5145  0.3712
15568TIP3   OH268118   2.429   3.686  16.704 -0.3013 -0.1477  0.3210
15568TIP3    H168119   2.365   3.701  16.773 -0.1393 -0.6141  0.5766
15568TIP3    H268120   2.506   3.737  16.731 -0.9307  1.3331 -0.5453
15569TIP3   OH268121   3.066   1.704  13.497 -0.1443  0.0240 -0.2847
15569TIP3    H168122   3.028   1.620  13.523  1.2156 -0.5064  0.0897
15569TIP3    H268123   2.995   1.751  13.454 -0.6806 -1.6970 -1.3586
15570TIP3   OH268124   2.649   5.616  10.728  0.7062  0.6628  0.0774
15570TIP3    H168125   2.701   5.633  10.650 -0.8265  1.1877 -0.8774
15570TIP3    H268126   2.610   5.530  10.714 -0.7718  1.3930 -0.4664
15571TIP3   OH268127   4.996   1.880   3.994 -0.1039  0.0105 -0.1076
15571TIP3    H168128   4.965   1.971   3.995 -1.4738 -0.4487  0.6325
15571TIP3    H268129   5.009   1.861   3.901 -2.8440 -0.0018 -0.5717
15572TIP3   OH268130   5.844   4.344  15.708  0.0704  0.8790  0.0251
15572TIP3    H168131   5.888   4.345  15.623  0.6197  2.5162  0.3015
15572TIP3    H268132   5.773   4.281  15.697  0.3687  0.7693 -1.5112
15573TIP3   OH268133   4.361   4.420  11.105  0.2711  0.1882 -0.0155
15573TIP3    H168134   4.369   4.376  11.020  0.1488  0.6361 -0.2606
15573TIP3    H268135   4.268   4.443  11.112  0.4388  0.9403 -0.1603
15574TIP3   OH268136   4.521   5.378  16.000  0.1203 -0.3750 -0.4204
15574TIP3    H168137   4.516   5.284  15.986  2.7500 -0.8060  0.9906
15574TIP3    H268138   4.496   5.389  16.092  1.2838  0.0904 -0.1450
15575TIP3   OH268139   3.914   1.876   5.145  0.2277  0.3779  0.4476
15575TIP3    H168140   3.849   1.812   5.116 -0.9712  1.3527  0.8767
15575TIP3    H268141   3.971   1.827   5.205 -0.5443 -0.3388  0.6147
15576TIP3   OH268142   6.755   0.062  14.637  0.2587 -0.4340  0.3012
15576TIP3    H168143   6.822  -0.002  14.611 -0.7630 -2.0507  1.4877
15576TIP3    H268144   6.675   0.032  14.594  0.1625  1.2890 -0.8248
15577TIP3   OH268145   0.642   0.838  14.046  0.2330  0.2531  0.1160
15577TIP3    H168146   0.568   0.781  14.067  0.5745 -0.1153  0.3405
15577TIP3    H268147   0.603   0.923  14.027 -0.1808  0.3899  1.4330
15578TIP3   OH268148   2.272   0.376  10.770  0.6262 -0.0004 -0.4425
15578TIP3    H168149   2.311   0.362  10.684  1.0776 -2.7354  0.1140
15578TIP3    H268150   2.215   0.301  10.783  0.2871  0.5431  1.5129
15579TIP3   OH268151   6.338   4.081  11.346 -0.1505 -0.7890 -0.1893
15579TIP3    H168152   6.433   4.095  11.337 -0.3006  0.4685  0.0046
15579TIP3    H268153   6.306   4.080  11.256 -0.1588  0.5050 -0.2250
15580TIP3   OH268154   0.522   4.067  16.917 -0.2019 -0.2083  0.2559
15580TIP3    H168155   0.563   4.120  16.849 -0.9671 -1.2812 -1.1013
15580TIP3    H268156   0.445   4.028  16.874 -2.8242  1.8446  2.6792
15581TIP3   OH268157   4.036   0.978  12.164  0.2099  0.3368  0.4528
15581TIP3    H168158   4.121   1.005  12.197  0.9649  0.4671 -1.4592
15581TIP3    H268159   3.979   1.053  12.181  1.5045  1.9747 -1.8699
15582TIP3   OH268160   1.565   2.629   2.320 -0.0627 -0.0830  0.0950
15582TIP3    H168161   1.494   2.646   2.382 -1.2612  0.9133 -1.4671
15582TIP3    H268162   1.597   2.542   2.343 -0.6960  0.1090  1.8667
15583TIP3   OH268163   6.751   1.688   1.093 -0.0665 -0.0600 -0.2823
15583TIP3    H168164   6.710   1.675   1.179 -0.3057 -0.1052 -0.4024
15583TIP3    H268165   6.709   1.623   1.037  1.2679 -1.1647 -0.0493
15584TIP3   OH268166   4.829   5.833   0.278 -0.3082  0.0060  0.1405
15584TIP3    H168167   4.833   5.841   0.373 -0.7118 -0.5878  0.2123
15584TIP3    H268168   4.739   5.859   0.256  0.1898  1.5610 -0.2376
15585TIP3   OH268169   3.807   5.595  15.327  1.1814  0.2455 -0.3409
15585TIP3    H168170   3.828   5.675  15.375  0.6483  0.2578 -0.1109
15585TIP3    H268171   3.891   5.557  15.304  1.4565  0.1442  0.7745
15586TIP3   OH268172   3.949   1.025  10.752  0.6564 -0.5019  0.0838
15586TIP3    H168173   4.037   1.003  10.784  1.3851  0.4616 -1.1569
15586TIP3    H268174   3.936   0.967  10.677 -0.2276 -1.3752  0.8862
15587TIP3   OH268175   0.449   2.529   5.958  0.0230  0.2749 -0.1877
15587TIP3    H168176   0.465   2.477   6.037 -1.0624  1.1625  0.6487
15587TIP3    H268177   0.409   2.468   5.896 -2.4680  0.3289  1.2371
15588TIP3   OH268178   5.788   4.046   1.015 -0.6337  0.4965  0.3738
15588TIP3    H168179   5.805   4.131   1.054  1.7924  0.1656  0.2172
15588TIP3    H268180   5.875   4.009   0.999 -1.5966 -2.1269  0.6666
15589TIP3   OH268181   0.468   1.721  17.055  0.0251 -0.5599  0.3059
15589TIP3    H168182   0.496   1.698  16.966  0.0636  0.3937  0.0634
15589TIP3    H268183   0.509   1.805  17.072 -0.1611 -0.6311  1.1559
15590TIP3   OH268184   1.150   4.161  13.167 -0.0154 -0.0686 -0.1260
15590TIP3    H168185   1.064   4.201  13.151  0.4950  1.5672  0.9621
15590TIP3    H268186   1.143   4.122  13.254  0.4483  0.3907  0.1220
15591TIP3   OH268187   6.225   0.526  16.632 -0.1069  0.1692  0.0754
15591TIP3    H168188   6.303   0.512  16.686  0.2830 -0.2998 -0.5996
15591TIP3    H268189   6.183   0.441  16.628  0.1596  0.0724 -0.8101
15592TIP3   OH268190   4.586   1.568   3.048 -0.0847  0.4361 -0.0438
15592TIP3    H168191   4.545   1.538   2.967  1.4243 -0.4290 -0.5396
15592TIP3    H268192   4.620   1.488   3.089  2.6315  1.1987 -0.5835
15593TIP3   OH268193   5.174   6.585  12.631  0.6446 -0.0519  0.4052
15593TIP3    H168194   5.252   6.551  12.588  0.7942  0.6256  0.1173
15593TIP3    H268195   5.198   6.674  12.657 -0.5338  0.7591 -1.1096
15594TIP3   OH268196   4.356   3.157   4.931 -0.1414 -0.0659  0.1837
15594TIP3    H168197   4.365   3.223   4.863 -1.1360  0.5304  0.6004
15594TIP3    H268198   4.440   3.157   4.976  0.3346 -0.0819 -0.6887
15595TIP3   OH268199   6.192   4.033  12.556  0.6681 -0.1502  0.2375
15595TIP3    H168200   6.171   4.088  12.481  0.1492  0.1546  0.6057
15595TIP3    H268201   6.268   4.076  12.597  1.2002 -0.5314 -0.3282
15596TIP3   OH268202   3.710   2.471  12.620  0.3952  0.1696 -0.3854
15596TIP3    H168203   3.657   2.505  12.548  0.0064 -0.1398 -0.2531
15596TIP3    H268204   3.797   2.460  12.583  0.0992 -0.4131 -0.9479
15597TIP3   OH268205   2.804   2.339   1.078 -0.4971 -0.0648  0.1783
15597TIP3    H168206   2.771   2.427   1.059  0.2812 -0.2569 -2.5338
15597TIP3    H268207   2.727   2.283   1.069 -1.2630  0.3851  3.1416
15598TIP3   OH268208   1.389   4.250  11.406 -0.2751 -0.1437  0.4628
15598TIP3    H168209   1.433   4.168  11.428 -1.4243 -1.0083 -0.3045
15598TIP3    H268210   1.296   4.229  11.410 -0.6402  1.5551  1.7548
15599TIP3   OH268211   1.137   5.448   3.805  0.0925  0.0619  0.1619
15599TIP3    H168212   1.168   5.445   3.714  1.4152  2.1057  0.4842
15599TIP3    H268213   1.052   5.405   3.802  1.6017 -3.2419 -1.3193
15600TIP3   OH268214   2.585   3.039  13.592 -0.1832  0.1643 -0.2601
15600TIP3    H168215   2.597   3.116  13.649 -0.6664  0.0720 -0.0210
15600TIP3    H268216   2.557   3.076  13.508 -1.3728  0.2263  0.1307
15601TIP3   OH268217   4.884   2.638  11.126 -0.1232 -0.1736 -0.3064
15601TIP3    H168218   4.919   2.695  11.058  1.7748 -0.5138  0.3411
15601TIP3    H268219   4.957   2.583  11.153 -0.8541 -0.2211  1.8348
15602TIP3   OH268220   3.291   3.514  11.020 -0.4932  0.2359  0.1545
15602TIP3    H168221   3.347   3.443  10.989  0.5494  0.4797  1.3721
15602TIP3    H268222   3.215   3.469  11.059 -0.3164 -0.1700  0.0394
15603TIP3   OH268223   1.483   1.172  14.825 -0.5995 -0.3118 -0.2060
15603TIP3    H168224   1.425   1.189  14.751 -1.3532 -0.6171  0.3022
15603TIP3    H268225   1.483   1.254  14.874  0.0629 -0.0421 -0.6448
15604TIP3   OH268226   5.071   3.025   1.218  0.2979 -0.6970  0.5251
15604TIP3    H168227   5.114   2.946   1.184  0.5373 -0.6066  0.6120
15604TIP3    H268228   5.123   3.049   1.295  0.4075 -0.2809  0.3235
15605TIP3   OH268229   4.850   0.668   0.744 -0.0330 -0.3238 -0.5621
15605TIP3    H168230   4.864   0.753   0.702  0.6417 -1.2578 -2.3472
15605TIP3    H268231   4.905   0.607   0.694  0.6486 -1.5805  1.5959
15606TIP3   OH268232   1.732   1.796   1.752  0.5650 -0.1985  0.0542
15606TIP3    H168233   1.722   1.737   1.677  1.6039 -0.7698  0.3552
15606TIP3    H268234   1.666   1.864   1.737 -0.9704 -1.6280 -0.0944
15607TIP3   OH268235   5.449   0.559  10.765  0.1249  0.2796 -0.2504
15607TIP3    H168236   5.531   0.514  10.784 -0.7132 -2.0511 -1.6160
15607TIP3    H268237   5.448   0.568  10.670 -1.3247 -0.0512 -0.2904
15608TIP3   OH268238   1.596   6.094   1.790 -0.3992  0.3364 -0.2931
15608TIP3    H168239   1.510   6.056   1.774 -1.7383  2.9253  0.1797
15608TIP3    H268240   1.605   6.092   1.885 -0.5175  1.1892 -0.2568
15609TIP3   OH268241   2.752   0.479   2.105  0.8121  0.5522  0.3512
15609TIP3    H168242   2.806   0.401   2.088 -0.8129 -0.7169  0.7290
15609TIP3    H268243   2.787   0.545   2.045 -0.2359 -1.6554 -3.0502
15610TIP3   OH268244   6.622   3.269   0.914 -0.2220 -0.5862  0.4130
15610TIP3    H168245   6.676   3.343   0.886  0.4534 -0.9496  0.7197
15610TIP3    H268246   6.549   3.309   0.961  1.2961 -0.1403  2.5982
15611TIP3   OH268247   3.483   2.569   4.837 -0.2220 -0.2423  0.5344
15611TIP3    H168248   3.424   2.556   4.911  0.0314  0.1234  0.8078
15611TIP3    H268249   3.565   2.526   4.864  0.8786  2.3933  1.7645
15612TIP3   OH268250   0.828   2.262  14.000  0.1046 -0.0985  0.1957
15612TIP3    H168251   0.758   2.273  14.065  0.5489 -0.3425  0.7237
15612TIP3    H268252   0.829   2.168  13.982 -0.7990  0.1069 -1.0603
15613TIP3   OH268253   4.133   5.410  11.818 -0.3908 -0.0759  0.6981
15613TIP3    H168254   4.045   5.376  11.804 -0.5713  1.2497 -2.2096
15613TIP3    H268255   4.132   5.496  11.776  1.9469  0.5227  1.7150
15614TIP3   OH268256   4.846   1.919  11.583 -0.3612 -0.3698  0.9202
15614TIP3    H168257   4.823   1.990  11.643 -4.1052 -2.0166  1.7318
15614TIP3    H268258   4.866   1.845  11.640 -0.5704 -1.0306  0.1470
15615TIP3   OH268259   3.315   2.892   2.757 -0.1579  0.4606  0.0188
15615TIP3    H168260   3.223   2.893   2.783  0.1528 -1.3210  1.3542
15615TIP3    H268261   3.313   2.869   2.664 -1.0214 -2.4456  0.6605
15616TIP3   OH268262   5.316   1.229  13.280 -0.4068 -0.2596 -0.1337
15616TIP3    H168263   5.387   1.285  13.250  0.4365 -1.0818  0.2737
15616TIP3    H268264   5.334   1.216  13.373 -1.3677 -0.0943  0.0921
15617TIP3   OH268265   5.118   1.216  16.717 -0.1790  0.0637  0.0189
15617TIP3    H168266   5.180   1.271  16.765 -0.3950  1.8198 -1.5759
15617TIP3    H268267   5.055   1.187  16.783  2.1540 -1.6357  1.6576
15618TIP3   OH268268   4.232   0.021  16.797  0.3657  0.0818 -0.3710
15618TIP3    H168269   4.262  -0.015  16.713  0.5090  0.9075 -0.6761
15618TIP3    H268270   4.160  -0.037  16.822 -1.4429  1.3279 -2.3489
15619TIP3   OH268271   4.968   3.789  16.735  0.7448  0.1097 -0.3143
15619TIP3    H168272   5.000   3.745  16.814 -0.3913  1.0643  0.6964
15619TIP3    H268273   4.991   3.881  16.747 -0.1105  0.3908 -0.7462
15620TIP3   OH268274   3.820   2.700  15.581  0.0577  0.0950  0.3451
15620TIP3    H168275   3.789   2.639  15.514 -1.6171  0.9558  0.2924
15620TIP3    H268276   3.902   2.661  15.613 -1.0350 -2.2759  0.4566
15621TIP3   OH268277   4.666   3.665   3.631 -0.2111  0.3522  0.2686
15621TIP3    H168278   4.755   3.637   3.610 -0.2809  1.0112 -1.0306
15621TIP3    H268279   4.662   3.664   3.727  1.1228  0.1043  0.3399
15622TIP3   OH268280   2.319   3.918   2.034  0.6880 -0.0945 -0.1412
15622TIP3    H168281   2.259   3.870   2.091  0.9160  0.3114  0.4494
15622TIP3    H268282   2.280   3.911   1.946 -0.9282  1.2387  0.4069
15623TIP3   OH268283   0.729   0.665   1.948  0.5768 -0.1992  0.1369
15623TIP3    H168284   0.748   0.608   2.023  0.7396 -1.6825 -0.9924
15623TIP3    H268285   0.806   0.659   1.892  0.1111  0.2141 -0.5679
15624TIP3   OH268286   1.729   5.503   4.806 -0.0692  0.3765 -1.0985
15624TIP3    H168287   1.652   5.526   4.858  0.1295 -1.4901  0.1327
15624TIP3    H268288   1.703   5.521   4.715 -1.7980  0.2286 -0.6689
15625TIP3   OH268289   3.832   1.652   2.646 -0.0325  0.4349 -0.3272
15625TIP3    H168290   3.769   1.584   2.670 -0.1746  0.6152 -0.1816
15625TIP3    H268291   3.789   1.700   2.575 -0.4414  1.1064  0.3597
15626TIP3   OH268292   0.383   6.173   0.833 -0.0911 -0.5724  0.1019
15626TIP3    H168293   0.426   6.257   0.853 -0.6779 -0.7696  2.4842
15626TIP3    H268294   0.384   6.126   0.916 -2.1511 -1.8589 -0.5467
15627TIP3   OH268295   4.786   1.910   1.033 -0.2491  0.2559  0.3492
15627TIP3    H168296   4.772   1.858   0.954  0.4128 -0.1151  0.4658
15627TIP3    H268297   4.863   1.871   1.074 -0.9345  0.0662  1.5011
15628TIP3   OH268298   6.353   6.630   1.292 -0.2084 -0.1002 -0.1566
15628TIP3    H168299   6.281   6.569   1.305 -0.4521  0.5425  1.7048
15628TIP3    H268300   6.388   6.645   1.379  1.5791  0.3594 -0.9038
15629TIP3   OH268301   6.683   0.081   1.716 -0.3990 -0.2949  0.2136
15629TIP3    H168302   6.660   0.136   1.641  0.6936  0.2143  0.2280
15629TIP3    H268303   6.700   0.143   1.786 -2.1707 -0.7924  1.1376
15630TIP3   OH268304   2.344   1.438   2.248  0.3306 -0.0796 -0.2591
15630TIP3    H168305   2.293   1.371   2.202  2.2228 -0.6174 -1.7357
15630TIP3    H268306   2.385   1.489   2.178 -0.3011  2.0825  0.8393
15631TIP3   OH268307   0.744   2.483  14.676  0.3376  0.0180  0.3795
15631TIP3    H168308   0.655   2.464  14.647  0.5270 -1.3045  0.5641
15631TIP3    H268309   0.800   2.456  14.602  0.7604 -2.4348  1.4913
15632TIP3   OH268310   3.264   4.898   2.365  0.1493 -1.0392 -0.4233
15632TIP3    H168311   3.344   4.918   2.413 -0.8855 -2.9269  2.3345
15632TIP3    H268312   3.289   4.825   2.308  0.9933  0.1791 -1.6952
15633TIP3   OH268313   3.507   5.430  11.684 -0.4999  0.0479  0.1385
15633TIP3    H168314   3.575   5.491  11.711  1.5652 -1.4569 -1.3730
15633TIP3    H268315   3.495   5.372  11.759  1.3010 -0.8215 -0.1969
15634TIP3   OH268316   0.048   0.047  11.778 -0.2241  0.2732  0.5297
15634TIP3    H168317   0.119   0.060  11.842 -0.8939 -0.2244  1.4012
15634TIP3    H268318   0.070  -0.036  11.735  0.3835  0.7559 -0.1045
15635TIP3   OH268319   6.312   4.661   5.865  0.1929  0.7321 -0.4954
15635TIP3    H168320   6.322   4.692   5.955 -1.8490  0.7916 -0.2377
15635TIP3    H268321   6.223   4.627   5.862  0.3283  0.4750 -2.4364
15636TIP3   OH268322   2.352   2.990   2.142 -0.3824  0.4121 -0.4758
15636TIP3    H168323   2.278   3.018   2.088 -1.1380  0.3879  0.5152
15636TIP3    H268324   2.334   3.027   2.228  0.3691 -0.2413 -0.0258
15637TIP3   OH268325   3.070   0.780   5.368 -0.6152 -0.5357 -0.3650
15637TIP3    H168326   3.073   0.685   5.360 -1.8551 -0.6724  0.4817
15637TIP3    H268327   2.981   0.804   5.343  0.4058  0.7248 -3.2143
15638TIP3   OH268328   3.151   4.420   2.501 -0.2188 -0.7117 -0.9409
15638TIP3    H168329   3.156   4.326   2.485  2.8085 -1.0624  1.1025
15638TIP3    H268330   3.173   4.429   2.594 -0.9905  1.9930 -0.9505
15639TIP3   OH268331   4.575   5.406  11.383  0.1478  0.0966  0.0416
15639TIP3    H168332   4.588   5.337  11.318  2.4238 -1.3345  1.9029
15639TIP3    H268333   4.654   5.460  11.377 -1.3662  2.3985 -1.0297
15640TIP3   OH268334   1.555   2.244  16.457 -0.2043  0.1840 -0.4478
15640TIP3    H168335   1.465   2.236  16.489  0.1974  0.7942  0.9100
15640TIP3    H268336   1.546   2.286  16.371 -1.0691  3.7590  1.2176
15641TIP3   OH268337   4.185   4.692  16.541  0.6266  0.4639 -0.1501
15641TIP3    H168338   4.130   4.768  16.559 -3.0083 -2.0019  0.2843
15641TIP3    H268339   4.201   4.695  16.446 -1.5751  0.5706 -0.5655
15642TIP3   OH268340   0.888   6.004  11.623  0.3777 -0.3114  0.6670
15642TIP3    H168341   0.827   6.012  11.697 -0.1567 -0.5563  0.2654
15642TIP3    H268342   0.959   6.065  11.644  0.2117 -0.3392  1.3551
15643TIP3   OH268343   1.395   0.370   0.962 -0.1409 -0.3284  0.1575
15643TIP3    H168344   1.377   0.436   0.895  0.4519  3.3277  3.2301
15643TIP3    H268345   1.482   0.392   0.994 -0.1937 -2.2187  1.7829
15644TIP3   OH268346   4.515   6.156  15.467 -0.3062 -0.7438 -0.2293
15644TIP3    H168347   4.581   6.213  15.505 -0.3744 -1.3535  0.8709
15644TIP3    H268348   4.439   6.213  15.452  0.0195 -0.3143 -0.2547
15645TIP3   OH268349   1.248   0.059   5.670  0.2682 -0.0491 -0.1552
15645TIP3    H168350   1.308   0.129   5.697  0.4743 -0.4725  0.5254
15645TIP3    H268351   1.204   0.093   5.592  1.0516  0.4622 -0.3925
15646TIP3   OH268352   1.887   3.853   2.851 -0.2745 -0.3538  0.2005
15646TIP3    H168353   1.861   3.794   2.922 -1.8028 -0.9466 -0.8219
15646TIP3    H268354   1.805   3.888   2.817  0.5513  3.2361  1.4088
15647TIP3   OH268355   0.473   3.131   3.673  0.1102 -0.1668 -0.2678
15647TIP3    H168356   0.481   3.225   3.658  1.5406 -0.2728 -0.3282
15647TIP3    H268357   0.521   3.090   3.601 -0.9963 -0.9707 -0.5744
15648TIP3   OH268358   1.743   4.521  11.598  0.8066 -0.0883 -0.3815
15648TIP3    H168359   1.668   4.469  11.629  0.9661  0.5296  1.1031
15648TIP3    H268360   1.810   4.456  11.577 -0.5968 -0.7768 -3.2275
15649TIP3   OH268361   1.157   6.313  15.290 -0.2807 -0.1139 -0.1075
15649TIP3    H168362   1.182   6.403  15.270  1.2979  0.1301  2.4619
15649TIP3    H268363   1.226   6.260  15.251 -0.3551 -0.0755 -0.2880
15650TIP3   OH268364   4.429   2.635  11.561 -0.0501 -0.1291 -0.0004
15650TIP3    H168365   4.427   2.549  11.520  1.7084 -0.9398  1.4246
15650TIP3    H268366   4.464   2.619  11.649  0.7918  2.0895  0.1518
15651TIP3   OH268367   2.874   5.106  17.265  0.5125  0.4999 -0.0286
15651TIP3    H168368   2.910   5.042  17.327  0.7238  1.3109  0.6991
15651TIP3    H268369   2.900   5.073  17.179  0.5272 -0.4502  0.3287
15652TIP3   OH268370   1.148   2.985  17.008  0.3390 -0.3893  0.1837
15652TIP3    H168371   1.095   2.990  16.929  0.1891 -1.7673  0.1848
15652TIP3    H268372   1.221   3.046  16.991 -0.6581  0.7280 -0.2315
15653TIP3   OH268373   5.131   1.613  17.070  0.0627 -0.2269 -0.0254
15653TIP3    H168374   5.113   1.527  17.109 -0.6163 -0.7241 -1.3513
15653TIP3    H268375   5.046   1.657  17.070  0.0342 -0.2701 -0.9749
15654TIP3   OH268376   6.089   1.289   1.337  0.3971  0.5237  0.0328
15654TIP3    H168377   6.127   1.234   1.269 -0.5621 -0.3928  0.2201
15654TIP3    H268378   6.122   1.377   1.318  1.0884  0.0739 -0.9032
15655TIP3   OH268379   0.572   1.127   2.834  0.2854 -0.7610 -0.3357
15655TIP3    H168380   0.631   1.088   2.898  0.2012 -1.7413 -0.8390
15655TIP3    H268381   0.624   1.195   2.792  1.4001 -2.1829 -1.3885
15656TIP3   OH268382   3.447   0.702   0.780  0.0296  0.0147 -0.0160
15656TIP3    H168383   3.370   0.656   0.813 -1.3446  0.1455 -2.7904
15656TIP3    H268384   3.415   0.789   0.756  1.2196  0.3384 -0.5174
15657TIP3   OH268385   3.422   3.273   3.505 -0.0870 -0.3970 -0.8080
15657TIP3    H168386   3.363   3.255   3.578 -1.3845 -0.1589 -1.7479
15657TIP3    H268387   3.437   3.188   3.465  1.4824 -0.6850  0.3292
15658TIP3   OH268388   3.334   2.131  16.430 -0.2598 -0.1311 -0.0442
15658TIP3    H168389   3.326   2.036  16.427  0.7907 -0.2276 -0.2072
15658TIP3    H268390   3.269   2.163  16.366 -0.8561 -0.7110  0.2582
15659TIP3   OH268391   5.398   2.624   4.418  0.1835  0.8018 -0.3774
15659TIP3    H168392   5.418   2.658   4.331  0.5468 -0.1133 -0.6690
15659TIP3    H268393   5.480   2.583   4.447 -0.7520 -1.6604 -0.9475
15660TIP3   OH268394   0.748   0.601   4.854 -0.3704  0.0321  0.0451
15660TIP3    H168395   0.659   0.586   4.886 -0.7155  1.1519 -0.3271
15660TIP3    H268396   0.737   0.662   4.781  0.6678 -0.1430 -0.2710
15661TIP3   OH268397   4.703   5.616   1.279  0.3467  0.3373  0.0275
15661TIP3    H168398   4.758   5.538   1.273 -1.4645 -1.0243  0.1031
15661TIP3    H268399   4.655   5.618   1.196 -0.0719  1.0161  0.2744
15662TIP3   OH268400   3.225   3.520  14.297 -0.1218  0.0513 -0.4449
15662TIP3    H168401   3.167   3.517  14.221 -0.1089 -2.1429 -0.4248
15662TIP3    H268402   3.313   3.531  14.259 -0.1501 -0.7027 -0.7542
15663TIP3   OH268403   5.744   1.613   0.448 -0.4867 -0.1614  0.4724
15663TIP3    H168404   5.833   1.585   0.429 -0.1221  1.6336 -0.7336
15663TIP3    H268405   5.689   1.541   0.415  0.4380 -0.1217 -1.2827
15664TIP3   OH268406   5.384   5.578   3.001 -0.8518 -0.5143  0.2114
15664TIP3    H168407   5.320   5.508   3.017 -0.2939 -0.9956  0.3594
15664TIP3    H268408   5.393   5.622   3.085 -1.4682 -0.0294  0.0331
15665TIP3   OH268409   0.041   5.568   4.029  1.0448 -0.2689  0.0323
15665TIP3    H168410   0.071   5.583   4.119  0.5113 -4.1732  1.0569
15665TIP3    H268411  -0.053   5.586   4.033  1.3453  1.6129 -0.3874
15666TIP3   OH268412   5.692   3.247   1.076 -0.0734  0.0814 -0.0850
15666TIP3    H168413   5.775   3.252   1.124  0.3145 -0.4875 -0.6772
15666TIP3    H268414   5.717   3.223   0.986 -0.8794 -0.1432 -0.2635
15667TIP3   OH268415   3.783   1.259   3.141  0.0414 -0.0194 -1.1278
15667TIP3    H168416   3.701   1.210   3.136 -0.3162  0.3456  0.5747
15667TIP3    H268417   3.852   1.193   3.136 -0.2922 -0.2865 -3.0891
15668TIP3   OH268418   4.284   2.921  11.989 -0.2909  0.4017 -0.1092
15668TIP3    H168419   4.198   2.933  11.950 -0.8613  0.7960  1.2290
15668TIP3    H268420   4.341   2.979  11.938 -0.3463 -1.3437 -2.3226
15669TIP3   OH268421   5.054   6.633  11.916 -0.0429 -0.3374  0.7208
15669TIP3    H168422   5.071   6.669  12.003 -0.8092  1.3813  0.2052
15669TIP3    H268423   5.057   6.709  11.858 -2.5789 -0.9365 -0.3315
15670TIP3   OH268424   1.142   2.157  17.333 -0.1482 -0.2647  0.1554
15670TIP3    H168425   1.056   2.150  17.290 -0.6555  0.2336  1.0608
15670TIP3    H268426   1.165   2.250  17.324  0.0072 -0.2736  0.4717
15671TIP3   OH268427   3.518   0.340   2.625  0.1954 -0.1262 -0.0260
15671TIP3    H168428   3.516   0.355   2.720  0.4992 -0.9492  0.1158
15671TIP3    H268429   3.601   0.296   2.609 -0.4487 -1.2282 -0.4826
15672TIP3   OH268430   0.088   5.146  12.581  0.5831 -0.3766  0.2652
15672TIP3    H168431   0.078   5.241  12.576 -0.8919 -0.4478  1.0797
15672TIP3    H268432   0.157   5.132  12.645  0.3615  0.1611  0.6267
15673TIP3   OH268433   0.150   1.114  11.072 -1.0968  0.0290  0.2095
15673TIP3    H168434   0.214   1.058  11.027 -0.1522  0.8561  0.4754
15673TIP3    H268435   0.066   1.086  11.038 -0.6076 -1.2285 -0.0129
15674TIP3   OH268436   3.544   0.722   1.508  0.3214 -0.2377  0.2605
15674TIP3    H168437   3.590   0.706   1.426  1.0234  0.3222  0.5338
15674TIP3    H268438   3.484   0.648   1.517  0.7175 -0.6508 -0.4192
15675TIP3   OH268439   5.910   6.229   2.883  0.2059 -0.6971  0.1121
15675TIP3    H168440   5.850   6.197   2.951  2.6030 -1.8484  1.8534
15675TIP3    H268441   5.962   6.152   2.859  2.9818  0.7724  0.9462
15676TIP3   OH268442   0.414   0.589  10.663  0.1150  0.3735 -0.1661
15676TIP3    H168443   0.349   0.653  10.632  0.3306  1.5574  1.6405
15676TIP3    H268444   0.423   0.609  10.757  0.1086 -2.4318  0.5024
15677TIP3   OH268445   1.506   6.688   6.034 -0.3536  0.5930 -0.2155
15677TIP3    H168446   1.424   6.705   5.989  0.0100  0.0462 -1.1049
15677TIP3    H268447   1.544   6.775   6.049 -1.3919  0.8982  0.8294
15678TIP3   OH268448   4.282   3.288  11.869  0.1171 -0.1065 -0.0823
15678TIP3    H168449   4.369   3.275  11.908 -0.0019 -0.0569  0.2035
15678TIP3    H268450   4.234   3.338  11.935 -0.8191 -1.9535  0.7021
15679TIP3   OH268451   1.744   5.539   5.369 -0.0709  0.0904 -0.5460
15679TIP3    H168452   1.738   5.634   5.369 -0.1553  0.0906  0.2361
15679TIP3    H268453   1.730   5.514   5.460  1.4107 -0.5684 -0.4759
15680TIP3   OH268454   1.068   2.733   4.675  0.1332  0.8420 -0.0772
15680TIP3    H168455   1.061   2.778   4.759 -0.7109 -0.3162  0.5135
15680TIP3    H268456   1.148   2.767   4.636  0.1915  1.8928  0.8979
15681TIP3   OH268457   5.157   3.615   0.040 -0.1855 -0.5970  0.1864
15681TIP3    H168458   5.200   3.613   0.126 -0.3734  1.3611  0.3859
15681TIP3    H268459   5.222   3.581  -0.020  0.4373 -0.7640  0.9363
15682TIP3   OH268460   0.709   3.396  14.516  0.8107 -0.0316 -0.1151
15682TIP3    H168461   0.719   3.479  14.469  1.4551  0.0748  0.1887
15682TIP3    H268462   0.796   3.378  14.551  0.5469 -0.5601  0.2873
15683TIP3   OH268463   1.982   5.835   4.545  0.3305 -0.7665  0.2025
15683TIP3    H168464   1.974   5.747   4.583  0.5937 -1.2581 -0.8503
15683TIP3    H268465   2.011   5.820   4.455  2.2850  0.4646  0.5605
15684TIP3   OH268466   2.927   2.744  11.973 -0.2890  0.1375 -0.9273
15684TIP3    H168467   2.920   2.714  11.882 -1.3837 -1.4240 -0.3772
15684TIP3    H268468   3.011   2.707  12.003  0.4325  1.2663 -1.4778
15685TIP3   OH268469   6.563   1.128  17.327  0.2486  0.5107 -0.1037
15685TIP3    H168470   6.530   1.217  17.337  1.3865  1.1082 -1.3901
15685TIP3    H268471   6.549   1.108  17.235  1.2795 -0.1197 -0.1334
15686TIP3   OH268472   6.343   2.052  16.685 -0.5037  0.5834  0.9548
15686TIP3    H168473   6.388   1.972  16.712 -1.1521  0.1455  0.7623
15686TIP3    H268474   6.312   2.091  16.767  0.1603  0.8507  1.0804
15687TIP3   OH268475   4.623   2.146  16.368  0.3850 -0.6433  0.3633
15687TIP3    H168476   4.607   2.206  16.440  0.6857 -0.5756  0.3765
15687TIP3    H268477   4.627   2.201  16.290  1.5242 -0.5274  0.4853
15688TIP3   OH268478   1.940   2.271  17.042 -0.4697  0.4884 -0.1978
15688TIP3    H168479   1.857   2.296  17.082 -0.5498 -1.0776  0.7027
15688TIP3    H268480   1.960   2.185  17.079  2.0019  1.1692  0.2656
15689TIP3   OH268481   6.286   3.517   4.149 -0.2271 -0.0925 -0.3221
15689TIP3    H168482   6.342   3.499   4.073  0.0031  1.1288 -0.4626
15689TIP3    H268483   6.215   3.570   4.113 -0.4506 -0.0345  0.2081
15690TIP3   OH268484   2.452   5.407  15.123 -0.5736  0.0419 -0.0523
15690TIP3    H168485   2.407   5.327  15.150 -1.6712  0.7258  0.2287
15690TIP3    H268486   2.405   5.435  15.045  0.5823 -0.2290 -0.8666
15691TIP3   OH268487   2.721   5.367  12.060 -0.1370 -0.3020 -0.0159
15691TIP3    H168488   2.656   5.298  12.050  1.7014 -2.0464 -0.3962
15691TIP3    H268489   2.714   5.394  12.152  1.1312 -3.2064  1.0569
15692TIP3   OH268490   3.289   5.790  12.476 -0.4078 -0.1006 -0.1620
15692TIP3    H168491   3.240   5.834  12.546 -2.3190 -0.8130 -0.9983
15692TIP3    H268492   3.283   5.849  12.401 -1.2061 -0.8088 -0.6764
15693TIP3   OH268493   2.540   0.030   4.522  0.3194 -0.3565 -0.4029
15693TIP3    H168494   2.602   0.063   4.587  0.5257 -0.1801 -0.6828
15693TIP3    H268495   2.475   0.099   4.513  1.7889  0.8738 -2.3889
15694TIP3   OH268496   2.427   3.652  17.356  0.1847  0.1158  0.3945
15694TIP3    H168497   2.383   3.608  17.429 -0.8455 -0.2882 -0.4472
15694TIP3    H268498   2.464   3.731  17.395  0.4946 -0.5725  1.5506
15695TIP3   OH268499   6.423   1.409  16.073 -0.8799  0.4968 -0.0676
15695TIP3    H168500   6.362   1.475  16.107 -1.4116  0.6491 -1.2469
15695TIP3    H268501   6.446   1.441  15.986 -0.5460 -0.5034 -0.3608
15696TIP3   OH268502   1.122   0.811  14.317  0.4669 -0.5157  0.4671
15696TIP3    H168503   1.149   0.856  14.237 -0.3531  0.8619  0.9300
15696TIP3    H268504   1.160   0.724  14.310 -0.1102 -0.6300 -1.7054
15697TIP3   OH268505   1.684   4.506   1.489 -0.0638 -0.2370 -0.0015
15697TIP3    H168506   1.597   4.544   1.503 -0.5628 -0.4522 -2.1163
15697TIP3    H268507   1.734   4.576   1.446  0.9304 -0.0220  1.4355
15698TIP3   OH268508   1.734   2.880  11.599 -0.5515  0.4513 -0.0452
15698TIP3    H168509   1.740   2.786  11.580 -2.0728  0.4121 -0.4231
15698TIP3    H268510   1.776   2.921  11.523  1.7168  0.0881  0.9159
15699TIP3   OH268511   3.992   4.915  15.484  0.0437 -0.0883  0.3936
15699TIP3    H168512   4.083   4.898  15.458 -0.0519 -0.0038 -0.0017
15699TIP3    H268513   3.943   4.840  15.451 -0.0807  0.0238  0.3198
15700TIP3   OH268514   4.612   2.349  12.576 -0.5385 -0.3461  0.8318
15700TIP3    H168515   4.669   2.287  12.622 -1.4623 -1.2446  0.7884
15700TIP3    H268516   4.536   2.357  12.632 -0.9790 -0.2253  0.2254
15701TIP3   OH268517   3.825   4.888  12.736 -0.3991 -0.2174 -0.3353
15701TIP3    H168518   3.800   4.961  12.680  0.4196  0.4194  0.1043
15701TIP3    H268519   3.883   4.927  12.802  4.9747 -2.0024 -3.3251
15702TIP3   OH268520   0.930   3.896   6.521  0.0416  0.2195  0.8537
15702TIP3    H168521   0.839   3.883   6.496  0.4286 -0.9576 -0.0747
15702TIP3    H268522   0.934   3.867   6.613 -0.5650  0.5330  0.9808
15703TIP3   OH268523   2.749   3.653  16.565  0.5157  0.3294  0.0350
15703TIP3    H168524   2.730   3.721  16.629 -0.3704 -1.0980  1.3784
15703TIP3    H268525   2.802   3.696  16.498  0.0201  2.2960  0.8443
15704TIP3   OH268526   2.500   1.862  11.385  0.0393  0.2853  0.0221
15704TIP3    H168527   2.584   1.903  11.407 -0.3796  1.0136  0.2945
15704TIP3    H268528   2.496   1.866  11.289  1.1794 -1.5090 -0.1315
15705TIP3   OH268529   5.149   6.088   1.090  0.2819 -0.0925 -0.1814
15705TIP3    H168530   5.064   6.122   1.118 -0.4744 -0.2483 -2.1311
15705TIP3    H268531   5.205   6.166   1.082  0.0611  0.1113  0.2400
15706TIP3   OH268532   1.916   3.337   1.770  0.1422  0.7968 -0.1107
15706TIP3    H168533   1.953   3.267   1.716 -0.0674 -1.2403  2.2500
15706TIP3    H268534   1.896   3.407   1.707 -0.5019 -1.5642 -2.7422
15707TIP3   OH268535   3.150   1.369   0.003 -0.0122  0.4032  0.0814
15707TIP3    H168536   3.196   1.449  -0.023  0.0718  1.2766  2.6866
15707TIP3    H268537   3.082   1.398   0.063 -0.6999 -1.3961  0.2545
15708TIP3   OH268538   3.399   2.212   4.533  0.4811 -0.4876 -0.3214
15708TIP3    H168539   3.373   2.166   4.613  0.0553 -0.3391 -0.3719
15708TIP3    H268540   3.485   2.249   4.554  0.0002  0.2810  0.3779
15709TIP3   OH268541   2.746   4.640  10.972 -0.5947 -0.0592  0.1227
15709TIP3    H168542   2.742   4.579  11.046 -1.1242 -0.1043  0.0587
15709TIP3    H268543   2.727   4.585  10.896  2.4571 -0.5903 -0.4115
15710TIP3   OH268544   3.664   2.660   5.239 -0.3324 -0.2798 -0.1430
15710TIP3    H168545   3.682   2.750   5.268 -1.3440  0.6785 -2.2323
15710TIP3    H268546   3.740   2.637   5.185  0.1120 -0.8471  0.7169
15711TIP3   OH268547   0.564   1.853   3.649  0.3433 -0.0510  0.2895
15711TIP3    H168548   0.614   1.903   3.585 -0.7421 -0.5091 -0.9775
15711TIP3    H268549   0.560   1.764   3.612 -1.5210  0.0109  0.2360
15712TIP3   OH268550   4.676   6.722  12.991 -0.2263 -0.4331  0.0804
15712TIP3    H168551   4.699   6.634  13.023  0.8299 -0.1240  0.1859
15712TIP3    H268552   4.672   6.775  13.071 -2.8326 -0.7729  0.2601
15713TIP3   OH268553   6.593   2.504  11.915 -0.0757  0.3614  0.1518
15713TIP3    H168554   6.573   2.550  11.996 -0.6775 -1.9534  1.4238
15713TIP3    H268555   6.672   2.453  11.936 -0.1173 -0.1013 -0.7811
15714TIP3   OH268556   6.186   1.412  11.423 -0.1107  0.3048  0.2876
15714TIP3    H168557   6.209   1.504  11.423  1.1725  0.0081  1.1852
15714TIP3    H268558   6.243   1.373  11.356 -0.3091  0.0916  0.2420
15715TIP3   OH268559   6.219   5.744   5.296 -0.6633  0.1313  0.3213
15715TIP3    H168560   6.182   5.729   5.209 -0.4362 -0.4508  0.3226
15715TIP3    H268561   6.155   5.704   5.356  0.2484 -1.4556  0.2900
15716TIP3   OH268562   6.379   0.633   0.375 -0.0945  0.2602 -0.1933
15716TIP3    H168563   6.390   0.709   0.432 -1.1233 -0.0805  0.4743
15716TIP3    H268564   6.458   0.580   0.390  0.5417  1.0962 -0.5345
15717TIP3   OH268565   3.536   6.048  13.383 -0.2831 -0.1063  0.0005
15717TIP3    H168566   3.494   5.962  13.391 -0.8994  0.2647  0.8555
15717TIP3    H268567   3.572   6.048  13.294  0.3074 -1.4950  0.2092
15718TIP3   OH268568   0.102   3.458  15.862  0.3210 -0.1198  0.2486
15718TIP3    H168569   0.162   3.384  15.865 -2.1089 -2.2636 -0.1524
15718TIP3    H268570   0.049   3.442  15.783 -2.0204  0.5230  1.5981
15719TIP3   OH268571   1.684   6.219   5.613  0.1946 -0.1340  0.2261
15719TIP3    H168572   1.714   6.165   5.541 -0.0707 -1.8632  1.3475
15719TIP3    H268573   1.765   6.242   5.661  0.3214  0.6040 -0.3315
15720TIP3   OH268574   1.644   1.717  13.049 -0.0757  0.4674  0.2027
15720TIP3    H168575   1.664   1.653  13.118  0.0954 -0.4201 -0.6569
15720TIP3    H268576   1.710   1.785  13.060  0.2610  0.0850  0.5962
15721TIP3   OH268577   2.221   0.847   0.498 -0.0808  0.2293  0.4025
15721TIP3    H168578   2.127   0.839   0.515 -0.5686  2.2340 -0.8782
15721TIP3    H268579   2.237   0.790   0.423 -0.0130 -0.9671  1.3055
15722TIP3   OH268580   0.512   6.762  11.929 -0.0899 -0.7685 -0.3257
15722TIP3    H168581   0.585   6.820  11.952 -2.1594  2.1117 -0.3451
15722TIP3    H268582   0.534   6.729  11.842  0.1741  2.1072 -1.4952
15723TIP3   OH268583   3.140   5.941  14.897  0.0511  0.5644 -1.0693
15723TIP3    H168584   3.051   5.912  14.914  0.4559 -0.8161 -1.1921
15723TIP3    H268585   3.166   5.893  14.818  1.2088  0.2308 -0.5054
15724TIP3   OH268586   3.615   5.680   3.383  0.1198  0.2931  0.3932
15724TIP3    H168587   3.634   5.631   3.463 -0.4092 -1.1609 -0.3435
15724TIP3    H268588   3.574   5.616   3.325 -0.1581  1.5047 -0.7825
15725TIP3   OH268589   1.458   3.209   4.358  0.3493  0.4027 -0.7153
15725TIP3    H168590   1.526   3.142   4.366 -1.6079 -1.7424 -0.7701
15725TIP3    H268591   1.417   3.192   4.273 -0.4801  1.3922 -0.5405
15726TIP3   OH268592   0.864   1.822   3.981 -0.1804 -0.2407 -0.0442
15726TIP3    H168593   0.808   1.895   4.009  0.8292  0.6934 -0.4004
15726TIP3    H268594   0.933   1.818   4.047 -0.3553 -1.0434  0.1003
15727TIP3   OH268595   3.416   5.729  14.151 -0.2333  0.1852  0.0415
15727TIP3    H168596   3.340   5.780  14.121  0.4084  0.1454 -1.7852
15727TIP3    H268597   3.460   5.786  14.213 -1.7749  0.1775  1.2051
15728TIP3   OH268598   2.118   0.407  16.536  0.3725 -0.6141 -0.0622
15728TIP3    H168599   2.065   0.358  16.599 -0.3594 -1.2950 -1.1703
15728TIP3    H268600   2.159   0.340  16.482  1.0448 -0.0406 -0.2749
15729TIP3   OH268601   5.823   0.834   4.678  0.0439 -0.0128  0.0573
15729TIP3    H168602   5.795   0.809   4.590  1.3419 -2.8507  0.3586
15729TIP3    H268603   5.872   0.915   4.665 -0.4241  0.0297 -1.7134
15730TIP3   OH268604   0.768   5.147   0.849  0.6696  0.7039 -0.1628
15730TIP3    H168605   0.774   5.057   0.817 -0.7346  1.0969 -1.6530
15730TIP3    H268606   0.852   5.163   0.891  1.0519 -1.2002 -0.1059
15731TIP3   OH268607   0.164   2.958  10.914  0.3016  0.2051  0.9076
15731TIP3    H168608   0.169   2.868  10.947  1.3173  0.7031  2.1861
15731TIP3    H268609   0.074   2.986  10.934 -1.1506 -1.5587 -2.4572
15732TIP3   OH268610   4.636   4.608  14.336 -0.2040  0.3843 -0.2730
15732TIP3    H168611   4.719   4.653  14.322 -0.0876  0.1396 -0.3606
15732TIP3    H268612   4.597   4.601  14.249  0.1954 -0.4985 -0.3870
15733TIP3   OH268613   6.752   0.274  12.918 -0.2429  0.0566 -0.1675
15733TIP3    H168614   6.728   0.185  12.891  2.6230 -1.1225  0.7949
15733TIP3    H268615   6.813   0.304  12.851 -0.7785  1.1006 -0.2026
15734TIP3   OH268616   2.354   0.743   2.610  0.4910 -0.6397  0.0754
15734TIP3    H168617   2.276   0.688   2.608  1.8971 -2.8222 -2.7700
15734TIP3    H268618   2.390   0.730   2.698 -0.7818 -1.9817  0.4498
15735TIP3   OH268619   1.354   0.279   1.230  0.2682  0.0737  0.7585
15735TIP3    H168620   1.365   0.294   1.136 -1.5683 -1.7738  0.1894
15735TIP3    H268621   1.443   0.270   1.264  0.9456  0.5312 -0.8256
15736TIP3   OH268622   6.703   3.917  15.396  0.0654 -0.0697  0.2218
15736TIP3    H168623   6.729   3.936  15.306 -0.6578  0.0217  0.0268
15736TIP3    H268624   6.716   3.823  15.405  0.9590  0.0588  0.2948
15737TIP3   OH268625   1.117   0.463  11.500  0.2792 -0.5389  0.3571
15737TIP3    H168626   1.062   0.461  11.578  0.2009 -0.9549  0.2932
15737TIP3    H268627   1.119   0.555  11.475  0.8624 -0.3072  1.2328
15738TIP3   OH268628   0.359   5.670  17.340 -0.0663 -0.0167  0.3813
15738TIP3    H168629   0.360   5.754  17.295  0.2021 -0.1985  0.0396
15738TIP3    H268630   0.382   5.606  17.272 -3.1598 -0.7375 -0.1578
15739TIP3   OH268631   6.383   3.240  12.565  0.1801 -0.5548  0.0890
15739TIP3    H168632   6.341   3.231  12.479  0.3519 -1.2984  0.0819
15739TIP3    H268633   6.348   3.322  12.599 -1.9897 -1.5593  0.4709
15740TIP3   OH268634   2.592   2.649   1.377 -0.5053  0.3991 -0.1653
15740TIP3    H168635   2.560   2.564   1.347 -0.1385 -0.2542  1.2281
15740TIP3    H268636   2.521   2.684   1.432  0.1906  0.0020  1.0201
15741TIP3   OH268637   1.599   3.112  15.904 -0.7041  0.3086  0.1144
15741TIP3    H168638   1.684   3.068  15.913 -0.9099 -1.3091 -3.9940
15741TIP3    H268639   1.537   3.052  15.945 -0.0977  0.9046  2.0129
15742TIP3   OH268640   5.103   4.142  11.601  0.1080 -0.5389  0.2389
15742TIP3    H168641   5.088   4.120  11.509 -2.2351 -1.7965  0.8315
15742TIP3    H268642   5.086   4.236  11.606 -0.0949 -0.5266 -0.5544
15743TIP3   OH268643   0.842   3.598   0.800  0.0481 -0.3003 -0.2601
15743TIP3    H168644   0.752   3.606   0.832  0.0855  0.4163 -0.3083
15743TIP3    H268645   0.876   3.520   0.843 -0.3721 -0.1773  0.3121
15744TIP3   OH268646   5.269   3.354   3.878  0.1234  0.4720 -0.2136
15744TIP3    H168647   5.198   3.307   3.833 -1.5438  2.4012  0.2354
15744TIP3    H268648   5.333   3.286   3.898 -1.6659 -1.4208 -0.4793
15745TIP3   OH268649   0.509   0.581   1.756 -0.0714  0.3239 -0.1705
15745TIP3    H168650   0.555   0.605   1.836 -2.7049  1.1232  1.2382
15745TIP3    H268651   0.549   0.636   1.688  1.5394  0.3853  0.7725
15746TIP3   OH268652   5.867   3.122   2.927 -0.1398 -0.2341 -0.6574
15746TIP3    H168653   5.810   3.183   2.880  0.2446  0.1449 -0.6452
15746TIP3    H268654   5.955   3.156   2.913 -0.0600  0.3051  0.8879
15747TIP3   OH268655   1.556   0.831   1.576  0.8300  0.1892  0.2842
15747TIP3    H168656   1.565   0.762   1.642 -0.8896 -0.2076  0.1552
15747TIP3    H268657   1.574   0.787   1.493  0.5572  0.0783  0.2808
15748TIP3   OH268658   5.015   5.870   1.530  0.0818  0.7584 -0.1454
15748TIP3    H168659   5.010   5.965   1.522 -0.4896  0.5931 -2.6799
15748TIP3    H268660   4.998   5.838   1.442  2.4885 -1.6508  0.1477
15749TIP3   OH268661   3.458   4.838   0.667  0.1939  0.3564  0.0199
15749TIP3    H168662   3.395   4.908   0.646  2.1048  2.0009 -0.4977
15749TIP3    H268663   3.466   4.842   0.762  0.8152  1.3762 -0.0534
15750TIP3   OH268664   6.017   0.155   2.662  0.2531  0.0644  0.4481
15750TIP3    H168665   6.062   0.225   2.614 -0.9240  0.0790 -0.6789
15750TIP3    H268666   6.030   0.177   2.754 -0.0600  1.7454  0.1159
15751TIP3   OH268667   1.409   0.288  11.211 -0.1373 -0.0032  0.0187
15751TIP3    H168668   1.493   0.276  11.254  0.2782 -1.5537 -1.1286
15751TIP3    H268669   1.351   0.223  11.251 -0.3627  0.0247 -0.2533
15752TIP3   OH268670   1.622   1.024  14.653 -0.1787 -0.2243  0.0768
15752TIP3    H168671   1.546   0.969  14.632 -0.6102  0.3466  0.0984
15752TIP3    H268672   1.589   1.084  14.721  0.1754  0.2908 -0.2008
15753TIP3   OH268673   3.422   5.966   3.248  0.0330  0.8360 -0.1487
15753TIP3    H168674   3.507   5.977   3.291 -0.0163  0.7792 -0.0364
15753TIP3    H268675   3.416   6.040   3.187 -0.3923  1.5668  0.7650
15754TIP3   OH268676   4.304   2.445   5.528 -0.2347  0.2358 -0.0545
15754TIP3    H168677   4.291   2.495   5.609  0.8269 -0.0562  0.3071
15754TIP3    H268678   4.267   2.358   5.547  0.6061 -0.0415  0.3600
15755TIP3   OH268679   1.726   5.104   0.945  0.1892  0.4261  0.2130
15755TIP3    H168680   1.732   5.009   0.935  1.2597  0.4893  0.1290
15755TIP3    H268681   1.768   5.122   1.029 -0.2872  0.8068  0.3767
15756TIP3   OH268682   2.953   1.446  11.634 -0.0426 -0.5281  0.3202
15756TIP3    H168683   2.959   1.484  11.547  0.5427 -1.9176 -0.2778
15756TIP3    H268684   2.993   1.511  11.692  0.1244  0.1380 -0.5253
15757TIP3   OH268685   3.937   6.598   0.312 -0.2153 -0.9201  0.1371
15757TIP3    H168686   3.936   6.507   0.284  1.3131 -0.4608 -1.6216
15757TIP3    H268687   3.898   6.646   0.239  0.6972 -0.0037  0.2285
15758TIP3   OH268688   1.672   5.375   0.038  0.1056  0.2653 -0.0609
15758TIP3    H168689   1.729   5.362   0.113 -0.6709 -1.2597  0.3074
15758TIP3    H268690   1.702   5.457  -0.001  1.9252 -0.0143  0.6468
15759TIP3   OH268691   6.607   4.173  11.541  0.5813 -0.0508  0.1672
15759TIP3    H168692   6.622   4.224  11.620  1.3194 -0.0543  0.0318
15759TIP3    H268693   6.693   4.164  11.500  0.5338 -1.6692  0.3506
15760TIP3   OH268694   5.665   6.331  14.915  0.4004 -0.3283  0.5485
15760TIP3    H168695   5.574   6.303  14.901  0.8517 -1.1145 -1.0776
15760TIP3    H268696   5.661   6.390  14.990 -1.6794  0.7916 -0.3754
15761TIP3   OH268697   3.838   2.327   2.763 -0.3670 -0.0925 -0.1278
15761TIP3    H168698   3.864   2.236   2.750 -0.8742 -0.2337 -0.1718
15761TIP3    H268699   3.835   2.338   2.858 -2.0328 -0.6394 -0.0810
15762TIP3   OH268700   2.769   4.395   3.735  0.6264 -0.2612 -0.0269
15762TIP3    H168701   2.706   4.422   3.668 -1.6605  1.0479  2.4654
15762TIP3    H268702   2.728   4.420   3.818  2.5235 -3.3340  2.0247
15763TIP3   OH268703   6.461   3.549   2.453 -0.8915  0.2752 -0.5739
15763TIP3    H168704   6.395   3.482   2.471 -0.9121  0.1651 -1.0321
15763TIP3    H268705   6.474   3.544   2.358 -1.2550  1.2618 -0.6886
15764TIP3   OH268706   3.206   2.881   4.759 -0.3138  0.6395  0.2569
15764TIP3    H168707   3.169   2.966   4.737 -0.0987  1.6316  3.2675
15764TIP3    H268708   3.167   2.859   4.844 -0.4517 -2.3601 -0.4826
15765TIP3   OH268709   6.735   5.123   3.732 -0.2351 -0.1126  0.0147
15765TIP3    H168710   6.754   5.155   3.644  0.9923 -0.8925 -0.0343
15765TIP3    H268711   6.641   5.106   3.732 -0.3333  0.3468 -0.9900
15766TIP3   OH268712   2.077   3.566  15.256 -0.4041  0.4725 -0.6244
15766TIP3    H168713   2.015   3.616  15.203 -0.1568  0.6542 -0.7426
15766TIP3    H268714   2.163   3.593  15.224 -0.2648  0.1664 -0.5130
15767TIP3   OH268715   3.172   0.364  13.602 -0.0690 -0.2350 -0.6260
15767TIP3    H168716   3.108   0.413  13.653 -0.2456 -1.3619  0.2790
15767TIP3    H268717   3.245   0.425  13.591 -0.5353  0.4445 -0.0868
15768TIP3   OH268718   2.723   4.284  13.437  0.0387  0.4032 -0.0593
15768TIP3    H168719   2.713   4.194  13.466  0.4031  0.0531 -0.9799
15768TIP3    H268720   2.693   4.283  13.345  3.9019  0.2891 -1.4917
15769TIP3   OH268721   4.719   0.221   1.342  0.2526  0.0800 -0.4686
15769TIP3    H168722   4.729   0.137   1.386  1.4889  0.6371  0.3563
15769TIP3    H268723   4.665   0.201   1.265  0.1096 -1.3622 -0.0263
15770TIP3   OH268724   1.361   0.038   0.526 -0.1625  0.0762 -0.0503
15770TIP3    H168725   1.386   0.019   0.616  1.1023  1.5263 -0.0587
15770TIP3    H268726   1.289  -0.022   0.508 -0.0349 -0.6606  1.7153
15771TIP3   OH268727   2.321   4.404  14.773 -0.8173 -0.5141 -0.4703
15771TIP3    H168728   2.416   4.412  14.778 -0.9822  0.7427  2.1512
15771TIP3    H268729   2.296   4.360  14.854 -2.5447  0.1757 -0.5889
15772TIP3   OH268730   1.497   3.731   4.062  0.2663  0.3064 -0.3848
15772TIP3    H168731   1.512   3.711   4.155 -2.8119 -2.0691 -0.2243
15772TIP3    H268732   1.444   3.810   4.063 -0.1343  0.0407 -0.0561
15773TIP3   OH268733   3.139   0.539  11.331 -0.5747 -0.6994 -1.0712
15773TIP3    H168734   3.071   0.483  11.367 -0.6540 -1.3972 -2.2602
15773TIP3    H268735   3.092   0.616  11.298 -0.5830 -0.3957 -0.3597
15774TIP3   OH268736   2.353   2.631  17.180 -0.5960 -0.0728 -0.8908
15774TIP3    H168737   2.431   2.628  17.236 -1.1091 -0.5540 -0.1868
15774TIP3    H268738   2.341   2.724  17.161 -0.8109  0.1839  0.3865
15775TIP3   OH268739   1.171   2.722  16.124 -0.2033 -0.1531 -0.0828
15775TIP3    H168740   1.199   2.814  16.122  0.0714 -0.2403 -1.0277
15775TIP3    H268741   1.097   2.719  16.063 -0.1855 -0.5603 -0.0837
15776TIP3   OH268742   5.399   4.417   0.303 -0.3197 -1.0712  0.1137
15776TIP3    H168743   5.393   4.505   0.340  1.3763 -1.4049  1.3327
15776TIP3    H268744   5.313   4.378   0.318 -1.5505  0.7956 -1.6908
15777TIP3   OH268745   4.204   5.007   5.307  0.2506 -0.3838  0.0786
15777TIP3    H168746   4.178   4.924   5.346 -0.9517 -0.2297 -0.3244
15777TIP3    H268747   4.260   5.049   5.372  1.3247 -1.7313  0.0621
15778TIP3   OH268748   6.313   5.352  16.045  0.0309 -0.2283 -0.1401
15778TIP3    H168749   6.346   5.428  16.093 -1.6525 -0.4329  1.4299
15778TIP3    H268750   6.375   5.341  15.972  1.1799  1.6828  0.4808
15779TIP3   OH268751   4.216   6.739   0.519  0.1143 -0.0763  1.0069
15779TIP3    H168752   4.291   6.685   0.545  0.2991 -0.1729  0.2917
15779TIP3    H268753   4.242   6.778   0.436 -1.1975 -1.2968 -0.0290
15780TIP3   OH268754   3.793   2.793  11.629  0.3836  0.1203  0.0657
15780TIP3    H168755   3.817   2.732  11.699  0.8832  0.6237  0.3400
15780TIP3    H268756   3.697   2.798  11.634  0.4174  0.1767  0.7433
15781TIP3   OH268757   6.597   6.464   6.181 -0.0784 -0.3646 -0.2184
15781TIP3    H168758   6.554   6.396   6.233  0.1834 -0.2182  0.1929
15781TIP3    H268759   6.584   6.436   6.090  0.9223 -1.5344 -0.0311
15782TIP3   OH268760   1.092   0.837  16.756  0.1666 -0.3402 -0.3106
15782TIP3    H168761   1.015   0.894  16.762 -0.5029 -1.2664  0.2487
15782TIP3    H268762   1.157   0.877  16.813 -1.3651 -1.7195  2.5920
15783TIP3   OH268763   6.595   2.535  13.826  0.5401 -0.3846  0.2277
15783TIP3    H168764   6.565   2.626  13.821  1.1533 -0.1127  1.2349
15783TIP3    H268765   6.541   2.495  13.893  0.7678 -0.5609  0.3057
15784TIP3   OH268766   1.151   0.290   5.870  0.3330  0.7199  0.2441
15784TIP3    H168767   1.122   0.198   5.876 -0.8677  1.0571 -0.0889
15784TIP3    H268768   1.089   0.330   5.810  1.6312  1.4663 -0.6410
15785TIP3   OH268769   6.125   2.134  14.792  0.0669  0.4036 -0.1233
15785TIP3    H168770   6.073   2.195  14.739 -0.5649 -2.1046 -2.6116
15785TIP3    H268771   6.194   2.104  14.733  1.3099 -0.1517  1.5360
15786TIP3   OH268772   3.664   3.238   5.164  0.5532  0.5485 -0.1569
15786TIP3    H168773   3.626   3.150   5.166 -0.4814  0.9931 -0.0088
15786TIP3    H268774   3.592   3.295   5.138  1.1959  1.3737 -0.1630
15787TIP3   OH268775   2.171   0.860  12.224 -0.4635  0.2868 -0.5029
15787TIP3    H168776   2.116   0.902  12.289 -0.9620  0.4994 -1.0595
15787TIP3    H268777   2.175   0.768  12.252 -0.4858  0.4229 -0.0478
15788TIP3   OH268778   3.351   6.652  12.883 -0.3461 -0.0512 -0.2114
15788TIP3    H168779   3.304   6.648  12.966  0.6417  1.2568  0.4606
15788TIP3    H268780   3.327   6.737  12.846  0.7871  0.2595 -0.2699
15789TIP3   OH268781   5.379   0.597   4.787  0.1470  0.1288 -0.2118
15789TIP3    H168782   5.311   0.634   4.730 -0.6932  0.1589  0.7902
15789TIP3    H268783   5.388   0.661   4.858 -1.7485 -1.7933  1.8854
15790TIP3   OH268784   2.319   6.058   1.369 -0.5324  0.3717  0.0622
15790TIP3    H168785   2.289   6.069   1.279 -0.0630  0.0857 -0.1345
15790TIP3    H268786   2.271   6.124   1.419 -2.1467 -0.6435 -0.0820
15791TIP3   OH268787   0.409   1.767   5.040  0.1220 -0.4822  0.0153
15791TIP3    H168788   0.455   1.784   5.122  1.3252 -1.7587 -0.3393
15791TIP3    H268789   0.439   1.680   5.014 -0.9047 -0.4641 -1.3385
15792TIP3   OH268790   2.859   6.340   0.387 -0.2745 -0.1364  0.0573
15792TIP3    H168791   2.873   6.372   0.298 -0.4577  1.9139  0.7137
15792TIP3    H268792   2.945   6.345   0.429 -0.5750  0.9842  0.5911
15793TIP3   OH268793   2.954   1.433  14.744  0.0170 -0.5797  0.1360
15793TIP3    H168794   2.992   1.434  14.657  0.7287 -0.2836  0.4398
15793TIP3    H268795   2.871   1.481  14.735  0.8103  0.7979 -0.0620
15794TIP3   OH268796   2.301   4.691   1.082  0.2623 -0.8169  0.3133
15794TIP3    H168797   2.390   4.674   1.112 -0.1359 -0.5836  1.6789
15794TIP3    H268798   2.312   4.721   0.992  1.5919 -0.4884  0.5622
15795TIP3   OH268799   3.846   4.585  10.952 -0.0347 -0.1655 -0.0434
15795TIP3    H168800   3.938   4.599  10.928 -0.2550  0.1619 -0.7484
15795TIP3    H268801   3.798   4.611  10.873 -0.6794 -1.3530 -0.0482
15796TIP3   OH268802   3.740   0.271  14.516 -0.1373 -0.2326 -0.6679
15796TIP3    H168803   3.827   0.237  14.540 -0.2916 -1.4626 -1.7259
15796TIP3    H268804   3.694   0.195  14.481 -1.7772  0.3309  0.1563
15797TIP3   OH268805   5.878   0.835   5.229  0.2384 -0.4928  0.3317
15797TIP3    H168806   5.917   0.879   5.154 -0.2098  0.2287  0.5089
15797TIP3    H268807   5.827   0.903   5.273  0.6085 -0.8661  1.3758
15798TIP3   OH268808   1.509   2.496  12.492  0.0516  0.6333  0.6113
15798TIP3    H168809   1.555   2.550  12.427 -0.0438  0.7273  0.6211
15798TIP3    H268810   1.576   2.440  12.530 -0.4978 -2.8558 -2.8890
15799TIP3   OH268811   4.711   4.027   5.739  0.2097 -0.6366 -0.5561
15799TIP3    H168812   4.780   4.087   5.768 -0.9449  0.7019 -0.4831
15799TIP3    H268813   4.664   4.075   5.672 -0.9256 -1.3582 -0.3033
15800TIP3   OH268814   1.915   3.761  14.511 -0.4740  0.0465  0.1465
15800TIP3    H168815   1.822   3.739  14.504 -0.6898  0.9338  0.0146
15800TIP3    H268816   1.929   3.823  14.439  1.0980 -2.7944 -2.1982
15801TIP3   OH268817   3.047   3.802  13.135 -0.2562  0.5714  0.3200
15801TIP3    H168818   3.126   3.811  13.082 -1.3820 -1.6416 -1.9865
15801TIP3    H268819   3.048   3.711  13.164 -1.7588  0.5843  0.5042
15802TIP3   OH268820   6.456   2.344   3.304 -1.0590 -0.0445  0.2484
15802TIP3    H168821   6.429   2.317   3.216  0.6549 -0.5852 -0.1317
15802TIP3    H268822   6.505   2.270   3.338  0.7300  1.2330  0.5527
15803TIP3   OH268823   4.519   4.636   0.328 -0.6500 -0.0445 -0.3033
15803TIP3    H168824   4.494   4.622   0.419  1.1650  1.1372  0.4403
15803TIP3    H268825   4.593   4.577   0.314 -0.9139 -0.2180 -1.0196
15804TIP3   OH268826   6.389   2.840  14.532 -0.0309  0.0709 -0.4876
15804TIP3    H168827   6.471   2.792  14.525 -0.0045 -0.2943  1.6593
15804TIP3    H268828   6.321   2.776  14.510  0.1142 -0.4532  0.5429
15805TIP3   OH268829   6.644   5.476  13.006 -0.2733 -0.3943  1.0151
15805TIP3    H168830   6.592   5.463  13.086  1.3612  0.1435  2.2213
15805TIP3    H268831   6.709   5.406  13.008  0.9766  0.7400  1.1856
15806TIP3   OH268832   3.377   5.972   0.228 -0.8952 -0.2085 -0.6013
15806TIP3    H168833   3.383   6.009   0.140  0.9740  0.7290 -0.1245
15806TIP3    H268834   3.394   6.046   0.286 -0.2973 -1.1686  0.4872
15807TIP3   OH268835   4.637   0.877   4.697 -0.1295 -0.0482 -0.1756
15807TIP3    H168836   4.679   0.962   4.683  0.1447 -0.0073  0.8470
15807TIP3    H268837   4.682   0.840   4.773  1.4347 -2.1981 -2.0042
15808TIP3   OH268838   6.667   1.189   3.593  0.4279 -0.1836  0.2320
15808TIP3    H168839   6.661   1.123   3.524  1.4444  0.6385 -0.6712
15808TIP3    H268840   6.591   1.246   3.578  0.7937  0.1489 -0.3916
15809TIP3   OH268841   3.682   1.376   2.310 -0.2310  0.1560  0.2246
15809TIP3    H168842   3.616   1.440   2.337 -0.6419 -0.2762  0.2703
15809TIP3    H268843   3.718   1.411   2.229 -0.0332  0.7357  0.5606
15810TIP3   OH268844   3.695   3.059   3.109  0.1622  0.0904  0.2137
15810TIP3    H168845   3.735   3.105   3.035  1.5432  1.0319  1.4954
15810TIP3    H268846   3.614   3.022   3.073 -0.7327  2.9899 -1.0536
15811TIP3   OH268847   4.919   4.156  15.837 -0.1209 -0.0388  0.3325
15811TIP3    H168848   5.005   4.159  15.879 -0.2762  0.7438  0.6219
15811TIP3    H268849   4.919   4.074  15.788 -0.1702 -1.3241  2.3856
15812TIP3   OH268850   1.392   5.824   3.637 -0.0494 -0.1542 -0.0356
15812TIP3    H168851   1.296   5.830   3.633 -0.0634 -0.7977 -1.0187
15812TIP3    H268852   1.422   5.870   3.559  0.4481 -0.1167  0.1726
15813TIP3   OH268853   0.538   4.473   5.817  0.1616 -0.0088 -0.1188
15813TIP3    H168854   0.470   4.451   5.753 -0.6861  1.5213  0.2184
15813TIP3    H268855   0.541   4.569   5.817  2.6207 -0.0162 -0.4165
15814TIP3   OH268856   4.997   6.563  11.551  0.5944  0.1263 -0.0863
15814TIP3    H168857   4.904   6.543  11.567  0.9986 -1.0520  0.9536
15814TIP3    H268858   5.041   6.478  11.557  1.7957  0.7286 -0.1632
15815TIP3   OH268859   6.549   4.925   5.235 -0.2861 -0.1621 -0.3425
15815TIP3    H168860   6.486   4.856   5.212  0.0483 -0.8893  0.8644
15815TIP3    H268861   6.606   4.885   5.300  0.4235  1.0106 -0.2199
15816TIP3   OH268862   3.201   4.187  10.990  1.0016  0.1617  0.2969
15816TIP3    H168863   3.238   4.215  10.906  0.1207  0.5129  0.0091
15816TIP3    H268864   3.178   4.095  10.977  0.3078  0.3770 -0.0617
15817TIP3   OH268865   4.747   6.168  16.362  0.5324 -0.6032  0.0816
15817TIP3    H168866   4.778   6.232  16.426  0.6772 -1.2825  0.7029
15817TIP3    H268867   4.652   6.170  16.369  0.5057  0.0546 -0.4136
15818TIP3   OH268868   3.775   5.621   0.640  0.6212  0.0129  0.4963
15818TIP3    H168869   3.746   5.568   0.715  0.0176 -0.7744 -0.2746
15818TIP3    H268870   3.701   5.618   0.579  2.5249 -2.8624 -1.9899
15819TIP3   OH268871   3.264   4.854   2.993 -0.0099 -0.2673  0.4815
15819TIP3    H168872   3.311   4.904   2.928  0.4138 -2.5861 -1.1330
15819TIP3    H268873   3.330   4.796   3.032 -0.9278 -1.5633  0.2057
15820TIP3   OH268874   3.012   1.804  14.467  0.2895 -0.5501 -0.1497
15820TIP3    H168875   2.979   1.842  14.549  2.0664 -1.5693  1.1313
15820TIP3    H268876   2.985   1.866  14.399  1.7247  2.2638  1.6214
15821TIP3   OH268877   1.983   5.432   5.631 -0.1031 -0.2637 -0.0798
15821TIP3    H168878   1.951   5.455   5.718 -0.8736 -0.4985 -0.2967
15821TIP3    H268879   2.060   5.376   5.648 -0.2072 -0.2522  0.4481
15822TIP3   OH268880   5.560   5.044   2.688 -0.4979  0.0442  0.3006
15822TIP3    H168881   5.590   5.018   2.775  0.2774  0.9657  0.3149
15822TIP3    H268882   5.613   4.991   2.628  1.2676  1.6603  0.3240
15823TIP3   OH268883   0.155   1.226  15.043  0.1639  0.3021  0.5330
15823TIP3    H168884   0.223   1.168  15.077 -1.0575 -0.7741  1.2222
15823TIP3    H268885   0.141   1.197  14.953  1.0084  0.9233  0.1848
15824TIP3   OH268886   1.410   3.467   5.822  0.2045  0.3840  0.4439
15824TIP3    H168887   1.502   3.442   5.825  0.1697  0.0953 -0.5533
15824TIP3    H268888   1.397   3.522   5.900  0.7252 -1.2163  1.7315
15825TIP3   OH268889   4.945   2.650  15.208  0.1282  0.2065 -0.1154
15825TIP3    H168890   4.950   2.711  15.282 -0.1180  1.3355 -0.9999
15825TIP3    H268891   5.036   2.632  15.186  0.2568 -1.5595  1.5459
15826TIP3   OH268892   4.950   0.989  14.464 -0.2071 -0.0861  0.1209
15826TIP3    H168893   4.938   1.047  14.388  1.2688 -1.5296 -1.2997
15826TIP3    H268894   4.880   0.924  14.455  0.3793 -0.6613 -0.4500
15827TIP3   OH268895   5.333   6.262  11.567 -0.7022  0.0271  0.1582
15827TIP3    H168896   5.378   6.294  11.488 -0.4296  0.2315  0.3908
15827TIP3    H268897   5.305   6.342  11.612 -2.0109 -0.1106 -0.3801
15828TIP3   OH268898   6.587   2.632  16.599 -0.0005 -0.0555  0.5318
15828TIP3    H168899   6.608   2.677  16.517  1.5178  0.8684  1.3803
15828TIP3    H268900   6.553   2.702  16.656 -0.4059 -0.5647  0.9218
15829TIP3   OH268901   1.731   1.393   0.287 -0.2611  0.1977  0.0681
15829TIP3    H168902   1.674   1.446   0.231  0.0483  0.8477  0.3543
15829TIP3    H268903   1.818   1.400   0.247 -0.5160 -1.5258 -0.8804
15830TIP3   OH268904   6.284   5.009   5.288 -0.7315 -0.0982 -0.2461
15830TIP3    H168905   6.379   5.010   5.293 -0.7803 -0.6274  2.0071
15830TIP3    H268906   6.257   5.099   5.303 -0.5891 -0.1093  0.0881
15831TIP3   OH268907   5.152   4.325   0.410  0.0016 -0.4943 -0.3532
15831TIP3    H168908   5.064   4.288   0.396 -1.4608  2.5767 -0.0587
15831TIP3    H268909   5.146   4.369   0.495  2.9017 -2.8322  1.2702
15832TIP3   OH268910   1.611   0.107   1.137  0.8665 -0.2368  0.4738
15832TIP3    H168911   1.587   0.029   1.088  0.1641  1.0041 -1.2801
15832TIP3    H268912   1.702   0.124   1.113  1.2857 -0.9587  1.5097
15833TIP3   OH268913   1.665   1.681  12.791  0.2036  0.0208  0.5342
15833TIP3    H168914   1.636   1.713  12.877 -0.7140 -1.1842  0.6968
15833TIP3    H268915   1.745   1.632  12.810  0.5756  0.6343  0.5506
15834TIP3   OH268916   6.380   4.971   6.323  0.3666 -0.4791  0.0969
15834TIP3    H168917   6.470   4.947   6.299  0.1156 -1.1907 -0.1948
15834TIP3    H268918   6.382   5.066   6.333  1.2599 -0.5375  0.5757
15835TIP3   OH268919   0.876   3.193   4.124  0.3266 -0.0910 -0.6084
15835TIP3    H168920   0.820   3.249   4.177 -1.1231  0.0172 -2.1579
15835TIP3    H268921   0.855   3.104   4.154  0.6171  0.0364 -0.0080
15836TIP3   OH268922   2.711   3.272  11.331  0.5761  0.5153 -0.2681
15836TIP3    H168923   2.644   3.227  11.279 -0.0217  0.1301  0.8065
15836TIP3    H268924   2.662   3.326  11.392  1.2232 -0.0419  0.7785
15837TIP3   OH268925   4.242   5.520   1.118 -0.0019 -0.7244  0.4285
15837TIP3    H168926   4.188   5.469   1.058  0.9777  0.1923 -1.2767
15837TIP3    H268927   4.330   5.483   1.110  0.4459  0.3532  0.1513
15838TIP3   OH268928   3.991   1.360  11.009  0.1721 -0.0003 -0.0276
15838TIP3    H168929   4.078   1.324  10.995  0.4748 -0.0356  1.6853
15838TIP3    H268930   3.939   1.285  11.040 -0.1226  0.2896  0.1829
15839TIP3   OH268931   2.053   5.424  13.385  0.3291  0.2524 -0.3737
15839TIP3    H168932   1.970   5.400  13.426  0.0151  2.2474  0.2991
15839TIP3    H268933   2.032   5.435  13.292  0.5966 -2.3127 -0.8076
15840TIP3   OH268934   3.932   0.320  11.028 -0.0917 -0.1973 -0.0381
15840TIP3    H168935   3.928   0.293  11.120  1.6215  0.5716  0.2931
15840TIP3    H268936   3.969   0.245  10.982  0.1057 -0.1755  0.0850
15841TIP3   OH268937   1.563   5.693   1.291  0.2189 -0.0958 -0.3136
15841TIP3    H168938   1.623   5.763   1.268  0.9346 -1.4985 -3.1905
15841TIP3    H268939   1.476   5.732   1.284  0.5722  0.4654 -2.4926
15842TIP3   OH268940   2.423   1.106   4.416  0.0325  0.2643 -0.0963
15842TIP3    H168941   2.363   1.111   4.490 -0.6914 -0.6843 -0.6077
15842TIP3    H268942   2.469   1.190   4.417 -0.5405  0.5784  0.9424
15843TIP3   OH268943   1.772   0.003  15.039 -0.0277  0.5505 -0.5183
15843TIP3    H168944   1.749  -0.018  15.130  1.6759  1.7641  0.2598
15843TIP3    H268945   1.758  -0.078  14.991  1.7200 -1.0112  1.4059
15844TIP3   OH268946   2.227   4.471  13.527 -0.6286  0.0654  0.0867
15844TIP3    H168947   2.168   4.476  13.602  0.3580 -0.7021  0.9478
15844TIP3    H268948   2.310   4.442  13.564  0.0120  0.1263 -1.2443
15845TIP3   OH268949   5.513   0.798   0.132 -0.2600  0.3311 -0.1929
15845TIP3    H168950   5.461   0.743   0.191  0.2170 -2.8349 -2.4922
15845TIP3    H268951   5.447   0.849   0.084 -0.6991  2.0945  2.1005
15846TIP3   OH268952   0.434   4.307  17.016  0.8239 -0.0847 -0.1943
15846TIP3    H168953   0.473   4.306  17.103 -1.4343  1.0054  0.9030
15846TIP3    H268954   0.402   4.218  17.002 -1.2967  0.3644  1.3632
15847TIP3   OH268955   4.682   1.027  14.874 -0.5170 -0.5761 -0.3476
15847TIP3    H168956   4.744   1.093  14.843 -0.1272 -1.4255 -1.4449
15847TIP3    H268957   4.596   1.068  14.863 -0.2133  0.2205  0.1980
15848TIP3   OH268958   2.152   3.072  15.354  1.0774  0.0686 -0.5099
15848TIP3    H168959   2.098   3.107  15.282  0.3326  0.4052  0.1961
15848TIP3    H268960   2.093   3.070  15.429  0.7699 -3.5785 -0.6879
15849TIP3   OH268961   4.819   2.724   4.950  0.0496  0.0097  0.4318
15849TIP3    H168962   4.780   2.665   5.014 -1.9308  0.5741 -0.1856
15849TIP3    H268963   4.884   2.773   5.000  0.7902 -1.7118  1.2590
15850TIP3   OH268964   6.660   1.850  13.855 -0.0077 -0.4445  0.4448
15850TIP3    H168965   6.635   1.942  13.851  0.9386 -0.1289  1.1991
15850TIP3    H268966   6.676   1.825  13.764  0.4894  0.3762  0.2950
15851TIP3   OH268967   0.633   4.041   1.596  0.5318  0.4639  0.2777
15851TIP3    H168968   0.538   4.050   1.585  0.7778  2.8947 -0.5212
15851TIP3    H268969   0.665   4.013   1.510  0.5553 -0.4353  0.5691
15852TIP3   OH268970   1.108   0.706   3.826 -0.3322 -0.3737 -0.3190
15852TIP3    H168971   1.066   0.775   3.776 -0.0113 -0.8102 -1.2193
15852TIP3    H268972   1.170   0.666   3.764  0.6785 -0.3888  0.6707
15853TIP3   OH268973   5.615   5.841   0.366  0.0844 -0.8182 -0.3060
15853TIP3    H168974   5.538   5.802   0.325 -0.4270 -0.5193  0.3441
15853TIP3    H268975   5.583   5.873   0.451  0.8047 -0.2258 -0.2459
15854TIP3   OH268976   4.330   5.898  17.330 -0.2433  0.1438  0.3634
15854TIP3    H168977   4.364   5.818  17.292 -2.0709 -0.4601 -0.1244
15854TIP3    H268978   4.330   5.961  17.259 -1.5988 -0.3368 -0.0920
15855TIP3   OH268979   5.299   5.766   6.231 -0.3036 -0.0302 -0.3175
15855TIP3    H168980   5.335   5.691   6.277  2.1180  1.5518  0.5595
15855TIP3    H268981   5.264   5.822   6.301  0.5371  0.9518 -0.6623
15856TIP3   OH268982   2.063   0.140  12.705  0.1935  0.5625  0.1676
15856TIP3    H168983   2.129   0.131  12.636 -2.2584 -0.5750 -2.2221
15856TIP3    H268984   2.052   0.234  12.716  1.0829  0.7581 -0.5321
15857TIP3   OH268985   5.365   0.187   1.780 -0.3966  0.2770  0.0616
15857TIP3    H168986   5.279   0.192   1.738 -0.4203 -0.2079  0.0492
15857TIP3    H268987   5.387   0.094   1.779 -0.6803  0.1624  1.6861
15858TIP3   OH268988   0.379   3.785  11.881  0.3383  0.8196  0.4598
15858TIP3    H168989   0.392   3.738  11.799 -1.3222  3.0679 -1.2117
15858TIP3    H268990   0.310   3.735  11.926 -1.7797  1.7634 -1.5182
15859TIP3   OH268991   5.921   3.773   2.617  0.0273 -0.1212  0.4166
15859TIP3    H168992   5.854   3.809   2.675 -1.2235  1.1908 -1.7010
15859TIP3    H268993   5.947   3.847   2.561  2.4954 -0.8668  0.4508
15860TIP3   OH268994   6.444   3.869   1.044  0.0989 -0.5620  0.2152
15860TIP3    H168995   6.429   3.903   0.956  1.3436 -0.5908 -0.0253
15860TIP3    H268996   6.357   3.863   1.083 -0.2761  4.6149  0.9467
15861TIP3   OH268997   4.219   2.949   5.031  0.2981 -0.2188  0.7127
15861TIP3    H168998   4.255   3.036   5.016  0.4545 -0.5335 -0.9133
15861TIP3    H268999   4.284   2.905   5.085  0.5626  0.4372  0.9322
15862TIP3   OH269000   3.094   4.415   4.667 -0.2390  0.3904 -0.8965
15862TIP3    H169001   3.185   4.443   4.664 -0.7154  2.2181  0.2404
15862TIP3    H269002   3.065   4.420   4.576 -0.4426  4.4554 -0.7651
15863TIP3   OH269003   3.000   5.309   3.409  0.1294 -0.4669 -0.2793
15863TIP3    H169004   2.983   5.403   3.407  0.9468 -0.3113 -0.0009
15863TIP3    H269005   3.095   5.301   3.403  0.0503 -1.2902 -0.6094
15864TIP3   OH269006   4.412   0.304  14.066 -0.5537 -0.1832  0.1710
15864TIP3    H169007   4.337   0.246  14.051 -0.5331 -0.4602  1.0789
15864TIP3    H269008   4.390   0.351  14.147 -0.1296  0.3709 -0.0242
15865TIP3   OH269009   1.619   3.333  15.202  0.2065  0.0765 -0.0146
15865TIP3    H169010   1.711   3.309  15.187  0.4589  2.0144 -2.1707
15865TIP3    H269011   1.623   3.411  15.257 -0.0875  0.4863 -0.5594
15866TIP3   OH269012   4.392   0.587  16.171  0.4572  0.5435  0.2277
15866TIP3    H169013   4.444   0.538  16.235 -3.3894 -0.3420  3.0596
15866TIP3    H269014   4.376   0.672  16.212 -1.5818  0.1821  0.2985
15867TIP3   OH269015   0.603   2.659   2.268  0.1604 -0.3494  0.2376
15867TIP3    H169016   0.592   2.564   2.268  1.5600 -0.5443  1.2211
15867TIP3    H269017   0.670   2.675   2.334  0.5866  1.2567 -0.5341
15868TIP3   OH269018   3.234   5.794   3.312  0.0268 -0.3506 -0.0129
15868TIP3    H169019   3.327   5.807   3.295 -0.0040 -0.3535 -0.1825
15868TIP3    H269020   3.196   5.882   3.302 -0.0895 -0.4635 -0.5752
15869TIP3   OH269021   2.832   4.461  12.369 -0.3620 -0.1770  0.1375
15869TIP3    H169022   2.858   4.515  12.294  2.6104 -2.6161 -0.7592
15869TIP3    H269023   2.840   4.519  12.444  0.6999  1.2240 -0.9957
15870TIP3   OH269024   0.119   1.996  12.848  0.1382  0.3589  0.1653
15870TIP3    H169025   0.193   1.937  12.830  0.5117 -0.3411  3.3242
15870TIP3    H269026   0.060   1.985  12.774  0.7816 -3.1516  0.0150
15871TIP3   OH269027   4.771   5.525   5.792  0.3900  0.2099  0.2646
15871TIP3    H169028   4.843   5.478   5.750  0.5490  1.2122 -0.6041
15871TIP3    H269029   4.752   5.473   5.871  0.4333 -1.4247 -0.7403
15872TIP3   OH269030   0.522   0.584   2.212 -0.5153 -0.3654  0.0650
15872TIP3    H169031   0.470   0.623   2.142 -1.1950 -0.4500  0.5116
15872TIP3    H269032   0.457   0.555   2.277  0.0166 -1.4810  0.1244
15873TIP3   OH269033   0.339   6.678  14.064  0.0155 -0.4985  0.1350
15873TIP3    H169034   0.356   6.768  14.037  0.9554 -0.9247 -0.7819
15873TIP3    H269035   0.423   6.647  14.099 -0.0663 -1.2762 -0.3376
15874TIP3   OH269036   4.329   3.201   2.763  0.9171 -0.2147 -0.0007
15874TIP3    H169037   4.357   3.117   2.726 -0.0128 -0.2194 -0.7169
15874TIP3    H269038   4.259   3.231   2.705  1.9267  1.5613 -0.3533
15875TIP3   OH269039   0.404   2.457  11.460 -0.1873  0.0113 -0.3537
15875TIP3    H169040   0.496   2.474  11.440  0.1981 -0.1745  1.1355
15875TIP3    H269041   0.403   2.367  11.493 -0.5266  0.6781  1.6261
15876TIP3   OH269042   0.732   5.283   0.626  0.1538 -0.1682 -0.2579
15876TIP3    H169043   0.637   5.293   0.618 -0.1889 -2.7275 -0.2227
15876TIP3    H269044   0.746   5.248   0.714  1.1856  0.4530 -0.1494
15877TIP3   OH269045   2.689   3.233   2.318  0.3107 -0.3929  0.1324
15877TIP3    H169046   2.783   3.220   2.327  0.1981 -1.4941 -0.1218
15877TIP3    H269047   2.679   3.327   2.303  1.3491 -0.2355  0.3400
15878TIP3   OH269048   5.157   4.993  15.221  0.1515  0.1161  0.4914
15878TIP3    H169049   5.230   4.999  15.160 -0.2371  2.2059  0.1413
15878TIP3    H269050   5.161   4.904  15.256 -0.1216 -1.4893 -3.1659
15879TIP3   OH269051   3.364   2.325   1.290 -0.4567  0.0651 -0.5977
15879TIP3    H169052   3.349   2.306   1.197 -0.2168 -0.9744 -0.4320
15879TIP3    H269053   3.456   2.350   1.294 -0.3051 -0.4972 -0.5485
15880TIP3   OH269054   1.971   2.476  12.856  0.7368 -0.1087  0.1376
15880TIP3    H169055   2.016   2.460  12.939  1.0116 -1.0275 -0.1744
15880TIP3    H269056   1.981   2.570  12.841 -0.1834  0.2697  1.6358
15881TIP3   OH269057   3.730   6.031  14.491 -0.4081  0.3330  0.1962
15881TIP3    H169058   3.777   5.976  14.429 -2.4568 -0.0954 -1.0753
15881TIP3    H269059   3.778   6.114  14.492  1.5677 -0.7412  0.6291
15882TIP3   OH269060   6.268   5.931  11.005 -0.2991  0.1327 -0.0592
15882TIP3    H169061   6.294   5.921  11.096  1.5105  1.4073 -0.3832
15882TIP3    H269062   6.181   5.891  11.000 -0.8472  0.8693  2.4164
15883TIP3   OH269063   2.322   3.819  16.137  0.2681  0.8004  0.0772
15883TIP3    H169064   2.381   3.894  16.146  2.7071 -0.7728 -1.5429
15883TIP3    H269065   2.378   3.743  16.150 -1.4209 -0.8134 -1.5123
15884TIP3   OH269066   2.601   1.465   0.302 -0.2618  0.1585  0.4935
15884TIP3    H169067   2.649   1.433   0.226 -0.8123  0.5267 -0.0235
15884TIP3    H269068   2.664   1.520   0.349 -0.4575  1.5659 -0.7833
15885TIP3   OH269069   3.467   2.806   4.685 -0.1395  0.2461  0.5260
15885TIP3    H169070   3.481   2.721   4.725  1.6536  0.3972  0.3450
15885TIP3    H269071   3.373   2.822   4.692 -0.4563 -1.5848  0.8460
15886TIP3   OH269072   1.315   6.157   5.202  0.0969  0.1962 -0.8521
15886TIP3    H169073   1.284   6.072   5.233 -0.9810  0.9431  0.2113
15886TIP3    H269074   1.235   6.203   5.175  0.6262  1.0153 -1.0569
15887TIP3   OH269075   2.173   0.903  14.602  0.2127 -0.0261  0.1302
15887TIP3    H169076   2.099   0.959  14.626  0.1711 -0.6389  1.5327
15887TIP3    H269077   2.132   0.819  14.581  0.3689  0.1482 -0.9361
15888TIP3   OH269078   4.938   3.829   2.164  0.4961 -0.0976 -0.9150
15888TIP3    H169079   5.018   3.877   2.184  0.1140 -0.2241  1.1158
15888TIP3    H269080   4.904   3.802   2.249 -1.4990 -0.3999 -1.7501
15889TIP3   OH269081   4.766   6.286  15.539 -0.2722 -0.3966 -0.8614
15889TIP3    H169082   4.822   6.291  15.616 -0.3622 -0.4250 -0.7934
15889TIP3    H269083   4.816   6.328  15.469 -1.3063  2.2436 -0.1357
15890TIP3   OH269084   0.096   6.533  11.281 -0.1473  0.1470 -0.1954
15890TIP3    H169085   0.088   6.599  11.350  3.6484 -0.6119  1.2507
15890TIP3    H269086   0.053   6.455  11.316 -0.8869  0.6212 -0.0365
15891TIP3   OH269087   1.721   5.476  13.072 -0.1051 -0.3042  0.1556
15891TIP3    H169088   1.682   5.399  13.032 -0.3636 -0.5370  0.8436
15891TIP3    H269089   1.663   5.498  13.145 -0.3045  0.8345 -0.3193
15892TIP3   OH269090   3.576   3.098  12.688  0.1865  0.5212  0.2246
15892TIP3    H169091   3.545   3.189  12.685 -0.2313  0.3785  0.1290
15892TIP3    H269092   3.666   3.103  12.657 -0.5842  0.5799 -2.2112
15893TIP3   OH269093   5.393   3.258  12.601  0.3736 -0.3161  0.3449
15893TIP3    H169094   5.313   3.210  12.620 -0.4510  0.8821 -0.0487
15893TIP3    H269095   5.458   3.221  12.662 -1.1547  0.6209  2.6895
15894TIP3   OH269096   2.138   0.488  17.173 -0.7892 -0.4020 -0.7985
15894TIP3    H169097   2.186   0.566  17.197 -1.4017 -0.5209  0.8953
15894TIP3    H269098   2.173   0.419  17.229 -1.2258 -1.0423 -1.2916
15895TIP3   OH269099   4.882   3.345   2.533  0.4761  0.4596 -0.3094
15895TIP3    H169100   4.898   3.378   2.622  0.8964  2.5267 -1.0900
15895TIP3    H269101   4.801   3.294   2.541  0.8467  0.0844  1.3665
15896TIP3   OH269102   6.076   4.326   2.985 -0.5395 -0.1507  0.2377
15896TIP3    H169103   6.113   4.373   2.910  0.6639  1.2060  1.5902
15896TIP3    H269104   5.988   4.363   2.995  0.0173  1.1302  0.6582
15897TIP3   OH269105   5.550   2.468  10.630  0.2114  0.1323 -0.1913
15897TIP3    H169106   5.499   2.549  10.624 -1.0675 -0.5991  0.2832
15897TIP3    H269107   5.486   2.402  10.656  1.5896 -0.6775  1.2924
15898TIP3   OH269108   2.666   3.495   4.444  0.2635 -0.6877  0.2247
15898TIP3    H169109   2.575   3.474   4.464  0.6649 -0.7979  2.1061
15898TIP3    H269110   2.681   3.579   4.487  0.5935  0.2132 -1.5574
15899TIP3   OH269111   5.337   5.449  16.743  0.1475 -0.0777 -0.4306
15899TIP3    H169112   5.332   5.541  16.770  0.2541 -0.7792  2.3512
15899TIP3    H269113   5.278   5.443  16.668 -2.7365  1.6074  1.5028
15900TIP3   OH269114   5.728   3.913  16.968 -0.2065  0.2482 -0.5004
15900TIP3    H169115   5.708   3.985  16.907  1.1553  1.3850  0.3285
15900TIP3    H269116   5.650   3.907  17.024 -1.7023 -1.1622 -2.5979
15901TIP3   OH269117   3.502   2.370   2.081 -0.0940 -0.1026  0.4328
15901TIP3    H169118   3.463   2.355   1.995  1.6515  2.1400 -0.8737
15901TIP3    H269119   3.438   2.423   2.129  0.5445  2.1859 -1.0928
15902TIP3   OH269120   3.041   2.520  16.975 -0.1973 -0.0621 -0.1789
15902TIP3    H169121   2.973   2.583  17.000 -0.8505 -0.3293 -1.2224
15902TIP3    H269122   3.070   2.483  17.058 -1.1758  0.2202  0.3076
15903TIP3   OH269123   4.027   0.837  12.547  0.2748 -0.3751  0.4609
15903TIP3    H169124   3.994   0.887  12.622  0.8893  0.4662  0.1837
15903TIP3    H269125   3.949   0.814  12.498 -0.1056 -0.6206  1.1612
15904TIP3   OH269126   4.852   1.470  13.273 -0.2569  0.1185 -0.6620
15904TIP3    H169127   4.938   1.469  13.230 -1.1349 -2.6322 -2.6565
15904TIP3    H269128   4.853   1.393  13.330 -0.6418  1.3765  1.1144
15905TIP3   OH269129   5.718   4.244  16.837 -0.4951 -0.3432 -0.3836
15905TIP3    H169130   5.737   4.202  16.753  0.8387  1.0317 -0.8022
15905TIP3    H269131   5.784   4.312  16.845 -1.6434  0.6532  1.0019
15906TIP3   OH269132   3.794   3.649   1.197 -0.1491  0.2318  0.2773
15906TIP3    H169133   3.749   3.565   1.209  0.4729 -0.0734  0.5073
15906TIP3    H269134   3.745   3.692   1.126 -1.6137  0.4812  1.3836
15907TIP3   OH269135   1.055   5.232   2.174  1.0575  0.2512 -0.4378
15907TIP3    H169136   1.144   5.267   2.177  0.8501  0.7584 -0.1689
15907TIP3    H269137   1.051   5.171   2.247  1.7671 -1.2015 -1.5629
15908TIP3   OH269138   0.137   2.065  13.393  0.0448  0.3818 -0.1030
15908TIP3    H169139   0.046   2.067  13.362  0.5045  1.4844 -1.4477
15908TIP3    H269140   0.177   1.992  13.346 -0.6130 -1.4445  2.0102
15909TIP3   OH269141   0.654   4.512  16.268  0.7640 -0.0938  0.4741
15909TIP3    H169142   0.733   4.566  16.266  0.8184 -0.1891 -0.3763
15909TIP3    H269143   0.584   4.571  16.242  0.8330 -0.4303 -0.5226
15910TIP3   OH269144   0.743   4.188   4.571  0.0564  0.3379 -0.0510
15910TIP3    H169145   0.745   4.231   4.656 -3.1434  0.1960  0.1886
15910TIP3    H269146   0.695   4.107   4.585 -1.4135  0.7632 -2.1125
15911TIP3   OH269147   4.836   0.443  14.281  0.3170 -0.0159  0.0748
15911TIP3    H169148   4.769   0.406  14.338  0.1489  0.4544  0.1827
15911TIP3    H269149   4.849   0.532  14.312  0.0783  0.3163 -0.7406
15912TIP3   OH269150   1.823   2.852  12.642 -0.3261 -0.0924 -0.3833
15912TIP3    H169151   1.734   2.845  12.607 -1.5268  2.1074  1.9270
15912TIP3    H269152   1.811   2.852  12.737  2.2882 -0.8603  0.0220
15913TIP3   OH269153   2.212   6.117   1.128 -0.3845 -0.0961 -0.0681
15913TIP3    H169154   2.303   6.141   1.110  0.2662 -0.6435  2.1310
15913TIP3    H269155   2.168   6.122   1.043  1.8402 -0.4722 -1.3081
15914TIP3   OH269156   0.300   2.187  16.962  0.1968  0.5484  0.2027
15914TIP3    H169157   0.294   2.282  16.975 -1.9221  0.5024 -0.1112
15914TIP3    H269158   0.318   2.153  17.050 -2.6956  1.0476  1.1001
15915TIP3   OH269159   6.550   1.970   3.976  0.5175  0.6353  0.0840
15915TIP3    H169160   6.627   2.013   3.940  1.1181 -0.7188 -0.3241
15915TIP3    H269161   6.485   1.972   3.905  0.5851  0.7599  0.0265
15916TIP3   OH269162   0.325   5.570   3.710 -0.4139  0.2928 -0.0994
15916TIP3    H169163   0.392   5.622   3.666 -0.4584  0.9560  0.5960
15916TIP3    H269164   0.368   5.486   3.727 -0.0695  0.3852 -0.5071
15917TIP3   OH269165   5.464   2.362  12.290 -0.3060  0.3240  0.4852
15917TIP3    H169166   5.446   2.270  12.309  0.1011  0.4010  1.2894
15917TIP3    H269167   5.425   2.377  12.204  0.2574 -0.7911  0.0120
15918TIP3   OH269168   2.604   5.498   1.801  0.6185 -0.2403  0.1861
15918TIP3    H169169   2.694   5.481   1.775  0.5391 -1.8522  0.8102
15918TIP3    H269170   2.606   5.584   1.841  1.7300  0.0561 -0.4629
15919TIP3   OH269171   5.784   1.832  10.894  0.1675 -0.2950  0.5329
15919TIP3    H169172   5.697   1.821  10.932  0.1611 -0.2198  0.5390
15919TIP3    H269173   5.837   1.762  10.933 -0.3186 -1.4200 -0.7341
15920TIP3   OH269174   2.023   1.294  14.712 -0.4357  0.1479  0.6520
15920TIP3    H169175   1.932   1.288  14.741 -0.2751 -4.9483  1.0852
15920TIP3    H269176   2.020   1.276  14.618  0.0406  2.9403  0.0251
15921TIP3   OH269177   4.248   4.363   1.566  0.4663  0.6437  0.1305
15921TIP3    H169178   4.317   4.298   1.567 -0.2084 -0.1330 -1.3103
15921TIP3    H269179   4.169   4.315   1.541 -1.1289  1.0498  3.6969
15922TIP3   OH269180   5.696   0.159  12.030  0.1819  0.2145 -0.7828
15922TIP3    H169181   5.619   0.136  11.978 -1.7611  2.8968  0.6736
15922TIP3    H269182   5.691   0.254  12.041  3.8910  0.5588 -0.7998
15923TIP3   OH269183   0.405   6.262  11.989 -0.4799  0.2046 -0.0050
15923TIP3    H169184   0.459   6.190  11.956 -1.9844 -1.5284  1.1542
15923TIP3    H269185   0.448   6.290  12.070  0.9857  1.7647 -1.2456
15924TIP3   OH269186   5.479   6.448   0.448 -0.4155  0.1917  0.0468
15924TIP3    H169187   5.574   6.443   0.440 -0.4652 -0.0848 -0.4557
15924TIP3    H269188   5.447   6.372   0.399 -0.8187 -1.0862  2.1576
15925TIP3   OH269189   2.317   3.406   4.778 -0.1200 -0.1170 -0.0534
15925TIP3    H169190   2.290   3.445   4.861  2.0488 -0.3897  0.8326
15925TIP3    H269191   2.286   3.316   4.782 -1.8010  0.4137 -0.4579
15926TIP3   OH269192   2.759   5.363  13.262  0.0010  0.4230 -0.1042
15926TIP3    H169193   2.817   5.355  13.186  0.5114 -0.5825  0.3720
15926TIP3    H269194   2.676   5.326  13.233  1.2504 -3.7239  0.9071
15927TIP3   OH269195   1.059   1.715   5.660 -0.4222  0.0508 -0.4365
15927TIP3    H169196   1.100   1.629   5.666  0.6036  0.5822  0.4284
15927TIP3    H269197   1.125   1.771   5.619 -0.1651  0.9525  1.1050
15928TIP3   OH269198   5.819   3.585   1.065  0.3288 -0.4122  0.0901
15928TIP3    H169199   5.887   3.602   1.000 -0.9386  3.0468 -0.5823
15928TIP3    H269200   5.740   3.565   1.015  0.0739 -1.0433  0.7163
15929TIP3   OH269201   1.075   1.664   2.460  0.2852  0.1737 -0.3695
15929TIP3    H169202   1.167   1.664   2.431  0.4036  1.5081 -0.0854
15929TIP3    H269203   1.025   1.654   2.380  0.6792  0.2638 -0.6326
15930TIP3   OH269204   3.907   5.324  11.466 -0.0079  0.3972  0.2861
15930TIP3    H169205   3.978   5.307  11.404  0.4674  1.3178  0.5612
15930TIP3    H269206   3.830   5.341  11.411  0.3156  0.8036 -0.0468
15931TIP3   OH269207   1.401   4.137   2.396 -0.1061 -0.7333 -0.3094
15931TIP3    H169208   1.437   4.104   2.315  0.0709  0.4318 -0.7225
15931TIP3    H269209   1.380   4.228   2.378  0.0393 -0.4211  0.9837
15932TIP3   OH269210   6.375   1.575   1.561 -0.7977  0.5648 -0.8240
15932TIP3    H169211   6.431   1.506   1.526  0.3059  0.3680  1.1449
15932TIP3    H269212   6.431   1.652   1.564 -0.8640  0.5902  0.3596
15933TIP3   OH269213   5.582   1.143  16.002 -0.1614  0.5873  0.6555
15933TIP3    H169214   5.592   1.119  16.095 -2.0169  1.0937  1.0291
15933TIP3    H269215   5.652   1.206  15.986  2.6437 -2.2966  0.5886
15934TIP3   OH269216   2.860   5.974   3.806 -0.2012 -0.0750 -0.2676
15934TIP3    H169217   2.936   5.984   3.749 -0.8760 -0.6008 -1.2859
15934TIP3    H269218   2.887   5.911   3.872  0.0744 -0.6883 -0.9536
15935TIP3   OH269219   3.273   4.627   0.719 -0.3035  0.1659  0.2967
15935TIP3    H169220   3.359   4.606   0.683 -0.1735 -0.7289  1.0666
15935TIP3    H269221   3.285   4.622   0.814 -1.1770  0.1188  0.4124
15936TIP3   OH269222   2.489   5.369   5.077  0.3313 -0.2236 -0.2275
15936TIP3    H169223   2.437   5.414   5.011 -1.5234 -1.5419  0.2514
15936TIP3    H269224   2.439   5.290   5.098  1.2474 -0.2728  2.1449
15937TIP3   OH269225   6.743   6.263  17.314  0.5399  0.4964 -0.3483
15937TIP3    H169226   6.665   6.218  17.281  1.3726 -0.5812 -0.8942
15937TIP3    H269227   6.715   6.354  17.326 -0.4502  0.3998 -1.7349
15938TIP3   OH269228   1.559   1.397  16.005 -0.2727  0.2873 -0.0750
15938TIP3    H169229   1.569   1.394  16.100 -0.0976 -2.4668 -0.1046
15938TIP3    H269230   1.472   1.360  15.989  1.2697 -3.3814 -1.0529
15939TIP3   OH269231   4.177   3.871   2.363  0.4723  0.6269 -0.2766
15939TIP3    H169232   4.236   3.814   2.313  3.2431  1.9369  1.2445
15939TIP3    H269233   4.102   3.816   2.382  1.5658 -1.4787 -1.5876
15940TIP3   OH269234   2.832   3.101  12.908 -0.1941  0.5429  0.2428
15940TIP3    H169235   2.826   3.176  12.849  0.0274  1.5158  1.4090
15940TIP3    H269236   2.745   3.096  12.948 -0.6212 -0.6619 -0.7752
15941TIP3   OH269237   1.481   5.739  11.791 -0.4512  0.3588  0.5352
15941TIP3    H169238   1.566   5.695  11.781 -0.7590 -0.4256  1.2457
15941TIP3    H269239   1.433   5.717  11.711 -0.4405 -0.2432  0.6886
15942TIP3   OH269240   5.415   0.524   4.361  0.1040 -0.0780 -0.3086
15942TIP3    H169241   5.482   0.585   4.332  1.6652 -1.4359  0.2689
15942TIP3    H269242   5.428   0.516   4.456 -1.1371 -0.0856 -0.1195
15943TIP3   OH269243   4.918   1.563  15.051  0.0928 -0.4916 -0.2611
15943TIP3    H169244   4.856   1.626  15.088  0.0641 -0.7944  0.2130
15943TIP3    H269245   4.984   1.553  15.119  0.9929  0.2837 -1.0011
15944TIP3   OH269246   1.193   6.184  15.851 -0.1684 -0.3457 -0.6466
15944TIP3    H169247   1.190   6.094  15.820  1.5689  0.0800 -2.2469
15944TIP3    H269248   1.278   6.216  15.823  0.7443  0.7895  2.8563
15945TIP3   OH269249   4.084   2.448   3.646  0.2435 -0.0091  0.3858
15945TIP3    H169250   4.098   2.542   3.644 -1.4752  0.2658  0.3693
15945TIP3    H269251   4.143   2.413   3.579 -0.4719  1.2512 -0.9440
15946TIP3   OH269252   6.695   0.572  13.566 -0.3021  0.0140 -0.0454
15946TIP3    H169253   6.760   0.548  13.632 -0.1987  3.2426  1.1793
15946TIP3    H269254   6.625   0.507  13.578  1.8024 -2.4636 -0.2029
15947TIP3   OH269255   1.278   5.316  11.086  0.1521  0.3985 -0.0078
15947TIP3    H169256   1.338   5.324  11.159 -2.4694 -0.4302  2.4048
15947TIP3    H269257   1.288   5.226  11.056 -1.1016 -0.3314  1.6225
15948TIP3   OH269258   4.557   0.933   4.054 -0.1881 -0.2710  0.5375
15948TIP3    H169259   4.562   0.838   4.062 -1.5607 -0.4805 -0.6507
15948TIP3    H269260   4.477   0.957   4.100 -0.4628  0.1592 -0.1507
15949TIP3   OH269261   6.357   5.802  11.495 -0.0002  0.3103  0.0445
15949TIP3    H169262   6.298   5.726  11.498 -0.2318  0.2835 -2.6951
15949TIP3    H269263   6.438   5.771  11.537 -0.0834 -1.4873 -1.0303
15950TIP3   OH269264   3.869   5.442   1.119  0.3651  0.3948  0.0927
15950TIP3    H169265   3.899   5.471   1.205  0.3969 -0.1610  0.2676
15950TIP3    H269266   3.774   5.449   1.123  0.4192  1.9341 -0.3837
15951TIP3   OH269267   3.743   0.000   1.467 -0.3554 -0.7477 -0.0750
15951TIP3    H169268   3.713  -0.041   1.548 -2.1326 -1.6016 -1.1134
15951TIP3    H269269   3.803  -0.063   1.429  0.0711 -0.5781  0.3063
15952TIP3   OH269270   1.534   5.950   5.264  0.2162 -0.1317 -0.2108
15952TIP3    H169271   1.477   6.010   5.313 -0.2003 -3.3639  3.7548
15952TIP3    H269272   1.484   5.928   5.185 -2.6448 -0.3596  1.5456
15953TIP3   OH269273   1.088   1.077  10.740 -0.4723 -0.2536 -0.0400
15953TIP3    H169274   1.107   1.115  10.654 -0.8352  0.7329  0.3070
15953TIP3    H269275   1.086   0.983  10.724 -0.6195 -0.0793 -1.1350
15954TIP3   OH269276   2.399   2.177  16.022  0.3303  0.2596  0.2328
15954TIP3    H169277   2.436   2.104  16.072  0.6396  0.9546  1.0369
15954TIP3    H269278   2.414   2.153  15.930  0.2968 -0.7520  0.4746
15955TIP3   OH269279   0.214   0.606  15.539 -0.7142  0.6436  0.2062
15955TIP3    H169280   0.227   0.700  15.542  0.8060  0.4383  0.8185
15955TIP3    H269281   0.166   0.591  15.458 -1.5123  1.9865  0.3994
15956TIP3   OH269282   4.206   1.738   0.551 -0.7719 -0.2058  0.4472
15956TIP3    H169283   4.274   1.806   0.542 -1.0223  0.2925  2.0135
15956TIP3    H269284   4.251   1.665   0.593 -0.7374 -0.6504 -0.3517
15957TIP3   OH269285   4.277   6.551   1.458 -0.7219  0.1227 -0.3297
15957TIP3    H169286   4.333   6.514   1.526 -1.1599 -0.9855 -0.5557
15957TIP3    H269287   4.276   6.485   1.388 -2.4372  0.0244 -0.2642
15958TIP3   OH269288   6.162   2.856   5.918  0.0534 -0.0740 -0.0812
15958TIP3    H169289   6.077   2.818   5.940 -0.7679  1.9548  0.4995
15958TIP3    H269290   6.163   2.860   5.823  0.0120 -1.1838 -0.1377
15959TIP3   OH269291   3.487   6.345  14.369 -0.1006 -0.3387  0.0692
15959TIP3    H169292   3.540   6.303  14.302  0.0183 -0.0358 -0.0274
15959TIP3    H269293   3.486   6.283  14.442  0.7629 -0.1533  0.2471
15960TIP3   OH269294   4.338   4.776   3.798 -0.1778 -0.2780  0.1251
15960TIP3    H169295   4.309   4.776   3.707 -0.4305  0.8093  0.1861
15960TIP3    H269296   4.412   4.716   3.800 -0.4531 -0.6573 -0.7015
15961TIP3   OH269297   5.772   2.987  13.081  0.0668  0.3782 -0.3855
15961TIP3    H169298   5.841   3.045  13.048  0.2753  0.0840 -0.4709
15961TIP3    H269299   5.732   2.951  13.001 -0.8521  1.3199 -0.3593
15962TIP3   OH269300   6.378   0.902  11.892 -0.5605 -0.5527 -0.1012
15962TIP3    H169301   6.284   0.910  11.880 -1.0518 -1.9024  2.1538
15962TIP3    H269302   6.407   0.989  11.919 -0.4347  0.8386 -4.0445
15963TIP3   OH269303   3.293   3.590  16.300  0.2884  0.7951  0.2752
15963TIP3    H169304   3.300   3.565  16.208  0.6849  0.1927  0.4687
15963TIP3    H269305   3.271   3.684  16.298 -0.1472  0.6816 -0.4322
15964TIP3   OH269306   6.557   4.687  15.580 -0.2683 -0.1874  0.2645
15964TIP3    H169307   6.491   4.634  15.624  0.8402 -3.1557 -1.3451
15964TIP3    H269308   6.530   4.689  15.488  2.2112 -2.3746 -0.6569
15965TIP3   OH269309   2.338   4.885   2.925 -0.2997 -0.1585 -0.3132
15965TIP3    H169310   2.384   4.865   3.006 -1.6616 -1.2043  0.2245
15965TIP3    H269311   2.377   4.827   2.859 -0.0438 -0.1938 -0.1281
15966TIP3   OH269312   0.064   0.316  17.034  0.2270 -1.0232  0.1312
15966TIP3    H169313   0.139   0.305  16.976 -0.7435 -0.4198 -1.2923
15966TIP3    H269314   0.003   0.371  16.985  0.5417  2.0579  2.8322
15967TIP3   OH269315   3.482   1.157  11.412  0.7860 -0.6480  0.0926
15967TIP3    H169316   3.444   1.225  11.468  0.0312 -1.7674  0.9924
15967TIP3    H269317   3.438   1.169  11.327  1.3623  0.5639 -0.0576
15968TIP3   OH269318   1.697   4.620   0.716  0.1313  0.3123  0.0538
15968TIP3    H169319   1.759   4.654   0.651 -1.1962 -0.1318 -1.5018
15968TIP3    H269320   1.644   4.558   0.667 -0.0170 -1.0901  1.9330
15969TIP3   OH269321   1.429   0.801   5.376  0.0524  0.7178 -0.7690
15969TIP3    H169322   1.424   0.886   5.331 -1.1070  0.1141 -1.8330
15969TIP3    H269323   1.460   0.740   5.309 -1.7279 -0.2065 -0.8145
15970TIP3   OH269324   4.965   1.415  12.445  0.1699  0.5889 -0.0029
15970TIP3    H169325   5.007   1.430  12.360 -0.9951 -0.2413 -0.7471
15970TIP3    H269326   4.895   1.480  12.449 -0.1393  0.2502  0.0782
15971TIP3   OH269327   2.266   3.747   0.732 -0.0033  0.4714  0.0117
15971TIP3    H169328   2.190   3.795   0.764 -0.6853 -0.9284  0.5710
15971TIP3    H269329   2.310   3.715   0.811 -0.6972 -1.4787 -0.3162
15972TIP3   OH269330   4.804   1.376   5.619  0.3518 -0.0268 -0.2587
15972TIP3    H169331   4.867   1.447   5.633 -1.0506  1.7089 -2.0377
15972TIP3    H269332   4.800   1.367   5.523 -2.9359  0.8655 -0.3372
15973TIP3   OH269333   4.715   4.426   3.519 -0.2308 -0.4975 -0.0592
15973TIP3    H169334   4.768   4.346   3.526  1.2035  0.5521  2.3411
15973TIP3    H269335   4.740   4.463   3.433  0.0687 -1.9362 -0.6208
15974TIP3   OH269336   4.615   4.950   2.995  0.2166 -0.1792 -0.0523
15974TIP3    H169337   4.570   5.021   3.041  0.4163 -1.0218  1.5014
15974TIP3    H269338   4.633   4.885   3.063 -0.0722 -1.7774 -1.4450
15975TIP3   OH269339   2.866   2.247  15.842  0.2702  0.0823  0.5140
15975TIP3    H169340   2.956   2.246  15.810  0.4451  0.3257  0.9895
15975TIP3    H269341   2.874   2.268  15.935 -0.3991  2.2399  0.1206
15976TIP3   OH269342   6.647   2.419   4.074 -0.4349 -0.5446 -0.8803
15976TIP3    H169343   6.554   2.396   4.077 -0.3754 -2.1879 -4.7285
15976TIP3    H269344   6.691   2.335   4.064  1.1995  0.3674 -1.6303
15977TIP3   OH269345   0.234   1.380  15.975 -0.8890 -0.0305  0.2936
15977TIP3    H169346   0.297   1.381  16.047 -1.9296  0.3123  1.2235
15977TIP3    H269347   0.159   1.429  16.008 -0.8085  1.4817 -1.5818
15978TIP3   OH269348   6.718   1.708  17.211  0.4416  0.2207  0.2329
15978TIP3    H169349   6.810   1.735  17.215  0.5321 -0.1909  1.1263
15978TIP3    H269350   6.672   1.774  17.263  0.4127 -0.2688  0.8454
15979TIP3   OH269351   5.224   3.580  13.538  0.5504  0.6133  0.1113
15979TIP3    H169352   5.137   3.541  13.537  2.1087 -3.3562  0.1500
15979TIP3    H269353   5.253   3.573  13.629  1.3943  0.5996 -0.1456
15980TIP3   OH269354   1.864   0.511   1.342 -0.0505  0.0991  0.5399
15980TIP3    H169355   1.889   0.547   1.428  0.9453 -1.2749  0.8648
15980TIP3    H269356   1.860   0.587   1.284  3.2156  0.6739  0.8939
15981TIP3   OH269357   5.407   3.650  12.339  0.1127  0.3856  0.3825
15981TIP3    H169358   5.414   3.733  12.291 -1.9064  0.2091 -0.3284
15981TIP3    H269359   5.424   3.583  12.274  0.5048  0.1987  0.6726
15982TIP3   OH269360   0.227   2.407   1.239  0.2726 -0.5686  0.0185
15982TIP3    H169361   0.187   2.452   1.314  1.5465 -0.1969  0.5110
15982TIP3    H269362   0.243   2.477   1.175  0.9100 -0.5490  0.1877
15983TIP3   OH269363   3.573   0.023  14.054 -0.1451  0.5232  0.8132
15983TIP3    H169364   3.539  -0.009  14.138  0.1427  2.3389  1.6756
15983TIP3    H269365   3.505   0.083  14.022  0.0816  0.4160  0.1182
15984TIP3   OH269366   0.124   3.244  15.585  0.5341  0.6299  0.2351
15984TIP3    H169367   0.145   3.286  15.501  0.4876 -1.2887 -0.7916
15984TIP3    H269368   0.043   3.197  15.568  0.6004  0.0892  1.3314
15985TIP3   OH269369   3.683   5.698  15.742 -0.0961 -0.2437  0.4172
15985TIP3    H169370   3.598   5.714  15.702  0.2928 -2.2445 -1.3512
15985TIP3    H269371   3.738   5.770  15.709 -1.2622  1.6115  2.3385
15986TIP3   OH269372   0.999   2.681   4.413  0.0238 -0.0281 -0.3459
15986TIP3    H169373   1.031   2.679   4.504 -2.4176 -1.9249  0.6156
15986TIP3    H269374   1.032   2.763   4.377  1.4375  0.5952  2.1236
15987TIP3   OH269375   1.194   0.228   6.132 -0.4149 -0.0595 -0.0584
15987TIP3    H169376   1.290   0.230   6.132 -0.4203  1.5919  0.0073
15987TIP3    H269377   1.169   0.256   6.044 -0.8779 -2.2447 -0.6907
15988TIP3   OH269378   6.325   6.510   0.655 -0.1946  0.0357  0.1368
15988TIP3    H169379   6.278   6.555   0.724 -1.5315 -0.0481 -0.6947
15988TIP3    H269380   6.294   6.419   0.660 -0.0480 -0.0460 -0.3607
15989TIP3   OH269381   5.069   3.567  16.404 -0.8837  0.1437  0.0994
15989TIP3    H169382   5.104   3.646  16.363  0.0847 -0.9070 -1.1451
15989TIP3    H269383   4.986   3.596  16.443 -0.1241  1.9713  0.4849
15990TIP3   OH269384   1.965   0.175   0.101 -0.1629 -0.0743 -0.4474
15990TIP3    H169385   1.957   0.081   0.117 -1.0211  0.1591  0.6115
15990TIP3    H269386   1.945   0.215   0.185 -0.8761  1.1019 -1.1588
15991TIP3   OH269387   2.982   3.063  17.262 -0.0546 -0.1321  0.2117
15991TIP3    H169388   3.061   3.073  17.315 -1.0195 -0.4614  1.7920
15991TIP3    H269389   2.940   3.150  17.266  0.7484  0.3879 -1.5786
15992TIP3   OH269390   6.741   4.563  16.581 -0.0604 -0.2047 -0.1304
15992TIP3    H169391   6.744   4.574  16.486 -1.8727  2.6837  0.0168
15992TIP3    H269392   6.792   4.636  16.615 -0.2728 -0.6112  1.1081
15993TIP3   OH269393   3.819   0.287   0.754  0.1715  0.6948  0.0690
15993TIP3    H169394   3.890   0.258   0.697  0.7405 -0.5226  1.3265
15993TIP3    H269395   3.789   0.369   0.715  0.8116  0.1480 -1.7140
15994TIP3   OH269396   4.849   5.165   3.284  0.4371  0.6123  0.2838
15994TIP3    H169397   4.854   5.260   3.283  0.3201  0.6219  0.5206
15994TIP3    H269398   4.757   5.146   3.304  0.7209  0.4556  1.4873
15995TIP3   OH269399   1.372   6.054   0.523  0.4229 -0.0524  0.4149
15995TIP3    H169400   1.352   5.967   0.557 -0.0612 -0.6267 -1.2754
15995TIP3    H269401   1.414   6.099   0.597 -0.6947 -1.1851  1.8108
15996TIP3   OH269402   3.108   0.505   1.282 -0.4245 -0.0428  0.0625
15996TIP3    H169403   3.042   0.467   1.224  0.1252  0.2997 -0.8124
15996TIP3    H269404   3.084   0.598   1.287 -1.7372 -0.4432  2.1535
15997TIP3   OH269405   5.897   2.719   4.411 -0.1644  0.0622  0.6639
15997TIP3    H169406   5.957   2.736   4.339 -0.9004  0.6730  0.1969
15997TIP3    H269407   5.944   2.750   4.489  0.9515 -1.2960  0.5837
15998TIP3   OH269408   4.064   1.508   0.576 -0.1794 -0.0630  0.4922
15998TIP3    H169409   4.131   1.442   0.593  0.5475  0.8329  1.2349
15998TIP3    H269410   4.092   1.552   0.496 -1.3655 -1.4821 -0.7703
15999TIP3   OH269411   0.945   0.024   3.766 -0.7867 -0.1259 -0.2029
15999TIP3    H169412   0.957   0.110   3.725 -3.2699 -0.0123 -0.8671
15999TIP3    H269413   1.014   0.019   3.832 -1.3347  2.9648  0.7683
16000TIP3   OH269414   2.986   0.515  13.733  0.2399  0.8580 -0.4670
16000TIP3    H169415   2.902   0.470  13.721  1.0825 -0.6291 -1.1303
16000TIP3    H269416   3.020   0.482  13.816  0.6067  0.6946 -0.6786
16001TIP3   OH269417   6.269   1.693   4.971  0.2778 -0.7018 -0.1860
16001TIP3    H169418   6.257   1.675   4.878  0.7810  1.0813 -0.6264
16001TIP3    H269419   6.305   1.611   5.007  0.7378 -1.1804 -1.6836
16002TIP3   OH269420   3.110   5.082  15.613  0.8466  0.7230 -0.5983
16002TIP3    H169421   3.169   5.092  15.688 -0.1143 -0.1199  0.2940
16002TIP3    H269422   3.144   5.007  15.565 -0.6336 -1.1325  1.0813
16003TIP3   OH269423   6.291   6.053  12.631 -0.3641  0.3529  0.2111
16003TIP3    H169424   6.296   6.128  12.572 -1.6302 -0.2743 -0.7488
16003TIP3    H269425   6.240   6.084  12.706  1.7440  1.3267  1.3355
16004TIP3   OH269426   4.886   4.831   0.256  0.1302  0.4604  0.3665
16004TIP3    H169427   4.903   4.771   0.328  0.8288  1.4334  1.0334
16004TIP3    H269428   4.850   4.776   0.186 -0.8303 -0.4528  1.5430
16005TIP3   OH269429   2.687   4.847  13.721 -0.5849 -0.3414  0.3446
16005TIP3    H169430   2.724   4.759  13.718  0.0129 -0.1005  0.4169
16005TIP3    H269431   2.600   4.838  13.682  0.2421 -0.5864 -1.5471
16006TIP3   OH269432   6.297   5.169   4.455  0.3628  0.5870 -0.1131
16006TIP3    H169433   6.334   5.174   4.543 -1.3752  0.9938  0.6386
16006TIP3    H269434   6.330   5.246   4.410  2.3338 -0.3042 -0.2953
16007TIP3   OH269435   2.178   5.041   1.520 -0.2939  0.3298 -0.5767
16007TIP3    H169436   2.098   5.040   1.466 -0.7415  2.8306 -0.0766
16007TIP3    H269437   2.236   5.102   1.475 -0.1566  1.4363  1.0161
16008TIP3   OH269438   5.884   1.578   1.310 -0.0732 -0.1596  0.2137
16008TIP3    H169439   5.931   1.546   1.233  0.9650 -0.8319  1.0866
16008TIP3    H269440   5.949   1.573   1.381 -1.3600 -0.7775  1.3984
16009TIP3   OH269441   5.498   0.036   0.184 -0.4593 -0.5025 -0.1410
16009TIP3    H169442   5.562   0.031   0.112 -1.4779 -1.9800 -1.0166
16009TIP3    H269443   5.537   0.096   0.247  0.4506  0.9060 -1.9642
16010TIP3   OH269444   0.643   3.525  13.009 -0.0780  0.1362  0.1294
16010TIP3    H169445   0.625   3.447  13.063  2.7348  0.1281  1.2097
16010TIP3    H269446   0.622   3.599  13.067  0.7415  0.1333  0.4448
16011TIP3   OH269447   3.375   0.712  15.224  0.2199  0.0953  0.1135
16011TIP3    H169448   3.298   0.747  15.178  0.9147  0.7711 -0.5575
16011TIP3    H269449   3.430   0.676  15.154  0.6068 -0.1994  0.5652
16012TIP3   OH269450   1.180   4.325   1.334  0.2247 -0.6105  0.1992
16012TIP3    H169451   1.269   4.290   1.331  1.1713  1.5563  1.1266
16012TIP3    H269452   1.155   4.335   1.242  1.9911  1.1287 -0.1571
16013TIP3   OH269453   3.453   4.833   3.296  0.5772  0.1907 -0.0538
16013TIP3    H169454   3.372   4.842   3.346 -0.3323 -1.5938 -1.1313
16013TIP3    H269455   3.435   4.764   3.233  1.5798  2.5355 -3.1311
16014TIP3   OH269456   5.465   4.160   0.444  0.4361 -0.0140  0.1900
16014TIP3    H169457   5.489   4.108   0.367  2.7793  2.0553 -0.6105
16014TIP3    H269458   5.448   4.247   0.410 -2.8909  0.0114  1.5634
16015TIP3   OH269459   6.442   6.438  15.726 -0.2427 -0.2839  0.4013
16015TIP3    H169460   6.502   6.511  15.742 -2.1084  1.2937  0.5845
16015TIP3    H269461   6.490   6.361  15.757  0.8570  1.1686  2.6200
16016TIP3   OH269462   5.054   0.419  14.566 -0.1099 -0.5455 -0.5944
16016TIP3    H169463   5.071   0.351  14.631  0.7589 -1.0538 -1.3310
16016TIP3    H269464   5.137   0.465  14.558 -0.2839 -0.3271 -1.1625
16017TIP3   OH269465   4.494   2.506  14.272  0.0101  0.4989 -0.4326
16017TIP3    H169466   4.477   2.458  14.191  0.1961  0.0173 -0.1934
16017TIP3    H269467   4.580   2.475  14.301 -0.0577  0.6606 -0.0494
16018TIP3   OH269468   4.635   5.956  13.261 -0.0220 -0.2112  0.0931
16018TIP3    H169469   4.714   5.920  13.300  0.3339  1.3137  0.8524
16018TIP3    H269470   4.666   6.028  13.206 -0.7210 -0.9179 -1.2761
16019TIP3   OH269471   2.040   1.725  14.621  0.8516 -0.4481 -0.0818
16019TIP3    H169472   2.012   1.684  14.703  0.7898  0.5564  0.4165
16019TIP3    H269473   2.057   1.816  14.644 -1.1145  0.3671 -1.5985
16020TIP3   OH269474   0.958   0.782   4.148  0.8535 -0.5534  0.1320
16020TIP3    H169475   0.944   0.754   4.057 -0.5949 -0.5385  0.3213
16020TIP3    H269476   0.885   0.842   4.166  1.6684  0.2121  1.0084
16021TIP3   OH269477   5.555   5.930  16.525 -0.1220 -0.0926 -0.8222
16021TIP3    H169478   5.502   5.927  16.604 -0.4645  0.3418 -1.0379
16021TIP3    H269479   5.509   5.990  16.466  2.0615  2.6241  0.0488
16022TIP3   OH269480   1.420   5.486  11.352 -0.1412  0.2093 -0.9760
16022TIP3    H169481   1.391   5.476  11.443 -2.4686 -1.4061 -1.7962
16022TIP3    H269482   1.474   5.409  11.336  0.0873  0.3805 -1.0314
16023TIP3   OH269483   2.994   1.425  13.839 -0.3851 -0.3983 -0.0298
16023TIP3    H169484   3.038   1.354  13.886  1.0801  0.1027 -0.5819
16023TIP3    H269485   2.941   1.381  13.773  0.2996 -1.0085 -0.1930
16024TIP3   OH269486   1.270   0.783  13.472 -0.0817 -0.0922 -0.1188
16024TIP3    H169487   1.268   0.838  13.550  1.0111 -1.3356  0.8452
16024TIP3    H269488   1.363   0.775  13.451 -0.3213 -0.3478 -1.1345
16025TIP3   OH269489   0.175   6.282   0.695 -0.0157 -0.0224 -0.3095
16025TIP3    H169490   0.207   6.274   0.606 -1.2017  0.2771 -0.7883
16025TIP3    H269491   0.239   6.235   0.749  1.1963  0.5638 -1.1935
16026TIP3   OH269492   5.033   5.627  11.706 -0.4795  0.0552  0.0293
16026TIP3    H169493   4.958   5.568  11.698 -0.4716  0.0070  0.3034
16026TIP3    H269494   5.005   5.709  11.666 -1.2344  0.5557  1.4999
16027TIP3   OH269495   5.195   2.554  15.128  0.5476 -0.2303 -0.0939
16027TIP3    H169496   5.237   2.527  15.046  1.4308 -0.3129  0.3651
16027TIP3    H269497   5.259   2.530  15.196 -0.3123 -0.4786  0.6451
16028TIP3   OH269498   5.571   4.592  14.931 -0.0529 -0.6168  0.1531
16028TIP3    H169499   5.584   4.631  14.844  3.6158 -1.0332  0.3719
16028TIP3    H269500   5.603   4.503  14.922  0.1777 -0.7374  1.8884
16029TIP3   OH269501   4.814   3.999  15.431  0.3056  0.2436 -0.2291
16029TIP3    H169502   4.804   3.961  15.344 -0.7544 -1.5914  0.6456
16029TIP3    H269503   4.728   4.035  15.452  0.0233 -0.9420  0.7570
16030TIP3   OH269504   0.383   2.464  13.417  0.1917 -0.0645 -0.3132
16030TIP3    H169505   0.305   2.409  13.415  1.1980 -1.7599  2.1257
16030TIP3    H269506   0.349   2.553  13.431 -1.3470 -0.4815 -1.1528
16031TIP3   OH269507   4.434   2.692  12.981 -0.3641 -0.2864  0.0599
16031TIP3    H169508   4.485   2.710  12.902  0.3961 -1.5459  0.2456
16031TIP3    H269509   4.375   2.620  12.956  1.2341 -2.0485  1.1398
16032TIP3   OH269510   4.744   3.774   5.068  0.2072  0.2343  0.0945
16032TIP3    H169511   4.680   3.705   5.051 -0.8565  1.6611 -2.1754
16032TIP3    H269512   4.720   3.807   5.154 -0.9161 -0.5327  0.1076
16033TIP3   OH269513   0.371   6.635  16.620  0.6564 -0.2449 -0.1633
16033TIP3    H169514   0.291   6.687  16.606  1.4919  0.9807 -0.5665
16033TIP3    H269515   0.385   6.638  16.715  0.2118 -0.4972 -0.0853
16034TIP3   OH269516   5.168   3.942   2.294  0.1388 -0.0438  0.0666
16034TIP3    H169517   5.251   3.983   2.271  0.4037 -0.1245  0.8690
16034TIP3    H269518   5.183   3.904   2.381 -1.3260  1.6049  1.0890
16035TIP3   OH269519   2.985   3.423  14.224 -0.1259  0.3957  0.4460
16035TIP3    H169520   3.040   3.366  14.170 -0.1505 -0.0866  0.9315
16035TIP3    H269521   2.910   3.369  14.248 -1.1333  1.2159 -0.6927
16036TIP3   OH269522   3.005   0.303   5.141 -0.0464 -0.3031  0.6780
16036TIP3    H169523   3.056   0.363   5.086 -1.2439 -1.0996 -1.3692
16036TIP3    H269524   2.929   0.354   5.168 -0.2684 -0.3956  0.2399
16037TIP3   OH269525   4.222   1.201  11.008 -0.5850 -0.1481 -0.5976
16037TIP3    H169526   4.202   1.119  10.963  1.2286 -2.3375  2.2079
16037TIP3    H269527   4.301   1.233  10.964 -1.1954  0.0469 -1.5901
16038TIP3   OH269528   5.657   4.191  16.535 -0.4319 -0.3587  0.2401
16038TIP3    H169529   5.745   4.168  16.507  0.2785  1.9872  0.3442
16038TIP3    H269530   5.624   4.248  16.465 -0.7956  0.9706  1.4433
16039TIP3   OH269531   5.189   5.044  17.042  0.8275 -0.0816 -0.0640
16039TIP3    H169532   5.203   5.125  17.093  1.5394  0.1105 -0.5501
16039TIP3    H269533   5.147   4.984  17.104  1.5441  0.1972  0.7117
16040TIP3   OH269534   2.636   2.547   2.820 -0.1841  0.5071  0.8670
16040TIP3    H169535   2.590   2.482   2.874  0.4999 -0.4838  0.3107
16040TIP3    H269536   2.651   2.502   2.737  0.5367  1.2973  0.5502
16041TIP3   OH269537   0.633   1.410   1.216 -0.1644  0.2501  0.2947
16041TIP3    H169538   0.655   1.469   1.143 -0.1742  1.6933  1.4075
16041TIP3    H269539   0.665   1.324   1.188  0.1571  0.8359 -1.2539
16042TIP3   OH269540   4.118   1.168   5.713  0.2692  0.2886  0.1797
16042TIP3    H169541   4.167   1.116   5.777 -0.5090  1.3901  1.7370
16042TIP3    H269542   4.184   1.198   5.651  1.2953  0.3073  1.2426
16043TIP3   OH269543   2.775   5.170   3.236  0.3309 -0.4256 -0.3000
16043TIP3    H169544   2.864   5.184   3.206  0.1639  0.3160 -0.4600
16043TIP3    H269545   2.783   5.145   3.328  0.6154  1.3149  0.1770
16044TIP3   OH269546   1.702   5.409  12.714  0.0369 -0.1140  0.4924
16044TIP3    H169547   1.691   5.314  12.708 -1.3293  0.1011 -1.9856
16044TIP3    H269548   1.783   5.427  12.666 -1.2448  0.1399 -1.7028
16045TIP3   OH269549   6.303   6.173  16.058 -0.1948 -0.3303  0.4078
16045TIP3    H169550   6.213   6.171  16.088  0.8157 -0.4099  3.9405
16045TIP3    H269551   6.350   6.117  16.121  2.5564  1.1388 -0.1861
16046TIP3   OH269552   4.998   5.889  13.951  0.0316 -0.3696  0.1492
16046TIP3    H169553   5.059   5.908  13.880 -1.3093  0.4007 -0.8416
16046TIP3    H269554   5.026   5.804  13.985  0.4957 -0.9315 -1.5399
16047TIP3   OH269555   3.859   3.088  14.189  0.4620 -0.0718 -0.3096
16047TIP3    H169556   3.836   3.176  14.160  0.0905 -0.1509 -0.2631
16047TIP3    H269557   3.916   3.102  14.264 -0.2826  0.1379  0.2298
16048TIP3   OH269558   1.190   6.378  17.349 -0.3275 -0.3301  0.0474
16048TIP3    H169559   1.162   6.469  17.335 -1.7517 -0.8979 -1.0095
16048TIP3    H269560   1.191   6.367  17.444 -0.4610  0.6902  0.1808
16049TIP3   OH269561   1.747   6.042   3.503  0.2995 -0.1830 -0.6461
16049TIP3    H169562   1.657   6.010   3.500 -0.2259  1.2182 -0.7765
16049TIP3    H269563   1.739   6.136   3.487  1.8949 -0.2168 -1.9489
16050TIP3   OH269564   3.892   1.944  15.414 -0.0226 -0.2568 -0.0878
16050TIP3    H169565   3.889   1.947  15.510 -0.9925 -0.0401 -0.1201
16050TIP3    H269566   3.844   1.865  15.390 -1.2562  0.5625 -0.4401
16051TIP3   OH269567   1.566   1.352  13.372  0.0707 -0.1349 -0.4661
16051TIP3    H169568   1.565   1.366  13.278  0.7035  1.6330 -0.2511
16051TIP3    H269569   1.636   1.289  13.387 -1.3161 -1.9685 -1.3122
16052TIP3   OH269570   0.083   5.200   5.507  0.4100 -0.3844  0.6965
16052TIP3    H169571   0.177   5.184   5.507  0.3874 -0.7729 -1.4266
16052TIP3    H269572   0.073   5.282   5.458 -0.4827 -1.7533 -1.5685
16053TIP3   OH269573   0.731   3.985  11.236 -1.2077  0.3715 -0.0390
16053TIP3    H169574   0.820   4.020  11.234 -0.7983 -0.5943  0.7920
16053TIP3    H269575   0.709   3.979  11.329 -1.0495 -2.0490 -0.0965
16054TIP3   OH269576   2.537   5.642   4.709  0.4396  0.3753 -0.5203
16054TIP3    H169577   2.529   5.549   4.728  2.8646 -0.2972 -2.2733
16054TIP3    H269578   2.473   5.658   4.639 -1.1321  0.4547  0.8938
16055TIP3   OH269579   2.360   2.391   2.243 -0.0974 -0.0895 -0.0460
16055TIP3    H169580   2.271   2.425   2.231 -0.6732 -1.3046  0.5409
16055TIP3    H269581   2.358   2.350   2.330  0.6247 -1.3331 -0.5900
16056TIP3   OH269582   6.638   2.600  11.148 -0.0171 -0.1976 -0.2206
16056TIP3    H169583   6.715   2.589  11.092  0.0847  1.8650 -0.5817
16056TIP3    H269584   6.619   2.694  11.143 -0.9409 -0.2132  1.9928
16057TIP3   OH269585   0.338   0.139  14.677  0.0623 -0.2930 -0.1309
16057TIP3    H169586   0.323   0.222  14.722  1.9766 -0.0149  0.0922
16057TIP3    H269587   0.358   0.165  14.587  0.0302 -0.5641 -0.2161
16058TIP3   OH269588   4.551   4.665   3.674  0.2950 -0.1324 -0.3716
16058TIP3    H169589   4.584   4.577   3.655 -1.3736 -0.4045 -2.5104
16058TIP3    H269590   4.612   4.724   3.631 -0.1698 -0.4515 -1.5148
16059TIP3   OH269591   0.115   2.221  15.925 -0.3780  0.6005  0.2028
16059TIP3    H169592   0.127   2.202  15.832  0.6690  0.4192  0.3634
16059TIP3    H269593   0.029   2.262  15.930 -0.7639 -0.0596 -0.7442
16060TIP3   OH269594   3.419   4.590   4.193  0.3693 -0.1430 -0.0402
16060TIP3    H169595   3.391   4.660   4.135 -0.8351  0.7746  1.5531
16060TIP3    H269596   3.352   4.522   4.185  2.2053 -1.8635 -2.6013
16061TIP3   OH269597   5.094   2.460  12.949 -0.7593 -0.2122  0.0657
16061TIP3    H169598   5.014   2.442  12.899 -0.2157 -0.5569 -0.6842
16061TIP3    H269599   5.072   2.433  13.039 -1.2157 -1.0714 -0.2945
16062TIP3   OH269600   1.072   0.630  11.233 -0.1183  0.5874  0.3875
16062TIP3    H169601   1.083   0.701  11.171  0.7156  0.4533  0.3634
16062TIP3    H269602   1.156   0.582  11.230 -1.5377 -2.0104 -1.5782
16063TIP3   OH269603   1.566   6.656  16.176 -0.3703  0.9950 -0.1705
16063TIP3    H169604   1.650   6.670  16.132 -0.3722 -0.9940 -0.9204
16063TIP3    H269605   1.583   6.586  16.238 -0.9234  2.2517  1.4563
16064TIP3   OH269606   2.523   5.415  13.900 -0.2407  1.0487 -0.3033
16064TIP3    H169607   2.588   5.447  13.963  0.7319 -0.5925 -0.4232
16064TIP3    H269608   2.569   5.416  13.816  0.6666 -2.7191  0.0086
16065TIP3   OH269609   5.454   4.835   1.294  1.0909 -0.3334  0.0296
16065TIP3    H169610   5.378   4.778   1.278  1.0888 -0.0116 -1.2492
16065TIP3    H269611   5.524   4.775   1.321  0.6674 -0.7546  0.2104
16066TIP3   OH269612   4.028   2.344  16.371 -0.1969  0.0861 -0.1389
16066TIP3    H169613   4.058   2.419  16.422 -0.9380  0.2118  0.1150
16066TIP3    H269614   3.946   2.372  16.332 -1.0558 -0.9671  0.8395
16067TIP3   OH269615   6.556   6.301   3.230 -0.4489  0.1040  0.4196
16067TIP3    H169616   6.642   6.341   3.215 -0.0577 -0.2171  1.6698
16067TIP3    H269617   6.567   6.251   3.312 -0.5849 -3.4056 -1.5086
16068TIP3   OH269618   2.489   4.402   4.247 -0.5029 -0.5161 -0.2494
16068TIP3    H169619   2.497   4.483   4.296 -2.6078 -0.7271  0.5444
16068TIP3    H269620   2.497   4.332   4.312 -2.5110 -0.8186 -0.2663
16069TIP3   OH269621   4.039   6.467   0.557 -0.3540 -0.2651 -0.1537
16069TIP3    H169622   3.970   6.481   0.621  0.7845  0.3713  1.0014
16069TIP3    H269623   4.019   6.527   0.486 -1.1237 -0.2778  0.0471
16070TIP3   OH269624   3.168   2.545  12.586  0.4614 -0.0400 -0.1070
16070TIP3    H169625   3.153   2.494  12.506 -2.7322 -0.8059  0.8106
16070TIP3    H269626   3.233   2.495  12.635  1.4455 -0.2748 -1.5870
16071TIP3   OH269627   6.229   6.754   2.321  0.3270  0.0715  0.4009
16071TIP3    H169628   6.236   6.682   2.258  1.8086  1.2793 -0.8964
16071TIP3    H269629   6.135   6.772   2.327  0.1431  0.1203 -1.7585
16072TIP3   OH269630   3.306   2.117  11.755 -0.2970  0.3088  0.0576
16072TIP3    H169631   3.267   2.072  11.680  2.0539  1.5659 -2.0707
16072TIP3    H269632   3.244   2.187  11.775 -0.0598  1.2417 -2.1429
16073TIP3   OH269633   4.237   4.760   2.089 -0.3461 -0.6392  0.2061
16073TIP3    H169634   4.246   4.854   2.102 -0.4895 -0.4744 -0.8079
16073TIP3    H269635   4.142   4.746   2.089 -0.3157 -1.0404  1.9800
16074TIP3   OH269636   2.909   3.375  13.932  0.6155  0.5858  0.6961
16074TIP3    H169637   2.909   3.285  13.900  1.7333  0.8225 -0.0467
16074TIP3    H269638   2.861   3.372  14.015  1.4221 -0.8694  1.1329
16075TIP3   OH269639   0.887   5.560   0.271 -0.0486  0.0266 -0.0064
16075TIP3    H169640   0.967   5.606   0.247  0.3324 -0.5730  0.0779
16075TIP3    H269641   0.918   5.483   0.320 -0.6535 -0.4232 -0.3194
16076TIP3   OH269642   5.539   6.242  13.498 -0.1136  0.6820  0.4752
16076TIP3    H169643   5.558   6.303  13.569  1.0508  0.1496  0.6447
16076TIP3    H269644   5.527   6.158  13.542  0.6070  0.3510  0.0597
16077TIP3   OH269645   2.704   1.073   4.632 -0.3845 -0.1756 -0.4369
16077TIP3    H169646   2.769   1.113   4.690 -1.5049  0.8944  0.1295
16077TIP3    H269647   2.673   1.145   4.578 -0.4196 -0.8733 -1.3802
16078TIP3   OH269648   4.333   4.256   3.765 -0.3601 -0.0176 -0.1373
16078TIP3    H169649   4.304   4.322   3.828  0.3979  2.4636 -2.2188
16078TIP3    H269650   4.410   4.216   3.805 -0.2768  1.0352  0.7937
16079TIP3   OH269651   2.999   0.181  12.129 -0.5611  0.8831 -0.1070
16079TIP3    H169652   3.071   0.174  12.066 -0.1839 -2.9680  0.4586
16079TIP3    H269653   2.923   0.145  12.083 -0.5777 -0.7973  1.1421
16080TIP3   OH269654   5.155   3.315   1.576  0.1152  0.0874  0.3916
16080TIP3    H169655   5.089   3.362   1.627 -0.7489 -1.3171  0.6184
16080TIP3    H269656   5.238   3.339   1.617 -0.1609  2.2014 -0.1490
16081TIP3   OH269657   2.404   5.328  14.327 -0.1854 -0.1670 -0.1141
16081TIP3    H169658   2.460   5.273  14.272 -0.1126  0.3814 -0.5953
16081TIP3    H269659   2.320   5.330  14.282 -0.1356  0.2606 -0.1915
16082TIP3   OH269660   4.202   5.200   2.958 -0.8247 -0.0632 -0.1462
16082TIP3    H169661   4.243   5.116   2.979 -0.5066  0.2457  0.4669
16082TIP3    H269662   4.164   5.186   2.871 -1.5127 -1.1183  0.2994
16083TIP3   OH269663   1.337   2.054   3.912  0.2291 -0.2535  0.2964
16083TIP3    H169664   1.409   2.087   3.858  0.2496  0.1075  0.5342
16083TIP3    H269665   1.261   2.104   3.884  0.2032 -0.1897  0.4783
16084TIP3   OH269666   1.171   6.662  14.683  0.4637  0.4776  0.1087
16084TIP3    H169667   1.135   6.721  14.617  1.8905 -0.0253 -1.1828
16084TIP3    H269668   1.097   6.607  14.709 -0.6993  2.2889  0.7744
16085TIP3   OH269669   6.683   4.097   5.271  0.3077 -0.4971  0.0370
16085TIP3    H169670   6.641   4.115   5.186 -0.1140  3.8152  0.9532
16085TIP3    H269671   6.612   4.100   5.334  0.6428 -3.5366  0.7176
16086TIP3   OH269672   3.004   5.367   4.098 -0.3340 -0.3519 -0.4958
16086TIP3    H169673   3.000   5.388   4.005 -0.5476  0.7631 -0.2453
16086TIP3    H269674   3.097   5.376   4.121 -0.4725  0.7155 -0.3131
16087TIP3   OH269675   6.733   5.929  14.630  0.3593  0.0758 -0.5597
16087TIP3    H169676   6.824   5.900  14.622  0.5927  0.5858  0.1055
16087TIP3    H269677   6.739   6.010  14.682 -0.5496 -0.4126  0.3369
16088TIP3   OH269678   4.021   0.960   3.942  0.5524  0.0880  0.1785
16088TIP3    H169679   4.013   0.999   4.029 -1.1949 -0.0784  0.1274
16088TIP3    H269680   4.094   0.898   3.950  0.6050  0.2881  1.4242
16089TIP3   OH269681   3.444   2.450  16.264  0.0306 -0.2080  0.7783
16089TIP3    H169682   3.352   2.450  16.289 -0.1261 -1.5458  0.2743
16089TIP3    H269683   3.482   2.376  16.311  0.3805 -0.9384 -0.6105
16090TIP3   OH269684   2.330   0.508  13.756 -0.0634  0.7092  0.1335
16090TIP3    H169685   2.328   0.429  13.702  0.7298 -0.2978  1.4918
16090TIP3    H269686   2.261   0.495  13.820 -0.0114  1.1783  0.2869
16091TIP3   OH269687   1.946   1.219   1.994  0.0854  0.4759 -0.8887
16091TIP3    H169688   1.888   1.195   1.922 -1.3101  0.4844  0.1957
16091TIP3    H269689   1.905   1.181   2.071  2.0129 -0.2852 -0.1823
16092TIP3   OH269690   3.888   6.164   4.072 -0.0392  0.2172  0.3279
16092TIP3    H169691   3.857   6.252   4.091 -2.0052 -0.2475 -0.5301
16092TIP3    H269692   3.911   6.127   4.158  0.8229  1.5332  0.6914
16093TIP3   OH269693   5.770   3.019  12.197  0.1988 -0.0787 -0.1829
16093TIP3    H169694   5.814   2.976  12.271  0.7847  0.1466 -0.3981
16093TIP3    H269695   5.677   3.019  12.222  0.3632 -0.2097  0.4496
16094TIP3   OH269696   2.504   3.623   2.930  0.0985  0.3831  0.5357
16094TIP3    H169697   2.591   3.614   2.969  1.1693  1.6476 -1.3735
16094TIP3    H269698   2.500   3.714   2.900 -1.6732  0.2015  0.0952
16095TIP3   OH269699   1.407   2.708   0.472  0.4595 -0.9368 -0.0713
16095TIP3    H169700   1.329   2.689   0.420  0.2921  1.6614 -0.9231
16095TIP3    H269701   1.375   2.707   0.563 -0.9862  1.4080 -0.4583
16096TIP3   OH269702   4.175   2.459  16.907  0.2134 -0.3414 -0.2642
16096TIP3    H169703   4.215   2.415  16.982  0.3712 -0.0808 -0.1923
16096TIP3    H269704   4.247   2.507  16.866  0.0188 -0.0320 -0.2519
16097TIP3   OH269705   0.589   2.828  17.167  0.1224 -0.3033  0.1025
16097TIP3    H169706   0.605   2.919  17.141 -0.2379 -0.3891 -0.4432
16097TIP3    H269707   0.542   2.834  17.249 -1.0666  0.0419 -0.5798
16098TIP3   OH269708   3.746   0.808  15.537  0.5296 -0.3561 -0.2213
16098TIP3    H169709   3.771   0.720  15.565 -1.3937 -0.0238  2.9524
16098TIP3    H269710   3.814   0.865  15.573 -0.4710 -0.1937  1.4783
16099TIP3   OH269711   3.823   1.709  13.375  0.3094 -0.2261 -0.1356
16099TIP3    H169712   3.830   1.624  13.417 -0.4181  0.0848  0.6501
16099TIP3    H269713   3.795   1.768  13.445  0.4030  0.5757 -0.7596
16100TIP3   OH269714   2.353   6.012  11.701 -0.3361 -0.3402 -0.6058
16100TIP3    H169715   2.419   5.982  11.639  0.7530 -0.4472  0.5674
16100TIP3    H269716   2.388   5.989  11.787 -1.9933 -0.5690  0.0531
16101TIP3   OH269717   3.084   0.804  13.360  0.5472  0.1861 -0.2169
16101TIP3    H169718   3.015   0.862  13.391  2.0942  1.8329  0.2824
16101TIP3    H269719   3.057   0.781  13.271 -0.8874  0.3268  0.1478
16102TIP3   OH269720   0.734   2.921  16.710  0.0555 -0.3883  0.7760
16102TIP3    H169721   0.666   2.914  16.777  0.0279 -1.2679  0.6633
16102TIP3    H269722   0.686   2.920  16.627 -0.1733  3.3937  0.6802
16103TIP3   OH269723   6.311   1.858   2.916 -0.6741  0.3886  0.3746
16103TIP3    H169724   6.396   1.892   2.885 -1.5300  1.1820 -1.2355
16103TIP3    H269725   6.297   1.902   3.000  0.3279  0.5288  0.4820
16104TIP3   OH269726   5.156   6.312   1.999 -0.1446  0.3544  0.3374
16104TIP3    H169727   5.187   6.387   1.948  1.6492  0.3444  1.3000
16104TIP3    H269728   5.173   6.237   1.943  1.9236  0.3316  0.8783
16105TIP3   OH269729   4.483   2.634  17.274 -0.8924 -0.2512  0.6013
16105TIP3    H169730   4.392   2.661  17.260 -1.1408 -0.9770  0.7372
16105TIP3    H269731   4.506   2.670  17.359 -0.4092  1.5370 -0.2342
16106TIP3   OH269732   0.245   0.157  16.355 -0.5224 -0.2353 -0.9533
16106TIP3    H169733   0.228   0.086  16.292  1.6480 -0.7742 -0.9979
16106TIP3    H269734   0.256   0.235  16.300  0.7847 -0.5938 -1.2328
16107TIP3   OH269735   2.348   5.510   4.912 -0.1360 -0.0823  0.5406
16107TIP3    H169736   2.345   5.590   4.859  1.6284 -0.3622 -0.0461
16107TIP3    H269737   2.257   5.495   4.938 -0.8784  0.7775 -1.3448
16108TIP3   OH269738   0.167   2.768  15.937  0.5545  0.3306  0.0977
16108TIP3    H169739   0.231   2.698  15.928  1.9091  1.5352 -0.0385
16108TIP3    H269740   0.152   2.798  15.848  1.0620  1.1173  0.2648
16109TIP3   OH269741   5.400   3.893  16.483  0.3597  0.1083 -0.3410
16109TIP3    H169742   5.349   3.872  16.561  1.0274 -0.9925 -0.1828
16109TIP3    H269743   5.490   3.871  16.507  0.6453  0.2718 -1.2362
16110TIP3   OH269744   0.675   6.108   5.202  0.4164  0.3966 -0.1203
16110TIP3    H169745   0.632   6.037   5.250 -0.6160  0.3150 -1.1181
16110TIP3    H269746   0.720   6.064   5.129 -0.4445  0.7639 -0.8950
16111TIP3   OH269747   1.893   3.500   1.327  0.1077  0.3355 -0.4989
16111TIP3    H169748   1.888   3.570   1.262 -1.5654  0.2834 -0.4786
16111TIP3    H269749   1.867   3.541   1.409 -0.5138 -0.2034 -0.4125
16112TIP3   OH269750   3.430   3.710  15.527 -0.2822  0.0798  0.1773
16112TIP3    H169751   3.506   3.655  15.547  0.6328  1.2592  0.0706
16112TIP3    H269752   3.354   3.655  15.548  0.5940 -1.0568  0.4790
16113TIP3   OH269753   3.839   3.167  12.890 -0.6091  0.5315  0.0026
16113TIP3    H169754   3.841   3.162  12.794 -0.1432  2.0239 -0.0821
16113TIP3    H269755   3.896   3.096  12.919  0.3401  0.9238 -0.8617
16114TIP3   OH269756   2.330   4.749  13.409  0.4654  0.2116  0.6795
16114TIP3    H169757   2.330   4.703  13.493  1.2183 -0.7849  0.1606
16114TIP3    H269758   2.423   4.763  13.390  0.4241 -1.1830 -0.8131
16115TIP3   OH269759   4.134   0.384   3.496 -0.6879 -0.4887 -0.3423
16115TIP3    H169760   4.107   0.462   3.447 -0.7558  1.9947  3.2282
16115TIP3    H269761   4.053   0.335   3.509 -0.6288 -1.3304 -2.7295
16116TIP3   OH269762   1.028   2.067   1.616  0.3673 -0.9017 -0.1451
16116TIP3    H169763   0.958   2.094   1.675  1.1971 -0.9911  0.9059
16116TIP3    H269764   0.987   2.065   1.530 -0.4596  0.8551  0.1545
16117TIP3   OH269765   5.788   1.347   3.004 -0.2178  0.0908 -0.3556
16117TIP3    H169766   5.791   1.251   3.001  1.3142  0.1268 -0.5406
16117TIP3    H269767   5.864   1.371   3.057 -2.3409  1.1204  2.4850
16118TIP3   OH269768   6.176   0.078  11.039 -0.2824 -0.5345  0.2238
16118TIP3    H169769   6.205   0.131  10.965 -0.2427  1.0411  1.3336
16118TIP3    H269770   6.081   0.091  11.041  0.0494  2.7162  2.7661
16119TIP3   OH269771   4.680   0.401   3.030 -0.3847 -0.0858 -0.3200
16119TIP3    H169772   4.733   0.395   3.110 -0.8648 -1.2636 -0.0698
16119TIP3    H269773   4.743   0.389   2.959 -0.1404 -0.3073 -0.0692
16120TIP3   OH269774   3.841   1.069   0.626  0.3763 -0.2885 -0.0248
16120TIP3    H169775   3.839   1.163   0.610 -0.2758 -0.3238 -0.1580
16120TIP3    H269776   3.934   1.049   0.640  0.5075  0.3813  0.0712
16121TIP3   OH269777   4.302   1.774  11.662  0.0434  0.0522  0.4194
16121TIP3    H169778   4.221   1.751  11.616  1.0566  0.5042 -1.6913
16121TIP3    H269779   4.366   1.788  11.593  1.4553  1.6503  1.9536
16122TIP3   OH269780   4.511   1.190  11.413  0.6444 -0.6136  0.0738
16122TIP3    H169781   4.558   1.211  11.493  0.3746  1.4839 -0.2742
16122TIP3    H269782   4.431   1.146  11.444 -0.1800  1.4673  1.1231
16123TIP3   OH269783   2.387   5.709   4.480 -0.1728  0.0920 -0.2114
16123TIP3    H169784   2.363   5.703   4.387 -1.2375 -0.4778  0.0935
16123TIP3    H269785   2.344   5.789   4.510 -0.5166 -0.1753 -0.0003
16124TIP3   OH269786   6.593   5.568  14.491  0.8657  0.0357  0.0363
16124TIP3    H169787   6.675   5.602  14.454  1.1627 -1.6437 -0.9309
16124TIP3    H269788   6.621   5.505  14.557  0.3154  1.8103  2.0687
16125TIP3   OH269789   3.282   3.929   5.788  0.3205  0.4987 -0.5366
16125TIP3    H169790   3.367   3.937   5.832  0.3288  1.3242 -0.6860
16125TIP3    H269791   3.221   3.976   5.845 -0.3983 -1.4985  0.4479
16126TIP3   OH269792   4.209   6.291   2.232 -0.7685  0.4711  0.3567
16126TIP3    H169793   4.298   6.281   2.199 -0.7559  0.3212  0.4389
16126TIP3    H269794   4.219   6.339   2.314 -0.8034  0.8851  0.1263
16127TIP3   OH269795   0.889   0.176  12.606  0.4054  0.0750  0.2104
16127TIP3    H169796   0.911   0.230  12.529  0.8342 -1.3810 -0.7258
16127TIP3    H269797   0.898   0.086  12.575  0.9381 -0.5490  2.1025
16128TIP3   OH269798   4.832   0.150  15.433  0.2370 -0.1398 -0.0771
16128TIP3    H169799   4.789   0.216  15.379  1.2165  1.8193  1.3651
16128TIP3    H269800   4.764   0.120  15.494 -0.4167 -1.0942 -1.2372
16129TIP3   OH269801   2.861   0.776  16.394  0.3584 -0.2780  0.2416
16129TIP3    H169802   2.861   0.681  16.405 -1.9393 -0.2870  0.5020
16129TIP3    H269803   2.785   0.806  16.444  1.0783  1.7171  0.2236
16130TIP3   OH269804   4.807   0.808  14.716 -0.0899  0.2427  0.2584
16130TIP3    H169805   4.804   0.894  14.758 -1.6436  1.0821 -1.4070
16130TIP3    H269806   4.722   0.800  14.672 -0.1882 -2.3712  0.7681
16131TIP3   OH269807   5.018   3.446  15.217 -0.1004  0.0228  0.1704
16131TIP3    H169808   5.018   3.485  15.304 -1.2968  0.8722 -0.1935
16131TIP3    H269809   5.053   3.514  15.160  0.1536 -0.3310 -0.1001
16132TIP3   OH269810   0.667   1.729  14.842  0.6178 -0.2183 -0.5911
16132TIP3    H169811   0.722   1.758  14.915 -0.8381  1.1875  0.0125
16132TIP3    H269812   0.707   1.646  14.814  0.1862 -1.8635  3.0331
16133TIP3   OH269813   2.031   5.909   0.376  1.0038 -0.1373  0.2916
16133TIP3    H169814   2.039   5.932   0.283  2.0453  0.2635  0.4729
16133TIP3    H269815   2.097   5.962   0.420 -0.9914  1.4542  1.5860
16134TIP3   OH269816   4.538   1.956  13.012  0.2665 -0.1630 -0.3738
16134TIP3    H169817   4.572   2.000  13.090 -1.9103  0.8925  0.0645
16134TIP3    H269818   4.483   1.885  13.046  0.5738 -0.7118 -0.9947
16135TIP3   OH269819   1.410   0.332   3.300 -0.0738 -0.0031 -0.1295
16135TIP3    H169820   1.320   0.304   3.314 -0.3112 -0.3701 -2.1191
16135TIP3    H269821   1.411   0.367   3.211  1.2684  2.0696  0.6189
16136TIP3   OH269822   6.762   5.711  12.486  0.0848 -0.2780  0.0324
16136TIP3    H169823   6.758   5.731  12.580 -0.0712  2.1667 -0.4158
16136TIP3    H269824   6.853   5.726  12.462 -0.4460  2.2328 -0.7203
16137TIP3   OH269825   0.280   3.795  14.300  0.3285 -0.0641 -0.5672
16137TIP3    H169826   0.269   3.754  14.386  0.5203  0.1488 -0.4381
16137TIP3    H269827   0.354   3.855  14.312 -0.7055  1.2348 -0.4017
16138TIP3   OH269828   1.460   6.349   5.496  0.0363  0.3770 -0.4446
16138TIP3    H169829   1.543   6.322   5.536 -0.5964 -0.4975  0.3426
16138TIP3    H269830   1.416   6.267   5.475 -1.1289  0.8019  0.2408
16139TIP3   OH269831   0.596   5.601   0.314  0.4275  0.2692  0.0273
16139TIP3    H169832   0.535   5.561   0.376 -0.9220  0.9775 -0.7848
16139TIP3    H269833   0.683   5.581   0.349 -0.2278 -1.5718  0.7338
16140TIP3   OH269834   5.553   4.536   6.025 -0.3534  0.2707 -0.0261
16140TIP3    H169835   5.601   4.597   6.080  1.4833 -1.3951  0.3006
16140TIP3    H269836   5.577   4.560   5.935 -0.2362  0.4937  0.0658
16141TIP3   OH269837   1.007   4.542  13.162 -0.0644  0.2231  0.0818
16141TIP3    H169838   0.961   4.479  13.105 -1.7665  0.4599  1.1152
16141TIP3    H269839   1.093   4.503  13.176 -0.2028 -0.6672 -1.2747
16142TIP3   OH269840   4.691   5.108   5.695  0.0996  0.0481 -0.0271
16142TIP3    H169841   4.623   5.041   5.688  0.1119 -0.1990  1.6144
16142TIP3    H269842   4.755   5.085   5.629 -0.8779 -0.3678 -0.8569
16143TIP3   OH269843   1.920   6.122   2.169 -0.1763 -0.4761  0.1402
16143TIP3    H169844   1.876   6.190   2.221 -1.3368  0.9910 -2.5205
16143TIP3    H269845   1.997   6.166   2.133 -0.3050 -0.9004 -0.6891
16144TIP3   OH269846   3.122   5.145   2.862  0.5788 -0.3471 -0.1152
16144TIP3    H169847   3.116   5.204   2.787 -0.2326  1.0073  0.9887
16144TIP3    H269848   3.159   5.064   2.825  1.0353  0.5772 -1.7940
16145TIP3   OH269849   3.392   5.564  13.740  0.4718  0.2781  0.4867
16145TIP3    H169850   3.479   5.526  13.730  0.6832  1.0725 -0.9389
16145TIP3    H269851   3.332   5.489  13.731  0.9437  0.0031 -0.5491
16146TIP3   OH269852   5.699   2.001  12.800  0.4806  0.3304  0.3552
16146TIP3    H169853   5.703   2.088  12.840 -0.7364  0.3540  0.4849
16146TIP3    H269854   5.720   2.016  12.707  1.1200  0.6231  0.5451
16147TIP3   OH269855   5.867   1.890   1.061  0.2987 -0.1304 -0.1549
16147TIP3    H169856   5.864   1.975   1.105  0.6042 -0.1371 -0.1243
16147TIP3    H269857   5.895   1.829   1.128  2.5775  0.1468 -0.7921
16148TIP3   OH269858   0.422   3.013  16.230 -0.3015 -0.6543  0.3312
16148TIP3    H169859   0.385   2.949  16.291  1.7486 -0.4201  1.9267
16148TIP3    H269860   0.510   2.979  16.211  0.6918  1.4421  0.9271
16149TIP3   OH269861   2.024   1.287  14.439 -0.2279 -0.3737  0.2456
16149TIP3    H169862   1.931   1.303  14.419 -0.3395 -1.5571 -0.2442
16149TIP3    H269863   2.052   1.223  14.374  0.7422 -0.5814  0.8523
16150TIP3   OH269864   0.101   6.211   5.990  0.1205  0.0507 -0.2638
16150TIP3    H169865   0.071   6.120   5.996  0.6994 -0.3110 -2.1614
16150TIP3    H269866   0.184   6.212   6.038  0.4087 -0.5798 -0.7318
16151TIP3   OH269867   5.443   2.514   6.169 -0.2980  0.0366 -0.2743
16151TIP3    H169868   5.400   2.584   6.121 -0.8223 -0.2659 -0.2552
16151TIP3    H269869   5.536   2.532   6.159 -0.3666 -0.3219 -1.8876
16152TIP3   OH269870   1.550   4.397   4.064 -0.8004  0.1038  0.2064
16152TIP3    H169871   1.556   4.491   4.046 -0.7489  0.2293  0.8874
16152TIP3    H269872   1.511   4.361   3.984  1.1246  0.4044 -0.9428
16153TIP3   OH269873   0.327   4.612  16.122 -0.0865 -0.2233 -0.5279
16153TIP3    H169874   0.302   4.556  16.048 -0.4002  0.6030 -1.0574
16153TIP3    H269875   0.306   4.559  16.199 -1.4298 -0.4152 -0.9961
16154TIP3   OH269876   2.493   3.446  11.696 -0.3902  0.5556  0.9478
16154TIP3    H169877   2.444   3.412  11.620 -0.5856 -0.0283  1.3240
16154TIP3    H269878   2.583   3.417  11.680 -0.5612 -0.1969  1.2825
16155TIP3   OH269879   6.349   1.598  16.682 -0.1458  0.4022  0.0825
16155TIP3    H169880   6.334   1.505  16.670 -1.4291  0.7628 -1.4923
16155TIP3    H269881   6.440   1.612  16.656 -0.0876 -0.3313 -0.1106
16156TIP3   OH269882   0.542   5.997  13.478  0.5729  0.4886  0.1898
16156TIP3    H169883   0.616   5.951  13.516  0.9521 -0.2396 -1.3677
16156TIP3    H269884   0.544   5.974  13.385  0.3333  3.0639 -0.5262
16157TIP3   OH269885   1.129   4.609  11.684 -0.3668  0.0707 -0.2290
16157TIP3    H169886   1.062   4.667  11.720 -0.7359 -0.6722  0.3071
16157TIP3    H269887   1.099   4.591  11.595  0.1215  1.2572 -0.6518
16158TIP3   OH269888   1.755   0.983   2.932  0.2919  0.2630 -0.2747
16158TIP3    H169889   1.757   0.964   2.838  1.1381 -1.6262  0.0797
16158TIP3    H269890   1.847   0.979   2.958 -0.0144 -0.0731  0.7875
16159TIP3   OH269891   5.162   1.621   3.433  0.2230  0.1828 -0.1943
16159TIP3    H169892   5.190   1.589   3.347 -0.8904  1.0824 -0.9274
16159TIP3    H269893   5.232   1.679   3.461  0.8851 -0.5910 -0.1891
16160TIP3   OH269894   6.618   0.530   4.116  0.2500  0.6682  0.5901
16160TIP3    H169895   6.631   0.608   4.063  2.4847  0.9284  1.3844
16160TIP3    H269896   6.662   0.460   4.067 -0.4049  0.2266  0.6144
16161TIP3   OH269897   2.740   5.398  10.282  0.6981 -0.1661 -0.3709
16161TIP3    H169898   2.709   5.481  10.316  0.3352 -0.2096 -0.5908
16161TIP3    H269899   2.661   5.352  10.255  1.0481  0.3842 -2.4760
16162TIP3   OH269900   5.202   4.575   4.711  0.0204 -0.3188  0.3014
16162TIP3    H169901   5.250   4.538   4.785 -2.0862 -2.3712  0.7963
16162TIP3    H269902   5.141   4.638   4.751 -0.6808 -0.9595  0.2636
16163TIP3   OH269903   3.093   0.868   5.647  0.4518  0.3803 -0.2111
16163TIP3    H169904   3.000   0.867   5.671  0.6737  0.2579  0.6703
16163TIP3    H269905   3.098   0.813   5.568 -0.1626  0.0782 -0.0463
16164TIP3   OH269906   1.434   6.612   2.746 -0.3673  0.1163  0.4276
16164TIP3    H169907   1.358   6.557   2.762 -2.2627  1.7948 -1.9908
16164TIP3    H269908   1.459   6.646   2.832 -1.8962 -1.0468  1.3705
16165TIP3   OH269909   5.236   5.227   2.539 -0.0252  0.5399 -0.8016
16165TIP3    H169910   5.157   5.214   2.486 -0.3770  1.9940 -0.6859
16165TIP3    H269911   5.229   5.317   2.572 -0.2087 -0.5090  2.3914
16166TIP3   OH269912   4.823   4.687  16.569 -0.4857 -0.7053  0.3956
16166TIP3    H169913   4.846   4.669  16.660  0.3654  2.3094  0.8929
16166TIP3    H269914   4.886   4.753  16.541 -2.8021  0.9621 -1.2748
16167TIP3   OH269915   3.949   6.103  17.202  0.0709  0.6923 -0.1962
16167TIP3    H169916   4.003   6.158  17.146  0.4810  2.1270  1.4993
16167TIP3    H269917   3.859   6.127  17.179  0.2090  0.5941 -0.8540
16168TIP3   OH269918   4.626   6.512  12.445  0.2434 -0.0255 -0.3336
16168TIP3    H169919   4.570   6.571  12.496  0.1614  0.8414 -1.3917
16168TIP3    H269920   4.702   6.497  12.501  0.1205  0.8482  0.0867
16169TIP3   OH269921   2.156   4.526  11.687  0.1921  0.7667 -0.0191
16169TIP3    H169922   2.107   4.466  11.630  0.4842  1.7441 -1.3648
16169TIP3    H269923   2.244   4.528  11.649  1.0153 -0.1634  1.7485
16170TIP3   OH269924   5.168   3.954   5.840 -0.1823  0.1126 -0.2983
16170TIP3    H169925   5.235   3.974   5.905 -1.8309  2.2081  0.9056
16170TIP3    H269926   5.216   3.929   5.762  1.9700  0.9394  0.6904
16171TIP3   OH269927   1.245   5.013  17.004  0.1423 -0.1609  0.3245
16171TIP3    H169928   1.291   5.060  16.935  2.2231  1.0687  2.3961
16171TIP3    H269929   1.161   4.990  16.966  0.6945  1.5802 -2.1622
16172TIP3   OH269930   3.685   3.066  17.202  0.1063  0.0910  0.2063
16172TIP3    H169931   3.773   3.103  17.194 -0.8195  2.7155  1.2293
16172TIP3    H269932   3.668   3.066  17.296 -1.1787  0.1436 -0.0144
16173TIP3   OH269933   5.764   3.388   4.857  0.2844 -0.1274  0.4728
16173TIP3    H169934   5.778   3.294   4.870 -0.9886 -0.2863  0.9019
16173TIP3    H269935   5.846   3.429   4.882  0.6813 -1.0942  0.7835
16174TIP3   OH269936   6.069   2.899  13.911 -0.5389 -0.3104 -0.3445
16174TIP3    H169937   6.142   2.941  13.865 -1.6510  2.4970  0.2752
16174TIP3    H269938   5.996   2.905  13.850 -1.0234 -0.2102  0.2432
16175TIP3   OH269939   4.246   3.027   4.701 -0.3239  0.1649 -0.1572
16175TIP3    H169940   4.280   3.086   4.767 -0.6329 -1.5198  1.5867
16175TIP3    H269941   4.318   3.015   4.639  0.4590  0.6873  0.6381
16176TIP3   OH269942   4.597   2.040   3.797  0.4620  0.4107  0.3062
16176TIP3    H169943   4.623   2.124   3.835  1.0158 -0.3692  1.7033
16176TIP3    H269944   4.509   2.056   3.762  0.1499  1.3130  1.4504
16177TIP3   OH269945   5.648   0.634  11.719 -0.0452 -0.3567  0.2866
16177TIP3    H169946   5.656   0.604  11.810 -1.1035  0.2122  0.5870
16177TIP3    H269947   5.589   0.570  11.678 -0.9557  0.3300  0.4824
16178TIP3   OH269948   2.456   4.355  16.139  0.0728 -0.5053  0.4606
16178TIP3    H169949   2.392   4.388  16.202  1.5762  3.2219  0.2744
16178TIP3    H269950   2.410   4.354  16.055 -0.3025  0.2014  0.6576
16179TIP3   OH269951   6.025   6.484  13.531  0.2164 -0.3893 -0.0957
16179TIP3    H169952   5.931   6.493  13.517 -0.0768  0.0206  1.8736
16179TIP3    H269953   6.052   6.415  13.470 -0.6246  2.0063 -3.4020
16180TIP3   OH269954   2.877   5.305   0.701  0.2920  0.5056  0.2923
16180TIP3    H169955   2.822   5.334   0.628  0.3427  2.6050  1.0450
16180TIP3    H269956   2.866   5.372   0.768  1.9130 -0.2718  1.3968
16181TIP3   OH269957   0.333   5.273   2.607  0.0363  0.2818  0.0226
16181TIP3    H169958   0.241   5.299   2.608 -0.6506 -1.9130 -0.6184
16181TIP3    H269959   0.340   5.203   2.672  1.0994 -0.0863 -0.4565
16182TIP3   OH269960   6.253   5.014  15.317 -0.6570 -0.2763 -0.5291
16182TIP3    H169961   6.284   5.094  15.359 -0.4834 -0.0161 -1.1462
16182TIP3    H269962   6.327   4.953  15.324 -0.5126 -0.1278 -0.7335
16183TIP3   OH269963   3.355   3.771  17.239 -0.3884 -0.1787  0.5336
16183TIP3    H169964   3.291   3.729  17.181 -0.2437 -1.2370  1.1202
16183TIP3    H269965   3.390   3.700  17.292  0.8898  0.4706  0.6046
16184TIP3   OH269966   3.401   0.153   5.063 -0.3832  0.2037 -0.0370
16184TIP3    H169967   3.390   0.097   5.140  2.6194 -0.1308  0.2885
16184TIP3    H269968   3.436   0.235   5.097  0.9982  0.0487 -0.9750
16185TIP3   OH269969   2.066   6.127  14.627 -0.2300  0.1993  0.2347
16185TIP3    H169970   2.047   6.165  14.541 -0.6394 -1.8991 -0.6568
16185TIP3    H269971   2.027   6.040  14.625  1.2171 -0.5744  1.9255
16186TIP3   OH269972   0.583   1.372   2.106  0.5834  0.0685 -0.4163
16186TIP3    H169973   0.541   1.386   2.021  1.9706  0.0965 -1.1315
16186TIP3    H269974   0.546   1.290   2.139 -1.6291  1.1637  0.0291
16187TIP3   OH269975   4.527   4.818  12.085 -0.2275 -0.2606  0.0757
16187TIP3    H169976   4.580   4.768  12.147 -0.6204  0.1017  0.7199
16187TIP3    H269977   4.459   4.758  12.056 -0.2567 -0.3254  0.2785
16188TIP3   OH269978   2.880   2.094  13.791 -0.0195 -0.2030  0.2915
16188TIP3    H169979   2.790   2.061  13.792 -0.2881  0.5378  0.6691
16188TIP3    H269980   2.933   2.015  13.778 -0.8332 -0.3664 -3.1159
16189TIP3   OH269981   0.024   1.436   2.860 -0.0980  0.5553 -0.0433
16189TIP3    H169982   0.032   1.345   2.830  1.3513  0.5573  0.2579
16189TIP3    H269983  -0.025   1.479   2.791 -2.6682 -0.8789  0.7700
16190TIP3   OH269984   4.971   5.502  13.089 -0.3511  1.0881  0.8643
16190TIP3    H169985   4.944   5.560  13.018 -1.1791  1.3656  1.3884
16190TIP3    H269986   4.889   5.473  13.129  0.0306 -0.9091  0.2723
16191TIP3   OH269987   6.101   6.013   0.847  0.1012 -0.1846  0.1752
16191TIP3    H169988   6.149   5.955   0.787 -0.7257 -0.1135 -0.5806
16191TIP3    H269989   6.021   6.035   0.799  0.4223  1.6378  0.4243
16192TIP3   OH269990   5.539   5.983   6.430 -0.2030 -0.2985  0.1030
16192TIP3    H169991   5.541   5.925   6.353  1.7472  0.7962 -0.7576
16192TIP3    H269992   5.467   6.043   6.413  0.2660 -0.0038 -0.9667
16193TIP3   OH269993   6.252   2.221   3.884 -0.3401 -0.4975  0.1446
16193TIP3    H169994   6.226   2.171   3.962  0.2445  0.0193  0.6849
16193TIP3    H269995   6.269   2.309   3.917  1.0225 -0.5415 -0.3545
16194TIP3   OH269996   5.203   2.066  11.580  0.4532  0.4752 -0.0705
16194TIP3    H169997   5.134   2.082  11.516 -0.2696 -2.5374 -0.2371
16194TIP3    H269998   5.284   2.086  11.533 -0.1978  1.5055 -0.7895
16195TIP3   OH269999   0.922   0.816  15.648 -0.7876 -0.1190  0.2367
16195TIP3    H170000   0.952   0.876  15.716 -0.4462  0.6589 -0.5844
16195TIP3    H270001   0.981   0.741  15.654  0.4830  0.7886 -0.4476
16196TIP3   OH270002   6.310   6.348   4.748 -0.0078  0.2012 -0.0704
16196TIP3    H170003   6.327   6.434   4.708 -0.3192  0.4586  0.3430
16196TIP3    H270004   6.356   6.286   4.692  0.6159  0.6869 -0.1094
16197TIP3   OH270005   1.158   6.204   2.502 -0.5321 -0.1733  0.1015
16197TIP3    H170006   1.140   6.110   2.496  0.2218 -0.3013 -0.2197
16197TIP3    H270007   1.162   6.234   2.412  1.0936 -0.2131  0.1201
16198TIP3   OH270008   2.541   6.735   1.868 -0.3163  0.1668  0.9054
16198TIP3    H170009   2.485   6.675   1.918 -2.0194  1.9626  1.2463
16198TIP3    H270010   2.593   6.780   1.935  0.1353 -0.0964  0.7373
16199TIP3   OH270011   4.410   5.412   1.653  0.1636  0.0429 -1.2608
16199TIP3    H170012   4.345   5.370   1.596  2.4992 -2.2482 -2.3850
16199TIP3    H270013   4.385   5.505   1.652 -2.8746 -0.6655 -1.8489
16200TIP3   OH270014   0.509   1.543   4.267  0.2929  0.1716 -0.4095
16200TIP3    H170015   0.458   1.622   4.285  1.6689  0.9055  0.4303
16200TIP3    H270016   0.569   1.570   4.197  2.9276  0.9284  1.9566
16201TIP3   OH270017   2.135   0.238   2.901 -0.1257 -0.0625 -0.2384
16201TIP3    H170018   2.115   0.161   2.954 -0.3926  0.2032  0.0541
16201TIP3    H270019   2.159   0.306   2.965 -1.5812  0.6106 -0.3542
16202TIP3   OH270020   2.725   2.079  12.016  0.2010 -0.0646  0.1404
16202TIP3    H170021   2.703   2.144  12.082 -1.7004 -1.3834  0.9082
16202TIP3    H270022   2.676   2.105  11.938 -0.7243 -0.6578  0.5113
16203TIP3   OH270023   1.717   1.111  13.594  0.0130  0.1092 -0.1904
16203TIP3    H170024   1.699   1.134  13.503  1.3276  0.2165 -0.4503
16203TIP3    H270025   1.783   1.042  13.588  1.6576  1.5355  0.6813
16204TIP3   OH270026   5.241   5.362   3.089 -0.0060  1.1313  0.7302
16204TIP3    H170027   5.151   5.390   3.104  0.1342  0.8744  2.2636
16204TIP3    H270028   5.233   5.276   3.048 -0.4341  1.7001 -0.4286
16205TIP3   OH270029   4.224   2.864  13.838  0.4240  0.2587 -0.2180
16205TIP3    H170030   4.167   2.786  13.844  0.6321  0.0780 -0.5705
16205TIP3    H270031   4.197   2.919  13.912 -0.6599  0.4706 -0.7514
16206TIP3   OH270032   4.975   0.282   4.500 -0.0027  0.0442 -0.5486
16206TIP3    H170033   4.896   0.335   4.511 -1.2101 -2.0469  1.7616
16206TIP3    H270034   5.025   0.296   4.580  1.1294 -0.0261 -1.2233
16207TIP3   OH270035   2.614   5.316  16.171 -0.2953  0.4811  0.0896
16207TIP3    H170036   2.590   5.408  16.174 -0.5104  0.4320 -0.1034
16207TIP3    H270037   2.547   5.272  16.224 -0.3631  0.4007 -0.0621
16208TIP3   OH270038   3.746   0.581  13.917  0.5379 -0.3417 -0.1269
16208TIP3    H170039   3.719   0.537  13.998  0.9602  0.3643  0.4172
16208TIP3    H270040   3.674   0.567  13.856 -1.7027  2.4820  1.6221
16209TIP3   OH270041   4.003   2.781  15.136 -0.1432  0.2378 -0.1357
16209TIP3    H170042   3.945   2.802  15.064 -2.0359 -1.1170  0.9159
16209TIP3    H270043   3.977   2.842  15.206 -0.4766 -0.5224  0.4155
16210TIP3   OH270044   3.491   6.019  16.433  0.2969 -0.1556 -0.4340
16210TIP3    H170045   3.440   5.961  16.489 -1.7676  1.7044 -0.2810
16210TIP3    H270046   3.431   6.048  16.365  1.9124  0.0219 -1.8624
16211TIP3   OH270047   5.291   2.939  14.747 -0.9160  0.0416 -0.3765
16211TIP3    H170048   5.303   2.915  14.655  0.0141  1.9653 -0.7998
16211TIP3    H270049   5.243   3.022  14.744 -1.2684 -0.0967  0.8981
16212TIP3   OH270050   5.974   4.370  16.925  0.1449  0.2649  0.4309
16212TIP3    H170051   6.037   4.437  16.900  0.3412  0.1307  0.5665
16212TIP3    H270052   6.022   4.288  16.920  0.1720  0.2264  1.1611
16213TIP3   OH270053   2.533   2.797  11.332 -0.0761  0.2539 -0.8341
16213TIP3    H170054   2.617   2.832  11.361 -0.1843  0.2219 -0.4726
16213TIP3    H270055   2.526   2.821  11.240  0.0029  0.8839 -0.6757
16214TIP3   OH270056   4.513   5.797  12.955  0.2095 -0.4631  0.2259
16214TIP3    H170057   4.593   5.813  12.904 -0.0554 -1.1318 -0.4186
16214TIP3    H270058   4.444   5.843  12.906 -0.1345 -1.5220 -0.3206
16215TIP3   OH270059   4.739   3.416   1.335 -0.0833  0.2431 -0.4221
16215TIP3    H170060   4.781   3.447   1.255 -2.1494  1.0546 -1.2717
16215TIP3    H270061   4.751   3.321   1.332  0.5501  0.3355 -1.2834
16216TIP3   OH270062   1.409   5.457   2.462 -0.2704  0.2029 -0.0276
16216TIP3    H170063   1.489   5.415   2.431 -0.5307  0.1176 -0.6015
16216TIP3    H270064   1.390   5.414   2.545 -0.4528 -0.7269 -0.5362
16217TIP3   OH270065   5.316   3.655  14.328 -0.3688 -0.2703  0.3166
16217TIP3    H170066   5.404   3.619  14.321 -0.7242 -1.6720  2.1862
16217TIP3    H270067   5.297   3.654  14.422 -1.0968  3.3034  0.3460
16218TIP3   OH270068   4.122   4.643  12.095 -0.0916 -0.2439 -0.2019
16218TIP3    H170069   4.115   4.645  12.190 -1.7342  1.2499 -0.2987
16218TIP3    H270070   4.180   4.717  12.074 -0.4426 -0.0179 -0.3893
16219TIP3   OH270071   1.694   6.459  15.612  0.2611  0.9045 -0.1076
16219TIP3    H170072   1.729   6.424  15.694  1.0399 -0.1043 -0.8419
16219TIP3    H270073   1.769   6.502  15.570 -0.0326  1.0638 -0.4815
16220TIP3   OH270074   1.313   2.832   4.241  0.4705  0.1589 -0.3832
16220TIP3    H170075   1.381   2.887   4.202  1.3304 -0.8451 -0.3416
16220TIP3    H270076   1.332   2.833   4.335  0.5854 -0.3119 -0.3977
16221TIP3   OH270077   5.920   1.836  12.395 -0.1678 -0.4262  0.3348
16221TIP3    H170078   5.971   1.907  12.434 -1.6742 -0.2006  2.0369
16221TIP3    H270079   5.983   1.786  12.343  1.7278 -0.0748  2.1850
16222TIP3   OH270080   6.386   3.933  14.382  0.3863  0.4570  0.1531
16222TIP3    H170081   6.340   4.004  14.338 -0.1761  0.4094  0.6462
16222TIP3    H270082   6.324   3.903  14.450  0.8569 -0.0910  0.3472
16223TIP3   OH270083   2.336   2.881   1.412  0.3405 -0.7701  0.4124
16223TIP3    H170084   2.309   2.964   1.372 -2.2076 -1.3840  0.7021
16223TIP3    H270085   2.385   2.907   1.490 -0.3790  0.4806  0.4810
16224TIP3   OH270086   5.105   5.934  16.629 -0.2096 -0.4122  0.4527
16224TIP3    H170087   5.071   5.986  16.702  0.9517  1.5667 -0.3205
16224TIP3    H270088   5.027   5.914  16.576 -0.8342 -0.4542  1.3726
16225TIP3   OH270089   0.644   5.206  13.652  0.1196  0.0917  0.2947
16225TIP3    H170090   0.682   5.120  13.635  0.1304  0.1294  0.1299
16225TIP3    H270091   0.550   5.193  13.641  0.2130  0.3951 -1.0216
16226TIP3   OH270092   5.940   0.568  13.647  0.0056  0.0232 -0.4699
16226TIP3    H170093   5.970   0.644  13.596  1.1314 -0.2069 -0.1924
16226TIP3    H270094   5.890   0.606  13.719 -1.3330  0.3687 -1.5322
16227TIP3   OH270095   3.850   3.123  12.638 -0.0961 -0.3567  0.1027
16227TIP3    H170096   3.934   3.079  12.628  0.9899  1.7975 -1.0831
16227TIP3    H270097   3.832   3.160  12.551 -1.6264  0.3161  0.6718
16228TIP3   OH270098   5.632   4.255   4.624 -0.0854  0.9026 -0.2052
16228TIP3    H170099   5.628   4.309   4.702  0.3492 -1.0163  1.2196
16228TIP3    H270100   5.718   4.273   4.586  0.1310  1.0623  0.3629
16229TIP3   OH270101   0.660   2.127  10.977 -0.8076 -0.0592 -0.8302
16229TIP3    H170102   0.701   2.091  10.898  3.2761  0.3294  0.8504
16229TIP3    H270103   0.674   2.222  10.969 -1.4324  0.0985 -0.1509
16230TIP3   OH270104   2.646   0.606  15.632  0.0330  0.0136 -0.0038
16230TIP3    H170105   2.740   0.589  15.636  0.0826 -0.6404 -2.4693
16230TIP3    H270106   2.609   0.549  15.699  1.3607  0.3246  1.0496
16231TIP3   OH270107   5.584   2.596   4.110 -0.3982 -0.0554 -0.2688
16231TIP3    H170108   5.513   2.537   4.136 -0.3389  0.3282  0.8576
16231TIP3    H270109   5.549   2.684   4.127  0.5312  0.1257  0.9003
16232TIP3   OH270110   3.735   5.425   0.160  0.6720  0.1429  0.6012
16232TIP3    H170111   3.776   5.501   0.202  1.4311  0.4693 -0.6842
16232TIP3    H270112   3.642   5.438   0.175  0.7248  1.7007 -0.1665
16233TIP3   OH270113   3.766   2.611  13.660  0.2989  0.2949  1.1348
16233TIP3    H170114   3.781   2.695  13.703 -0.9815  0.8782  0.5228
16233TIP3    H270115   3.697   2.570  13.712 -2.2498  1.5980 -0.9550
16234TIP3   OH270116   1.003   1.936   2.886  0.1184 -0.2163  0.1023
16234TIP3    H170117   1.031   1.917   2.796 -0.4640  0.2077 -0.1774
16234TIP3    H270118   1.081   1.923   2.939  0.7015  0.4423 -0.5882
16235TIP3   OH270119   2.679   4.713  14.136  0.0450 -0.4250 -0.2126
16235TIP3    H170120   2.761   4.701  14.088  0.2990  0.2683  0.0227
16235TIP3    H270121   2.637   4.787  14.093 -0.3092 -0.5803 -0.1336
16236TIP3   OH270122   1.909   2.231   6.356  0.4697  0.3071  0.3499
16236TIP3    H170123   1.931   2.138   6.349 -0.3461  0.0461  1.1115
16236TIP3    H270124   1.988   2.272   6.391  0.6343 -0.1910  0.5673
16237TIP3   OH270125   6.371   1.881  11.522  0.1571  0.0204 -0.0358
16237TIP3    H170126   6.327   1.821  11.463 -0.3340  0.2510  0.0959
16237TIP3    H270127   6.335   1.967  11.501 -1.9208 -0.1726  2.2780
16238TIP3   OH270128   4.310   2.112  15.925  0.1855  0.2501 -0.1264
16238TIP3    H170129   4.260   2.159  15.992  0.5763  0.2108  0.1942
16238TIP3    H270130   4.243   2.073  15.869 -0.1547  1.4736 -0.6021
16239TIP3   OH270131   0.435   1.351   3.592 -0.0943  0.0618 -0.1015
16239TIP3    H170132   0.374   1.284   3.623 -0.0639  0.2171  0.2923
16239TIP3    H270133   0.480   1.381   3.671  0.8478 -0.4029 -0.4411
16240TIP3   OH270134   3.010   1.340   1.829 -0.3872  0.1254  0.2153
16240TIP3    H170135   3.044   1.252   1.810 -0.8605  0.4460 -2.5514
16240TIP3    H270136   2.937   1.325   1.889  1.6103 -0.9897  2.5540
16241TIP3   OH270137   4.436   4.056  13.791 -0.1737 -0.3457  0.3520
16241TIP3    H170138   4.383   4.125  13.752  0.3371  0.2721  0.7268
16241TIP3    H270139   4.523   4.068  13.753  0.3890  0.3869  1.7819
16242TIP3   OH270140   3.316   0.512  11.633 -0.0326  0.5841 -0.2046
16242TIP3    H170141   3.228   0.502  11.669  0.2876 -0.0246  0.4520
16242TIP3    H270142   3.361   0.571  11.694  0.1458  0.5212 -0.2735
16243TIP3   OH270143   6.018   4.793   3.283  0.5551 -0.4006  0.0630
16243TIP3    H170144   6.041   4.882   3.310  1.6248 -1.1137  1.6430
16243TIP3    H270145   6.096   4.741   3.302  0.1838 -1.5699 -1.4704
16244TIP3   OH270146   6.733   4.596   5.207  0.0366 -0.1286 -0.0529
16244TIP3    H170147   6.697   4.511   5.183  2.1305 -0.9209 -0.6651
16244TIP3    H270148   6.658   4.648   5.233 -1.3214 -2.1448  0.2733
16245TIP3   OH270149   2.101   0.486   5.793 -0.1850  0.3750 -0.2885
16245TIP3    H170150   2.172   0.450   5.845  1.0862  0.4565 -1.9024
16245TIP3    H270151   2.074   0.413   5.737 -0.6837  0.6463 -0.4045
16246TIP3   OH270152   2.376   0.592   0.667  0.1232  0.7208 -0.0004
16246TIP3    H170153   2.357   0.552   0.751 -1.7717  2.2575  0.3846
16246TIP3    H270154   2.292   0.593   0.622  0.9084  0.8220 -1.5291
16247TIP3   OH270155   1.880   2.804  12.037  0.3915 -0.0174  0.6521
16247TIP3    H170156   1.833   2.835  12.114 -0.1542 -2.6305  1.4529
16247TIP3    H270157   1.914   2.718  12.062 -0.3358 -1.2510 -2.1630
16248TIP3   OH270158   5.536   0.205   3.972  0.5568  0.2855 -0.1532
16248TIP3    H170159   5.543   0.224   3.879  1.0780 -0.4101 -0.2644
16248TIP3    H270160   5.622   0.172   3.997  0.1651 -0.3834  0.3699
16249TIP3   OH270161   1.686   4.867  13.232  0.2063  0.1010  0.4559
16249TIP3    H170162   1.638   4.949  13.229  0.4906  0.2510 -0.0670
16249TIP3    H270163   1.772   4.891  13.267  0.4605  0.1178 -0.1624
16250TIP3   OH270164   3.312   1.030   5.519 -0.1287  0.5936  0.4346
16250TIP3    H170165   3.319   0.945   5.477 -0.1428  1.0588 -0.5344
16250TIP3    H270166   3.308   1.093   5.447 -0.8723  1.3618  1.1138
16251TIP3   OH270167   3.651   4.126   5.893 -0.0375 -0.3729 -0.5039
16251TIP3    H170168   3.629   4.156   5.805  1.2922  1.0772 -0.3990
16251TIP3    H270169   3.687   4.204   5.936  0.7244 -1.4193  0.8244
16252TIP3   OH270170   4.595   4.318  14.239  0.0443 -0.3478  0.0671
16252TIP3    H170171   4.574   4.224  14.232 -0.4616 -0.1742 -0.8739
16252TIP3    H270172   4.510   4.360  14.253  0.1807  0.0467 -0.2887
16253TIP3   OH270173   1.413   5.101  16.397  0.4510  0.0184  0.0249
16253TIP3    H170174   1.506   5.113  16.379  0.4139  1.1414  0.5289
16253TIP3    H270175   1.379   5.056  16.320  1.6569 -1.6126  0.4082
16254TIP3   OH270176   2.261   2.530   5.159 -0.5248  0.4445  0.3686
16254TIP3    H170177   2.220   2.472   5.223  0.3503 -0.3491  0.2350
16254TIP3    H270178   2.211   2.611   5.165  1.2927  1.5265  4.2347
16255TIP3   OH270179   2.273   5.229  14.726 -0.4147  0.4700  0.2091
16255TIP3    H170180   2.322   5.185  14.656  0.0548  0.2898  0.6471
16255TIP3    H270181   2.186   5.190  14.722  0.4136 -1.6913  1.6136
16256TIP3   OH270182   4.143   3.645   1.640  0.1543  0.1474  0.1450
16256TIP3    H170183   4.146   3.550   1.651 -0.5332  0.2193  1.0503
16256TIP3    H270184   4.231   3.675   1.664  0.3502 -0.2442 -0.0645
16257TIP3   OH270185   5.707   6.681  15.739  0.4436  0.5583  0.0974
16257TIP3    H170186   5.688   6.604  15.792 -1.4824 -1.0578 -2.6923
16257TIP3    H270187   5.794   6.709  15.768  0.9322 -2.2464  1.7133
16258TIP3   OH270188   2.647   6.451   2.400  0.2574 -0.8971 -0.2198
16258TIP3    H170189   2.733   6.469   2.361 -0.6680 -0.0463 -1.9464
16258TIP3    H270190   2.589   6.436   2.326 -1.8987  2.1394  0.6376
16259TIP3   OH270191   3.864   4.918   4.565 -0.6162 -0.0268 -0.3157
16259TIP3    H170192   3.939   4.915   4.624 -0.0904 -0.5316 -1.0032
16259TIP3    H270193   3.891   4.977   4.495 -1.2407  0.5723 -0.0619
16260TIP3   OH270194   0.746   2.225   5.131  0.0284 -0.0473 -0.3226
16260TIP3    H170195   0.810   2.241   5.061 -1.3863 -1.1983 -1.9631
16260TIP3    H270196   0.759   2.133   5.154 -1.8620 -0.6997 -1.6398
16261TIP3   OH270197   2.884   5.091  11.543  0.1071 -0.5291 -0.3732
16261TIP3    H170198   2.940   5.052  11.477 -1.0273  1.0122 -2.3584
16261TIP3    H270199   2.806   5.119  11.495 -1.4853 -0.7712  1.9142
16262TIP3   OH270200   2.504   1.627   3.317  0.1860 -0.6567 -0.0694
16262TIP3    H170201   2.560   1.686   3.265 -2.3766  0.5007 -1.7159
16262TIP3    H270202   2.504   1.665   3.405  0.7414  0.2162 -0.4345
16263TIP3   OH270203   3.171   6.241   1.552  0.2527 -0.1991 -0.0454
16263TIP3    H170204   3.254   6.192   1.550  0.9629  0.9537  0.0440
16263TIP3    H270205   3.149   6.254   1.460  0.8433  0.5516 -0.0949
16264TIP3   OH270206   2.979   5.627  15.369 -0.0868  0.3436 -0.4112
16264TIP3    H170207   2.930   5.548  15.349  0.7456 -0.0026 -1.1319
16264TIP3    H270208   3.054   5.597  15.421 -0.7156  0.8913  0.8644
16265TIP3   OH270209   3.404   4.684   2.527  0.4531 -0.7443  0.5669
16265TIP3    H170210   3.452   4.602   2.520  1.5308 -0.3207  2.2058
16265TIP3    H270211   3.391   4.713   2.437  2.3691 -1.4194  0.0276
16266TIP3   OH270212   6.060   3.337   0.163  0.7572  0.1036 -0.1897
16266TIP3    H170213   6.121   3.263   0.164 -1.6851 -2.0834  1.6648
16266TIP3    H270214   5.977   3.299   0.133 -0.4739  2.2084  0.3315
16267TIP3   OH270215   4.010   5.381  15.300  0.2041 -0.6122  0.0463
16267TIP3    H170216   4.079   5.327  15.340  0.2206 -0.0945  0.7376
16267TIP3    H270217   3.930   5.331  15.315  0.0826  0.0048  1.5721
16268TIP3   OH270218   2.239   4.926  12.312 -0.5141  0.2854  0.9143
16268TIP3    H170219   2.219   5.001  12.256  0.2468  0.7101  1.1845
16268TIP3    H270220   2.250   4.852  12.252  1.4325  0.9701  0.3449
16269TIP3   OH270221   6.664   0.522   3.108 -0.0237 -0.1206  0.6116
16269TIP3    H170222   6.701   0.577   3.038  1.9817 -0.2425  1.4981
16269TIP3    H270223   6.587   0.569   3.138  0.4362  1.1320 -0.1056
16270TIP3   OH270224   3.265   3.109  10.881 -0.1421  0.6347 -0.1450
16270TIP3    H170225   3.236   3.072  10.798  0.6394  0.7172 -0.4593
16270TIP3    H270226   3.195   3.085  10.943  0.1023 -0.9825 -0.4379
16271TIP3   OH270227   5.184   4.193   1.265  0.3247  0.1660 -0.1686
16271TIP3    H170228   5.104   4.238   1.237  0.5402 -0.2012 -1.4337
16271TIP3    H270229   5.254   4.236   1.216  0.5692 -1.3561 -1.2179
16272TIP3   OH270230   3.882   3.644   5.779 -0.3486  0.5155  0.1911
16272TIP3    H170231   3.875   3.653   5.684  1.6677  0.3157 -0.0212
16272TIP3    H270232   3.826   3.714   5.813 -0.8391  0.8080 -1.1253
16273TIP3   OH270233   2.746   2.707   3.731  0.4044 -0.2707 -0.2588
16273TIP3    H170234   2.738   2.640   3.799  2.6118 -0.6177 -0.2730
16273TIP3    H270235   2.714   2.664   3.651  0.1264 -0.6902  0.0731
16274TIP3   OH270236   3.694   4.660   4.214  0.1796  0.2563 -0.7895
16274TIP3    H170237   3.748   4.648   4.136 -0.5341  1.5871 -1.5162
16274TIP3    H270238   3.604   4.645   4.183 -0.3735  3.1639 -0.8633
16275TIP3   OH270239   0.077   1.078   5.242  0.5319  0.0685  1.0828
16275TIP3    H170240   0.038   1.061   5.327  0.1842 -2.0011  0.5641
16275TIP3    H270241   0.164   1.039   5.247  0.4497 -0.2122  0.4491
16276TIP3   OH270242   1.938   6.433   0.937  0.2280 -0.8457 -0.2871
16276TIP3    H170243   1.903   6.370   1.001 -0.4621 -0.0795  0.1249
16276TIP3    H270244   2.016   6.468   0.979  0.0221 -0.6663 -0.0473
16277TIP3   OH270245   1.928   5.309   3.781  0.0077  0.2973 -0.1568
16277TIP3    H170246   1.977   5.231   3.808 -2.0803 -0.4950  1.6333
16277TIP3    H270247   1.974   5.382   3.823  1.1379 -0.1030 -0.6592
16278TIP3   OH270248   4.556   1.273   1.638 -0.2806  0.0920 -0.3377
16278TIP3    H170249   4.621   1.238   1.578  0.1101  1.1951 -0.5937
16278TIP3    H270250   4.475   1.226   1.618 -0.0605  0.1871 -1.4699
16279TIP3   OH270251   2.034   5.819  16.739 -0.1955 -0.5602 -0.3824
16279TIP3    H170252   2.080   5.737  16.716 -1.1402 -1.9015  2.1360
16279TIP3    H270253   1.941   5.796  16.735 -0.4536 -0.1971  2.0983
16280TIP3   OH270254   5.890   3.314   5.931 -0.3259  0.0965 -0.4453
16280TIP3    H170255   5.911   3.258   5.856  1.1937  0.4946 -0.3423
16280TIP3    H270256   5.974   3.347   5.961 -1.1666  3.0163 -0.9254
16281TIP3   OH270257   3.012   5.078   5.851  0.1535  0.0209 -0.4706
16281TIP3    H170258   3.033   5.007   5.912 -1.8311  0.2237  0.5276
16281TIP3    H270259   2.919   5.067   5.833  0.1985  1.3645 -1.6582
16282TIP3   OH270260   2.455   0.822  16.721  0.4423  0.0495 -0.3353
16282TIP3    H170261   2.411   0.774  16.651 -1.3609  1.3596 -0.1638
16282TIP3    H270262   2.440   0.769  16.799 -0.0585  0.0324 -0.4395
16283TIP3   OH270263   0.403   5.984   2.295 -0.0916 -0.4660  0.2092
16283TIP3    H170264   0.369   6.023   2.214  0.4249 -1.1019 -0.3302
16283TIP3    H270265   0.494   6.011   2.298 -0.3541  0.3490  1.0912
16284TIP3   OH270266   2.395   2.506   4.546 -0.7408 -0.3525  0.0532
16284TIP3    H170267   2.412   2.487   4.638 -0.0476 -1.4521 -0.2897
16284TIP3    H270268   2.473   2.477   4.500 -1.6225 -1.0782 -1.0357
16285TIP3   OH270269   3.108   1.760   0.045 -0.2327  0.3834 -0.3654
16285TIP3    H170270   3.170   1.706  -0.004  0.7311 -0.9570  2.1369
16285TIP3    H270271   3.035   1.775  -0.015  0.4163 -1.9900 -1.8425
16286TIP3   OH270272   4.510   2.771   5.885 -0.0146 -0.0844  0.2339
16286TIP3    H170273   4.580   2.705   5.885  0.3724  0.3016 -1.2182
16286TIP3    H270274   4.555   2.853   5.865 -0.6865  0.4229  0.7718
16287TIP3   OH270275   3.247   1.612  17.257  0.2164  0.0027  0.6238
16287TIP3    H170276   3.218   1.639  17.170 -1.4928  1.2948  1.5286
16287TIP3    H270277   3.342   1.600  17.248 -0.2110 -2.4044 -1.9758
16288TIP3   OH270278   0.266   2.357   0.515  0.2790  0.0248 -0.0297
16288TIP3    H170279   0.340   2.326   0.566  0.0084  1.1960  1.1338
16288TIP3    H270280   0.231   2.279   0.472  1.2000 -0.7998  0.6846
16289TIP3   OH270281   5.435   4.849   6.081 -0.1597  0.7027  0.4171
16289TIP3    H170282   5.360   4.845   6.142 -0.1968 -1.3726  0.2877
16289TIP3    H270283   5.395   4.859   5.995 -0.2172  0.8151  0.4551
16290TIP3   OH270284   3.157   5.616   5.019 -0.6250  0.8079  0.5261
16290TIP3    H170285   3.167   5.699   4.973 -0.7010  0.9810  0.8164
16290TIP3    H270286   3.104   5.638   5.096 -1.2607  0.3460  0.2199
16291TIP3   OH270287   3.835   4.828  15.766 -0.1449  0.0631  0.0132
16291TIP3    H170288   3.767   4.804  15.704  0.4980 -1.5062 -0.1365
16291TIP3    H270289   3.846   4.922  15.755 -0.6544 -0.0388 -1.6342
16292TIP3   OH270290   5.843   0.445   3.078  0.0267 -0.5138 -0.2956
16292TIP3    H170291   5.935   0.433   3.052  0.0365 -1.8603  0.2920
16292TIP3    H270292   5.839   0.536   3.108  1.9663 -1.2570  2.6398
16293TIP3   OH270293   5.323   4.062  13.245  0.0668 -0.0730 -0.4740
16293TIP3    H170294   5.384   4.038  13.315  1.2803  0.8935 -1.1526
16293TIP3    H270295   5.236   4.050  13.284  0.7004  0.5019  1.2439
16294TIP3   OH270296   3.032   1.086   0.600 -0.3764 -0.6272  0.1639
16294TIP3    H170297   3.108   1.129   0.562  0.0702 -1.6720 -0.1520
16294TIP3    H270298   2.970   1.157   0.616 -0.7352 -0.1352 -2.8348
16295TIP3   OH270299   3.747   5.315   5.679 -0.3235  0.4897 -0.0740
16295TIP3    H170300   3.667   5.322   5.627  0.1463  1.7634 -0.6630
16295TIP3    H270301   3.730   5.368   5.757  0.2780  1.5466 -0.6491
16296TIP3   OH270302   0.526   4.591   2.737  0.0257  0.3655  0.2292
16296TIP3    H170303   0.566   4.678   2.743  0.1121  0.3365  0.0651
16296TIP3    H270304   0.597   4.534   2.709  0.3060  0.0051  1.5807
16297TIP3   OH270305   5.250   0.191  16.461  0.1354  0.1845  0.1149
16297TIP3    H170306   5.202   0.116  16.427  0.6480 -0.8217  1.4977
16297TIP3    H270307   5.242   0.258  16.393 -2.1313 -0.3674 -0.2456
16298TIP3   OH270308   2.517   1.005  12.648 -0.1006  0.1901 -0.1596
16298TIP3    H170309   2.467   0.981  12.571 -0.9655 -3.4705  1.3651
16298TIP3    H270310   2.604   1.028  12.614 -1.0194  0.7455 -2.3203
16299TIP3   OH270311   4.586   3.919   0.969  0.1374  0.0801  0.5606
16299TIP3    H170312   4.547   3.979   0.906 -0.3944 -0.0157  0.7904
16299TIP3    H270313   4.528   3.924   1.045  0.3688 -0.3492  0.7674
16300TIP3   OH270314   0.171   2.398   6.092  0.5365 -0.0289 -0.3383
16300TIP3    H170315   0.238   2.331   6.097  0.6475  0.1272  0.2947
16300TIP3    H270316   0.170   2.439   6.178  3.3071  3.5694 -1.7288
16301TIP3   OH270317   5.770   1.064  16.255 -0.6269 -0.0929 -0.0571
16301TIP3    H170318   5.864   1.077  16.272 -0.1723 -0.5468 -2.0429
16301TIP3    H270319   5.763   0.974  16.225 -1.8145 -0.2490  0.6420
16302TIP3   OH270320   2.974   3.694   6.537  0.0546  0.4336 -0.1386
16302TIP3    H170321   2.888   3.682   6.497  0.1826  0.8401 -0.5484
16302TIP3    H270322   3.035   3.654   6.475  0.2902  1.3873 -0.5465
16303TIP3   OH270323   1.286   2.616   4.089 -0.4134 -0.2577 -0.0163
16303TIP3    H170324   1.309   2.697   4.133  2.9186 -1.0111 -0.0393
16303TIP3    H270325   1.192   2.622   4.072 -0.3924  3.2753  0.5124
16304TIP3   OH270326   6.604   0.734   5.899  0.3817  0.1545  0.1560
16304TIP3    H170327   6.561   0.726   5.984  1.7877 -0.1828  0.8660
16304TIP3    H270328   6.689   0.690   5.911  0.6449  0.2035 -1.3839
16305TIP3   OH270329   0.712   2.264  14.873  0.1112  0.5237  0.1278
16305TIP3    H170330   0.748   2.345  14.837  0.1849  1.1778  1.5662
16305TIP3    H270331   0.649   2.293  14.939 -1.5580 -0.6201 -0.9081
16306TIP3   OH270332   4.871   1.253   3.294 -0.0591 -0.0680  0.5396
16306TIP3    H170333   4.908   1.186   3.237  2.4662  2.0048 -0.4712
16306TIP3    H270334   4.794   1.284   3.247  0.7104  0.0507 -0.7105
16307TIP3   OH270335   3.972   3.421  12.801  0.4016  0.0760  0.2007
16307TIP3    H170336   3.935   3.334  12.813 -1.3903  1.0123  1.9307
16307TIP3    H270337   3.998   3.423  12.708 -0.1982 -2.0109 -0.0668
16308TIP3   OH270338   0.431   1.293   3.311 -0.2787 -0.1810 -0.0035
16308TIP3    H170339   0.395   1.337   3.234 -0.2541  0.3985  0.3079
16308TIP3    H270340   0.435   1.362   3.378 -0.7025 -0.7845  0.6448
16309TIP3   OH270341   1.363   5.867  13.443  0.2012 -0.0874  0.0457
16309TIP3    H170342   1.401   5.852  13.529  1.3204 -0.6726 -0.5335
16309TIP3    H270343   1.367   5.962  13.431 -1.1133  0.1475  1.1240
16310TIP3   OH270344   2.665   6.516  15.509  0.6004  0.0592 -0.4533
16310TIP3    H170345   2.636   6.502  15.418  2.1902 -1.7476 -0.7564
16310TIP3    H270346   2.611   6.457  15.561  0.8031 -0.1375 -0.4621
16311TIP3   OH270347   2.791   1.781   3.806 -0.0010  0.0541 -0.3937
16311TIP3    H170348   2.751   1.725   3.873 -1.0540 -0.5060 -1.4468
16311TIP3    H270349   2.739   1.861   3.809 -0.3793 -0.1665 -0.8637
16312TIP3   OH270350   0.923   4.119   4.363  0.7233 -0.0432  0.1059
16312TIP3    H170351   0.846   4.085   4.318  1.1333  0.4573 -1.0176
16312TIP3    H270352   0.888   4.187   4.421  0.1298 -1.0510  0.9781
16313TIP3   OH270353   4.255   4.799  10.764 -0.0089  0.8556 -0.2095
16313TIP3    H170354   4.245   4.891  10.741  1.2230  0.4482 -2.7938
16313TIP3    H270355   4.328   4.768  10.710 -1.3114 -1.9686 -0.5565
16314TIP3   OH270356   5.854   6.060   4.036  0.3328  0.0137 -0.0127
16314TIP3    H170357   5.948   6.040   4.033  0.7067  1.4906  1.0667
16314TIP3    H270358   5.811   5.974   4.035  1.7219 -0.7118  0.4642
16315TIP3   OH270359   2.040   1.304  11.020 -0.1535  0.2983 -0.0223
16315TIP3    H170360   1.995   1.387  11.032 -1.7200 -0.4410 -0.4993
16315TIP3    H270361   2.105   1.301  11.090  1.1325  2.6620 -1.0023
16316TIP3   OH270362   1.358   6.602  16.475 -0.2717  0.7283 -0.4270
16316TIP3    H170363   1.450   6.630  16.468  0.6760 -1.9641 -0.2451
16316TIP3    H270364   1.316   6.668  16.529  1.6801  1.7867 -0.1042
16317TIP3   OH270365   5.658   3.587  17.074  0.5735  0.1303 -0.0878
16317TIP3    H170366   5.716   3.644  17.124  0.3358  1.5086 -1.3250
16317TIP3    H270367   5.586   3.643  17.048 -0.3802 -1.1010 -0.1719
16318TIP3   OH270368   2.743   5.236   1.042 -0.2589 -0.1019 -0.7341
16318TIP3    H170369   2.687   5.289   0.986 -0.5293  1.6034  1.0184
16318TIP3    H270370   2.794   5.183   0.982 -0.2674  1.8720 -2.6044
16319TIP3   OH270371   5.139   3.588  15.000  0.6662  0.1199 -0.9655
16319TIP3    H170372   5.208   3.521  15.007  1.0618  0.2507 -2.9267
16319TIP3    H270373   5.186   3.671  15.011  0.3137  0.1429  0.5976
16320TIP3   OH270374   1.270   3.271   0.913 -0.3197 -0.5034  0.2432
16320TIP3    H170375   1.205   3.215   0.870  0.4629 -0.6330 -0.8135
16320TIP3    H270376   1.333   3.293   0.844 -0.7728  1.9833  0.5092
16321TIP3   OH270377   4.291   4.076  12.289 -0.1076 -0.1325 -0.0506
16321TIP3    H170378   4.209   4.121  12.268 -0.6266 -1.1854 -0.2992
16321TIP3    H270379   4.280   3.987  12.257  0.6129 -0.6793  1.1187
16322TIP3   OH270380   6.356   0.177   6.042 -0.1245 -0.0165 -0.1631
16322TIP3    H170381   6.387   0.162   6.131 -0.5018 -0.4884 -0.1033
16322TIP3    H270382   6.333   0.090   6.010  0.6476  0.0698 -0.9687
16323TIP3   OH270383   1.191   2.758  13.051  0.3626  0.2306  0.4696
16323TIP3    H170384   1.128   2.779  12.982  0.1159  2.1838  1.2286
16323TIP3    H270385   1.259   2.706  13.006  0.8282  2.4154 -1.5783
16324TIP3   OH270386   2.817   4.261  16.474  0.2950 -0.2642 -0.0718
16324TIP3    H170387   2.778   4.330  16.421 -0.4030 -0.4399  0.2031
16324TIP3    H270388   2.908   4.256  16.444  0.1553  0.2706 -0.5995
16325TIP3   OH270389   4.642   1.505  12.096 -0.0409  0.0393 -0.1204
16325TIP3    H170390   4.705   1.432  12.098  0.6787  0.5860 -1.5804
16325TIP3    H270391   4.573   1.476  12.036 -0.8947 -0.2982  0.9868
16326TIP3   OH270392   2.061   1.447   5.113  0.0623  0.6637 -0.0043
16326TIP3    H170393   2.147   1.429   5.077 -1.1598 -1.1683 -2.3258
16326TIP3    H270394   2.076   1.461   5.206  2.7609 -0.3287 -0.2029
16327TIP3   OH270395   3.964   2.078  12.376  0.5498 -0.1361 -0.3486
16327TIP3    H170396   3.957   1.983  12.365  0.5451  0.0285 -2.0654
16327TIP3    H270397   4.058   2.095  12.377  0.5523 -0.1022 -0.7928
16328TIP3   OH270398   5.586   2.901   2.793  0.4088  0.4201 -0.1338
16328TIP3    H170399   5.568   2.995   2.793  1.2688  0.6103 -1.4966
16328TIP3    H270400   5.505   2.861   2.826  0.8344  1.7252  2.8166
16329TIP3   OH270401   4.467   0.357  11.267  0.0531 -0.0324  0.6132
16329TIP3    H170402   4.536   0.394  11.322  0.2490 -0.9718  1.0263
16329TIP3    H270403   4.514   0.297  11.208 -0.5050 -1.6500  1.7364
16330TIP3   OH270404   2.312   4.666   3.701 -0.1264 -0.2543  0.1229
16330TIP3    H170405   2.226   4.701   3.723  0.5109  1.6040 -0.1934
16330TIP3    H270406   2.340   4.618   3.779 -0.7336  0.5629  0.8470
16331TIP3   OH270407   3.611   1.539   4.089 -0.2216 -0.2882  0.2861
16331TIP3    H170408   3.643   1.485   4.162  1.2121  1.3610  0.9382
16331TIP3    H270409   3.668   1.616   4.089 -1.0065  0.3519 -1.8063
16332TIP3   OH270410   3.788   2.065   3.827 -0.6358  0.0324 -0.1255
16332TIP3    H170411   3.809   2.002   3.896 -2.4749  0.6122  1.0647
16332TIP3    H270412   3.696   2.088   3.844 -0.9790  0.6114 -2.4726
16333TIP3   OH270413   1.652   4.378   4.483  0.1834  0.0915  0.3599
16333TIP3    H170414   1.634   4.472   4.482 -3.3807 -0.4570  1.2450
16333TIP3    H270415   1.591   4.341   4.419  0.9895 -1.7216  0.5865
16334TIP3   OH270416   5.228   4.670   1.652  0.6601  0.3946  0.2210
16334TIP3    H170417   5.314   4.642   1.620  0.2375 -0.2828 -0.3539
16334TIP3    H270418   5.197   4.597   1.705 -0.1219  0.0702 -0.6546
16335TIP3   OH270419   6.526   3.491   5.599 -0.1377 -0.0110  0.1752
16335TIP3    H170420   6.463   3.419   5.600  0.0590 -0.1843  0.1643
16335TIP3    H270421   6.580   3.475   5.522  1.1646 -0.9643  1.2287
16336TIP3   OH270422   1.525   3.388  12.408  0.0222  0.3774 -0.3801
16336TIP3    H170423   1.481   3.471  12.389 -0.6903  0.4078  1.2431
16336TIP3    H270424   1.566   3.402  12.493  1.1638 -0.4687 -0.7656
16337TIP3   OH270425   3.654   4.883  16.856 -0.2030  0.4710 -0.6347
16337TIP3    H170426   3.588   4.836  16.906 -0.6885  1.1986 -0.5732
16337TIP3    H270427   3.656   4.840  16.770 -0.1397 -0.0907 -0.3530
16338TIP3   OH270428   5.958   2.239   0.126 -0.0209 -0.0581  0.1272
16338TIP3    H170429   5.878   2.289   0.143  0.9663  1.8029 -0.3917
16338TIP3    H270430   6.027   2.290   0.169  0.8203 -1.9808  1.1555
16339TIP3   OH270431   3.712   1.089   4.378  0.4679  0.3720  0.2881
16339TIP3    H170432   3.654   1.123   4.446 -1.2722  0.2907 -1.1004
16339TIP3    H270433   3.681   1.129   4.297  2.3208  0.2536 -0.5404
16340TIP3   OH270434   5.555   6.133  11.690  0.2045  0.1264  0.5007
16340TIP3    H170435   5.480   6.182  11.658 -0.8734 -1.7795 -0.0341
16340TIP3    H270436   5.572   6.168  11.777 -0.3513  1.5872  0.0444
16341TIP3   OH270437   2.042   4.216  13.604 -0.1652 -0.5688 -0.4926
16341TIP3    H170438   2.109   4.199  13.671  0.1836 -0.3510 -0.7815
16341TIP3    H270439   2.091   4.227  13.523 -0.5993 -0.9580 -0.8116
16342TIP3   OH270440   5.173   4.412  17.169  0.4652 -0.0332 -0.0510
16342TIP3    H170441   5.105   4.456  17.118  1.8424  1.3405 -0.7881
16342TIP3    H270442   5.189   4.330  17.123 -0.5966 -0.3147  0.0645
16343TIP3   OH270443   0.889   1.251   4.642 -0.2876 -0.1788 -0.6542
16343TIP3    H170444   0.889   1.219   4.732 -0.3772 -0.2297 -0.6716
16343TIP3    H270445   0.818   1.316   4.640 -0.8355 -0.7759 -0.8957
16344TIP3   OH270446   4.306   5.630   3.981  0.1207 -0.7279 -0.1217
16344TIP3    H170447   4.368   5.597   4.046 -0.3208 -2.1705 -0.4046
16344TIP3    H270448   4.361   5.651   3.905  0.4433 -0.5598  0.1540
16345TIP3   OH270449   6.409   4.491  10.898  0.5581  0.1500  0.2494
16345TIP3    H170450   6.500   4.508  10.923  0.3049 -0.2875  1.5372
16345TIP3    H270451   6.408   4.500  10.803  1.7934  0.8627  0.2879
16346TIP3   OH270452   0.507   4.166  11.875  0.5383  0.2112 -0.0583
16346TIP3    H170453   0.570   4.138  11.941  1.0212 -1.4844 -1.1757
16346TIP3    H270454   0.436   4.102  11.880 -1.1627  2.0410  1.1272
16347TIP3   OH270455   5.921   5.404   2.105 -0.3188  0.0026  0.3810
16347TIP3    H170456   5.833   5.369   2.114 -0.8929  1.4838  0.7265
16347TIP3    H270457   5.977   5.339   2.149 -1.2956 -0.6273  0.7354
16348TIP3   OH270458   3.800   3.210   2.917 -0.7203 -0.0591  0.0708
16348TIP3    H170459   3.749   3.282   2.954 -2.1753  0.2326 -2.3013
16348TIP3    H270460   3.856   3.252   2.852 -2.0381 -1.0512 -1.7916
16349TIP3   OH270461   1.979   3.276   4.640 -0.1968  0.2922 -0.0534
16349TIP3    H170462   1.971   3.181   4.627 -0.1738  0.5062 -2.0092
16349TIP3    H270463   2.070   3.295   4.617 -0.2194  0.7911  0.2600
16350TIP3   OH270464   1.641   6.650  13.789  0.1298  0.2614 -0.5021
16350TIP3    H170465   1.602   6.627  13.704  1.3140 -0.1395 -0.9505
16350TIP3    H270466   1.629   6.745  13.796 -1.5177  0.0768 -0.3078
16351TIP3   OH270467   4.445   1.962  12.550  0.0026  0.4372 -0.8082
16351TIP3    H170468   4.359   1.985  12.586  0.2696  0.0047  0.1402
16351TIP3    H270469   4.475   1.890  12.606 -0.5103 -1.8104 -3.2488
16352TIP3   OH270470   5.220   6.050   3.185 -0.1190 -0.6682 -0.1932
16352TIP3    H170471   5.174   6.081   3.107  0.0037 -4.3305 -1.9299
16352TIP3    H270472   5.150   6.025   3.245 -0.2515 -0.1720 -0.1338
16353TIP3   OH270473   2.998   4.089  14.934 -0.2329  0.5519  0.0871
16353TIP3    H170474   3.077   4.125  14.894  0.1373 -0.5788 -0.2633
16353TIP3    H270475   3.010   4.101  15.028 -0.1841  1.4275 -0.0246
16354TIP3   OH270476   0.776   3.320   3.615 -0.1631  0.0104  0.0554
16354TIP3    H170477   0.791   3.411   3.642 -0.1842  0.1869 -0.4974
16354TIP3    H270478   0.689   3.322   3.573  0.0777 -0.1418 -0.4676
16355TIP3   OH270479   4.336   2.082  13.410 -0.2032 -0.1087 -0.4022
16355TIP3    H170480   4.399   2.120  13.349 -0.9918  1.0736 -0.4954
16355TIP3    H270481   4.339   2.139  13.487  1.4367 -2.0675  1.1201
16356TIP3   OH270482   3.347   3.952   1.564 -0.5175 -0.4460  0.5579
16356TIP3    H170483   3.400   3.884   1.607  1.5573  0.1848 -0.8494
16356TIP3    H270484   3.389   4.034   1.590 -0.2559  0.0297 -1.2373
16357TIP3   OH270485   2.579   3.656  14.322  0.0141  0.2394  0.8898
16357TIP3    H170486   2.561   3.656  14.416 -1.4510  0.9082  0.6370
16357TIP3    H270487   2.502   3.698  14.282  0.6184  0.0110 -0.6054
16358TIP3   OH270488   2.340   1.456   0.328 -0.1053 -0.4193 -0.0107
16358TIP3    H170489   2.433   1.477   0.328 -0.4058  0.9642  0.3960
16358TIP3    H270490   2.321   1.430   0.237  0.2410  1.4185 -0.6520
16359TIP3   OH270491   4.394   1.120   3.919 -0.1647  0.2687 -0.3379
16359TIP3    H170492   4.308   1.105   3.880  0.9022 -0.9300 -2.3934
16359TIP3    H270493   4.436   1.034   3.919  1.2912  0.9435 -0.0155
16360TIP3   OH270494   1.551   2.194   5.144  0.3595 -0.2253  0.6778
16360TIP3    H170495   1.614   2.138   5.098 -1.0822 -1.8595  0.5550
16360TIP3    H270496   1.578   2.191   5.235  2.0532  1.3760  0.2729
16361TIP3   OH270497   2.515   0.047   0.652  0.3570 -0.2465  0.0068
16361TIP3    H170498   2.582   0.096   0.603  1.9971 -0.5313  1.8559
16361TIP3    H270499   2.564  -0.022   0.696 -1.4724 -1.6541 -0.0575
16362TIP3   OH270500   6.660   1.786  15.201 -0.0195 -0.2269  0.0159
16362TIP3    H170501   6.723   1.844  15.160  1.8352 -2.4642 -0.5144
16362TIP3    H270502   6.713   1.726  15.253 -1.8901 -1.0014  1.1513
16363TIP3   OH270503   5.038   5.587   2.657 -0.1211  0.6321  0.4171
16363TIP3    H170504   5.093   5.537   2.597 -1.2026  1.8202 -1.6666
16363TIP3    H270505   5.003   5.522   2.718  2.5175 -0.3257  1.0199
16364TIP3   OH270506   6.283   2.885  15.586  0.4620  0.3206 -0.1317
16364TIP3    H170507   6.255   2.941  15.658 -0.5015  0.7499 -0.8322
16364TIP3    H270508   6.316   2.806  15.630 -2.6042 -0.6144  0.7785
16365TIP3   OH270509   6.495   1.539   1.156  0.7244  0.2359 -0.4675
16365TIP3    H170510   6.400   1.551   1.154  0.4644 -1.3095  0.7092
16365TIP3    H270511   6.527   1.613   1.207  0.1149  0.6423 -0.6661
16366TIP3   OH270512   4.227   4.538  15.663 -0.4975  0.1249  0.3601
16366TIP3    H170513   4.143   4.495  15.649  0.0666 -1.2957  1.1057
16366TIP3    H270514   4.291   4.467  15.660  0.6083  1.0909  0.4373
16367TIP3   OH270515   2.063   3.989   3.030  0.3166  0.6110  0.1658
16367TIP3    H170516   2.062   4.084   3.042  0.8644  0.5125  1.1270
16367TIP3    H270517   2.005   3.973   2.956  1.0374  1.7808 -0.6888
16368TIP3   OH270518   2.271   5.223  16.809  0.3601  0.4199  0.4896
16368TIP3    H170519   2.354   5.251  16.771 -0.0101  1.2195  0.2372
16368TIP3    H270520   2.205   5.247  16.743  0.0815 -1.8490 -0.1300
16369TIP3   OH270521   1.730   0.250  13.556  0.1798 -0.2711  0.4192
16369TIP3    H170522   1.727   0.181  13.490  1.7007  0.8320 -0.8659
16369TIP3    H270523   1.780   0.212  13.628 -1.1191 -1.3341  0.8024
16370TIP3   OH270524   3.577   6.080   6.241 -0.4063  0.1932  0.4659
16370TIP3    H170525   3.625   6.161   6.227  0.1920 -0.1070  0.7325
16370TIP3    H270526   3.640   6.011   6.220 -1.2055 -0.2083 -0.7311
16371TIP3   OH270527   2.651   5.462  14.639 -0.1387 -0.1930 -0.3071
16371TIP3    H170528   2.670   5.377  14.599  0.8962  0.5660 -1.5015
16371TIP3    H270529   2.692   5.525  14.581  0.1817  1.0612  1.2245
16372TIP3   OH270530   4.014   1.600   4.277 -0.1564 -0.0782  0.3307
16372TIP3    H170531   4.065   1.681   4.279 -0.1348 -0.0954  0.6317
16372TIP3    H270532   3.925   1.628   4.257 -0.0161 -0.0568 -0.2926
16373TIP3   OH270533   5.142   5.031  16.310  0.3885  0.3375  0.0903
16373TIP3    H170534   5.068   5.050  16.252  0.0688 -0.0008  0.3833
16373TIP3    H270535   5.164   4.940  16.291  0.3692  0.2667  0.4018
16374TIP3   OH270536   6.483   3.233  14.081 -0.3659  0.4351 -0.1496
16374TIP3    H170537   6.534   3.186  14.147 -1.1960  1.2460  1.1157
16374TIP3    H270538   6.537   3.310  14.059  0.4238 -0.4083 -1.2967
16375TIP3   OH270539   4.676   2.943  13.647 -0.1839 -0.5692 -0.4954
16375TIP3    H170540   4.631   2.896  13.577  1.6432 -0.7660 -1.6265
16375TIP3    H270541   4.747   2.883  13.673  0.2680  0.2619  0.2399
16376TIP3   OH270542   6.547   1.684   5.582  0.1585 -0.4803  0.2812
16376TIP3    H170543   6.490   1.640   5.520 -0.4784 -0.2874  0.7162
16376TIP3    H270544   6.533   1.639   5.665 -0.9913  0.8980  0.8874
16377TIP3   OH270545   1.411   4.639  12.456 -0.1602 -0.3490 -0.0338
16377TIP3    H170546   1.472   4.588  12.403 -0.4743  0.2203 -0.9659
16377TIP3    H270547   1.394   4.584  12.533 -0.5900 -1.7074 -1.0606
16378TIP3   OH270548   3.543   5.455   0.521 -0.0048  0.2104  0.6138
16378TIP3    H170549   3.595   5.375   0.511  0.8286  0.4234  2.6611
16378TIP3    H270550   3.513   5.475   0.433  0.1735 -2.0754 -0.0342
16379TIP3   OH270551   4.024   6.760  15.385  0.0683  0.2370  0.1293
16379TIP3    H170552   4.054   6.730  15.299 -2.4543 -1.8011 -0.1639
16379TIP3    H270553   4.025   6.682  15.440 -0.9678  0.8920  1.1268
16380TIP3   OH270554   1.215   0.701   2.429 -0.0168 -0.6104 -0.0887
16380TIP3    H170555   1.171   0.666   2.506  1.3616 -2.0235  0.1139
16380TIP3    H270556   1.169   0.783   2.410  0.3523  0.4373  2.9736
16381TIP3   OH270557   3.907   4.261  14.564  0.2565 -0.9529 -0.0954
16381TIP3    H170558   3.923   4.214  14.646 -0.7631 -0.7176  0.2481
16381TIP3    H270559   3.956   4.343  14.574 -0.1395 -0.7801  0.4177
16382TIP3   OH270560   0.652   4.710  13.392  0.1873 -0.2420 -0.7220
16382TIP3    H170561   0.707   4.631  13.399  0.1580 -0.1058  2.6986
16382TIP3    H270562   0.568   4.684  13.430  0.0361  1.2949  0.0501
16383TIP3   OH270563   6.192   2.514   1.018  0.4400 -0.2802  0.1924
16383TIP3    H170564   6.099   2.492   1.005  0.6398  0.2531 -2.8402
16383TIP3    H270565   6.238   2.433   0.998  0.6693 -0.3950  1.1640
16384TIP3   OH270566   5.097   6.589   4.361 -0.7358  0.3365 -0.1782
16384TIP3    H170567   5.144   6.634   4.431  0.3116 -0.6271 -0.2400
16384TIP3    H270568   5.052   6.517   4.405  1.7804 -1.7211 -0.7019
16385TIP3   OH270569   1.193   5.197  14.989 -0.1817 -0.0684  0.0510
16385TIP3    H170570   1.143   5.155  14.919  0.4337  0.9876 -1.0765
16385TIP3    H270571   1.141   5.275  15.011  0.5209  0.5811 -0.5368
16386TIP3   OH270572   3.974   5.018   1.450 -0.1797 -0.0790  0.3253
16386TIP3    H170573   4.056   4.986   1.488 -0.0695 -0.4079 -0.1686
16386TIP3    H270574   3.952   5.095   1.501  1.0121  0.6560 -0.2075
16387TIP3   OH270575   3.181   5.236  12.989 -0.1720 -1.0534 -0.2316
16387TIP3    H170576   3.268   5.273  13.007 -1.0413  0.3436  1.4352
16387TIP3    H270577   3.170   5.243  12.895  1.3370 -0.8363 -0.4122
16388TIP3   OH270578   1.252   2.017  15.839  0.1720 -0.1942  0.0983
16388TIP3    H170579   1.279   2.103  15.870  1.0386  0.0479 -1.2206
16388TIP3    H270580   1.334   1.967  15.834 -0.3096 -1.0737  0.7776
16389TIP3   OH270581   0.199   2.612  11.628 -0.3134 -0.1623 -0.0759
16389TIP3    H170582   0.243   2.562  11.559  1.0345 -0.7778  1.1859
16389TIP3    H270583   0.117   2.641  11.587  1.0433  0.7181 -2.4137
16390TIP3   OH270584   2.998   4.582   3.655 -0.6094  0.0775 -0.0935
16390TIP3    H170585   2.943   4.511   3.689 -0.4527 -0.3639 -0.7424
16390TIP3    H270586   2.941   4.630   3.595 -0.2811 -0.4115 -0.8065
16391TIP3   OH270587   5.032   1.427  17.259  0.0745  0.8685  0.5672
16391TIP3    H170588   4.998   1.465  17.340  0.5962  0.4138  1.0055
16391TIP3    H270589   5.035   1.333  17.275  2.0410  0.9275  0.7660
16392TIP3   OH270590   0.081   6.414   0.400  0.2875  0.6975 -0.3305
16392TIP3    H170591  -0.012   6.398   0.385  0.7505 -2.5460 -0.3771
16392TIP3    H270592   0.125   6.388   0.319  1.2653  3.0030 -0.6392
16393TIP3   OH270593   0.376   2.266   4.212  0.1567  0.2558  0.2524
16393TIP3    H170594   0.295   2.282   4.164 -0.5039  1.3050  1.6626
16393TIP3    H270595   0.435   2.336   4.183  0.8771 -0.9451 -1.3468
16394TIP3   OH270596   4.864   3.894  15.763  0.0389 -0.0069 -0.2074
16394TIP3    H170597   4.877   3.859  15.851 -0.5940  1.6543  0.5744
16394TIP3    H270598   4.838   3.817  15.711 -0.2602 -0.8934  1.1905
16395TIP3   OH270599   5.031   6.317  13.118 -0.5559 -0.1119  0.0473
16395TIP3    H170600   5.108   6.268  13.146 -1.7001 -2.3300 -0.4212
16395TIP3    H270601   5.057   6.357  13.035  0.2184 -0.4565  0.1189
16396TIP3   OH270602   3.759   5.178  14.614  0.2052 -0.1596  0.6147
16396TIP3    H170603   3.788   5.150  14.701  1.4671  1.2905  0.7082
16396TIP3    H270604   3.831   5.232  14.582 -0.7749  0.3334 -0.8314
16397TIP3   OH270605   5.495   0.187   0.995  0.0272  0.6339  0.2947
16397TIP3    H170606   5.469   0.097   1.014 -0.0679  0.5969 -0.0168
16397TIP3    H270607   5.477   0.234   1.076  0.2250  0.3407  0.5129
16398TIP3   OH270608   6.293   6.519   6.061  0.0553  0.4499 -0.4638
16398TIP3    H170609   6.318   6.591   6.119 -1.8036  1.3612 -0.7171
16398TIP3    H270610   6.241   6.461   6.116  2.8274 -1.6434  0.1736
16399TIP3   OH270611   1.694   5.641  17.332  0.2239 -0.7433  0.0998
16399TIP3    H170612   1.602   5.619  17.343 -0.0455  0.8389  1.5439
16399TIP3    H270613   1.694   5.730  17.296  1.1647 -0.6070  0.3933
16400TIP3   OH270614   5.124   4.269  16.814 -0.0587 -0.2061 -0.1337
16400TIP3    H170615   5.156   4.231  16.895 -1.1712 -1.7504 -0.3669
16400TIP3    H270616   5.197   4.321  16.781  1.3836 -1.7621  0.4603
16401TIP3   OH270617   0.948   2.054  15.874 -0.3422 -0.2647  0.2393
16401TIP3    H170618   0.930   2.028  15.784  0.6828 -1.8687  0.4591
16401TIP3    H270619   1.036   2.022  15.892 -0.9148 -0.9689  2.1409
16402TIP3   OH270620   3.189   6.422   2.615 -0.0931  0.3582 -0.0422
16402TIP3    H170621   3.112   6.365   2.609  1.1166 -1.2965 -0.7703
16402TIP3    H270622   3.182   6.481   2.540 -1.0193  0.7341  0.3301
16403TIP3   OH270623   1.012   0.836   5.963  0.0478  0.0349 -0.5146
16403TIP3    H170624   0.976   0.868   5.880 -0.7238  1.1821  0.2377
16403TIP3    H270625   1.041   0.915   6.009 -0.3021 -0.5028  0.6650
16404TIP3   OH270626   4.197   3.230  16.002  0.0225 -0.3400 -0.8919
16404TIP3    H170627   4.106   3.217  16.028  0.4533 -2.1650 -0.1354
16404TIP3    H270628   4.213   3.323  16.017 -2.3380  0.5503 -3.1894
16405TIP3   OH270629   4.857   1.339   0.837 -0.2408 -0.3204  0.2705
16405TIP3    H170630   4.950   1.355   0.823  0.0195 -1.9198 -0.0470
16405TIP3    H270631   4.842   1.252   0.800 -2.4285  0.9064 -2.1379
16406TIP3   OH270632   5.465   2.300   6.348  0.0978 -0.1444  0.7484
16406TIP3    H170633   5.548   2.282   6.304 -0.0536  0.1679  0.3306
16406TIP3    H270634   5.428   2.374   6.300 -0.0906  0.1701  1.3778
16407TIP3   OH270635   2.829   3.822  11.907 -0.0912 -0.3036 -0.3050
16407TIP3    H170636   2.785   3.740  11.930 -1.1912 -0.0724 -1.4892
16407TIP3    H270637   2.912   3.795  11.869  1.5311 -0.7214  3.1661
16408TIP3   OH270638   2.728   6.598  11.389  0.2885  0.9657 -0.3287
16408TIP3    H170639   2.777   6.569  11.312 -0.1719 -0.2660 -0.1880
16408TIP3    H270640   2.795   6.621  11.453  0.6942  0.0892 -0.4248
16409TIP3   OH270641   1.299   0.449  12.759  0.1773  0.1773  0.0610
16409TIP3    H170642   1.302   0.436  12.665 -0.7135  0.9411 -0.0939
16409TIP3    H270643   1.376   0.503  12.778  0.8259 -0.6663 -0.0853
16410TIP3   OH270644   2.904   3.861  17.149 -0.1243 -0.1604  0.1344
16410TIP3    H170645   2.925   3.951  17.123  0.0530  0.2409  1.5647
16410TIP3    H270646   2.821   3.869  17.196  0.6024 -0.4772  1.5561
16411TIP3   OH270647   2.978   4.590  13.036 -0.0073  0.6725 -0.4214
16411TIP3    H170648   2.988   4.622  13.126  1.0455  1.5402 -0.8226
16411TIP3    H270649   2.895   4.542  13.037  0.7640 -0.7372  1.4001
16412TIP3   OH270650   1.552   3.008  13.815 -0.0264 -0.5194  0.1530
16412TIP3    H170651   1.494   2.950  13.864 -0.5038 -1.9066 -1.9238
16412TIP3    H270652   1.503   3.090  13.807 -0.5432 -0.7678  0.6730
16413TIP3   OH270653   2.408   0.176  12.201  0.0056 -0.7119 -0.3914
16413TIP3    H170654   2.393   0.097  12.149  0.3751 -1.2479  0.2928
16413TIP3    H270655   2.463   0.231  12.146  1.4961 -1.8293 -0.0974
16414TIP3   OH270656   4.083   0.044   4.320  0.9830  0.0405 -0.2820
16414TIP3    H170657   4.128   0.108   4.265  1.6936  0.8766  1.1970
16414TIP3    H270658   4.070  -0.032   4.264  0.3501  1.3755 -2.0224
16415TIP3   OH270659   1.786   2.326  13.424 -0.3231  0.0574 -0.7597
16415TIP3    H170660   1.736   2.294  13.348  0.8902 -1.0770 -1.1175
16415TIP3    H270661   1.766   2.419  13.427 -0.9010  0.0122 -2.0994
16416TIP3   OH270662   0.127   3.726  12.569 -0.3397 -0.2039  0.0126
16416TIP3    H170663   0.171   3.668  12.631  1.3852 -1.2504 -2.0412
16416TIP3    H270664   0.198   3.777  12.530 -1.1276 -0.5834 -2.0660
16417TIP3   OH270665   2.838   0.967   0.896 -0.1440 -0.6296 -0.1095
16417TIP3    H170666   2.846   1.062   0.894 -0.1962 -0.6308 -0.4453
16417TIP3    H270667   2.893   0.937   0.823  2.0598 -1.0129  1.6170
16418TIP3   OH270668   4.228   0.088  12.736  0.1376 -0.4802  0.0531
16418TIP3    H170669   4.276   0.008  12.755  1.4595  0.0206 -1.0449
16418TIP3    H270670   4.201   0.079  12.644  0.8390  0.5842 -0.2721
16419TIP3   OH270671   1.900   5.824  11.442  0.2534  0.1834 -0.0941
16419TIP3    H170672   1.987   5.864  11.438  0.1318  0.6031  0.9825
16419TIP3    H270673   1.900   5.777  11.525 -1.1839  1.7815  0.8784
16420TIP3   OH270674   3.169   1.150   3.153 -0.0194 -0.2211 -0.5781
16420TIP3    H170675   3.133   1.218   3.210  3.4513  1.0848  0.2697
16420TIP3    H270676   3.228   1.100   3.209 -0.0359 -1.9289 -1.9908
16421TIP3   OH270677   5.198   2.512   0.485 -0.2477  0.1065  0.2423
16421TIP3    H170678   5.104   2.505   0.473 -0.4430  0.3497  1.4243
16421TIP3    H270679   5.229   2.422   0.495 -0.3892  0.0407  0.0770
16422TIP3   OH270680   4.443   3.023  14.203  0.7458  0.2445 -0.5800
16422TIP3    H170681   4.385   3.082  14.153  0.6016 -0.8623 -1.7746
16422TIP3    H270682   4.383   2.966  14.251  0.8868  1.2599  0.8497
16423TIP3   OH270683   0.590   3.003  12.603  0.0499 -1.0305  0.3434
16423TIP3    H170684   0.573   2.968  12.516 -0.9256  1.7032 -0.6639
16423TIP3    H270685   0.503   3.018  12.641  0.2341  2.0872 -0.1591
16424TIP3   OH270686   3.455   0.204  11.684 -0.4175  0.1493  0.0155
16424TIP3    H170687   3.538   0.194  11.638 -0.4763 -0.8729  0.1097
16424TIP3    H270688   3.398   0.249  11.622 -0.4352 -1.0327 -0.8587
16425TIP3   OH270689   0.599   3.988   5.372  0.2568  0.2801 -0.0532
16425TIP3    H170690   0.529   4.043   5.408 -0.6322 -0.7816 -0.0922
16425TIP3    H270691   0.626   3.932   5.445  0.0137 -0.3390 -0.4331
16426TIP3   OH270692   4.135   5.370   3.174 -0.1315  0.5709 -0.2990
16426TIP3    H170693   4.122   5.275   3.180  0.5170  0.5556  1.6107
16426TIP3    H270694   4.113   5.403   3.261 -1.4144  2.3478 -1.2352
16427TIP3   OH270695   0.376   3.656  12.716  0.2176 -0.1254  0.6291
16427TIP3    H170696   0.440   3.605  12.666 -0.7016 -0.4627 -0.2283
16427TIP3    H270697   0.357   3.602  12.792  0.9588 -0.0159  0.8980
16428TIP3   OH270698   0.855   0.642   1.440 -0.3489 -0.0888 -0.0141
16428TIP3    H170699   0.898   0.557   1.450 -0.0673  0.1050  0.4616
16428TIP3    H270700   0.864   0.663   1.347 -0.0914 -0.4089 -0.0620
16429TIP3   OH270701   4.104   5.395   3.858  0.6265 -0.5212 -0.2817
16429TIP3    H170702   4.178   5.350   3.898  0.9661  0.1263 -0.1550
16429TIP3    H270703   4.100   5.480   3.904 -0.6170 -0.8055  0.1809
16430TIP3   OH270704   0.905   2.949  14.864 -0.3409  0.1417  0.6515
16430TIP3    H170705   0.934   3.034  14.898 -0.7432 -0.2188  1.9387
16430TIP3    H270706   0.827   2.970  14.812 -0.6082  0.5404  1.1984
16431TIP3   OH270707   1.734   1.322  14.403  0.1549 -0.0661  0.8173
16431TIP3    H170708   1.654   1.303  14.354  0.8611  0.5702 -0.6354
16431TIP3    H270709   1.714   1.403  14.450 -0.8380 -1.1549  2.3804
16432TIP3   OH270710   2.885   0.700  17.330  0.0331  0.3542 -0.0876
16432TIP3    H170711   2.792   0.697  17.351 -0.0665  0.3574 -0.5083
16432TIP3    H270712   2.912   0.789  17.353  0.2142 -0.0104  1.1479
16433TIP3   OH270713   5.708   0.620   4.270 -0.2176 -0.0274 -0.0934
16433TIP3    H170714   5.799   0.598   4.254  0.4632  1.9115  0.7342
16433TIP3    H270715   5.689   0.585   4.357  0.0291  0.3230  0.1049
16434TIP3   OH270716   6.522   0.229   5.294  0.1165 -0.0787  0.0316
16434TIP3    H170717   6.581   0.262   5.226  0.7301 -0.3171  0.4451
16434TIP3    H270718   6.493   0.307   5.341  0.8752 -0.0490  0.4532
16435TIP3   OH270719   0.802   4.021  14.037  0.0593 -0.3534  0.2783
16435TIP3    H170720   0.711   4.009  14.009 -0.1104 -0.9504  1.0188
16435TIP3    H270721   0.795   4.058  14.125  0.5090 -0.9295  0.5693
16436TIP3   OH270722   0.364   2.026  16.249  0.2189  0.1928  0.6630
16436TIP3    H170723   0.280   2.037  16.293 -0.1269 -0.1833  0.1053
16436TIP3    H270724   0.410   1.960  16.302 -0.6048 -1.0236 -0.1036
16437TIP3   OH270725   3.229   3.025  11.925  0.4669 -0.2909 -0.4304
16437TIP3    H170726   3.137   3.051  11.919  0.7448  0.8827  0.0490
16437TIP3    H270727   3.267   3.053  11.842  0.4699 -0.4686 -0.4899
16438TIP3   OH270728   3.046   5.990  16.477 -0.6819  0.2498  0.2980
16438TIP3    H170729   2.971   5.949  16.434 -0.4027  1.4861 -1.4692
16438TIP3    H270730   3.102   6.019  16.406  1.3382 -0.3058  1.5781
16439TIP3   OH270731   5.557   2.200   4.547  0.1538  0.3579 -0.1183
16439TIP3    H170732   5.558   2.159   4.634 -2.2390 -0.7077 -0.5203
16439TIP3    H270733   5.552   2.126   4.486 -0.6011  1.1519 -1.0376
16440TIP3   OH270734   3.947   3.691   5.230 -0.8546  0.1981  0.5261
16440TIP3    H170735   4.025   3.733   5.267  0.6665 -3.5380  2.0099
16440TIP3    H270736   3.970   3.671   5.140 -1.0611  1.1173  0.2488
16441TIP3   OH270737   2.666   4.405   2.611 -0.1003 -0.1228  0.1563
16441TIP3    H170738   2.661   4.392   2.516  1.8264 -1.6455  0.2055
16441TIP3    H270739   2.580   4.377   2.643 -0.9458  0.8254 -1.1335
16442TIP3   OH270740   0.106   6.635  12.409 -0.2575  0.6590 -0.1614
16442TIP3    H170741   0.166   6.562  12.427 -0.3729  0.8739  1.1894
16442TIP3    H270742   0.128   6.662  12.320  2.0931  1.1352  0.4838
16443TIP3   OH270743   6.283   5.789  16.695 -0.6623 -0.3250  0.4074
16443TIP3    H170744   6.315   5.878  16.709 -0.0228  0.1219 -3.0393
16443TIP3    H270745   6.188   5.798  16.693 -0.8167 -0.3762  3.2390
16444TIP3   OH270746   0.734   6.433  13.710 -0.1946 -0.1697 -0.6313
16444TIP3    H170747   0.750   6.485  13.789 -0.9319  1.1294 -1.3109
16444TIP3    H270748   0.821   6.403  13.683 -0.0113 -1.4831  1.1963
16445TIP3   OH270749   4.019   5.281  16.820  0.3048 -0.0717 -0.0387
16445TIP3    H170750   4.020   5.194  16.860  0.5061  0.1492  0.4480
16445TIP3    H270751   3.933   5.288  16.779 -0.3661  0.1281  1.3382
16446TIP3   OH270752   5.179   3.306   0.526 -0.1270  0.2821 -0.0633
16446TIP3    H170753   5.143   3.259   0.451 -1.0234  0.4439  0.2547
16446TIP3    H270754   5.244   3.246   0.563 -1.1300 -0.6554  0.2363
16447TIP3   OH270755   0.100   3.892   6.073 -0.0339 -0.2570 -0.0977
16447TIP3    H170756   0.006   3.908   6.077 -0.3508 -1.6682 -1.0435
16447TIP3    H270757   0.127   3.883   6.164 -0.6228  1.0788  0.2249
16448TIP3   OH270758   0.424   5.539  13.263 -0.0249 -0.0764  0.3571
16448TIP3    H170759   0.440   5.445  13.254  0.2187 -0.0091  0.1035
16448TIP3    H270760   0.371   5.562  13.187 -0.8895 -0.1871  0.8999
16449TIP3   OH270761   0.282   2.592   2.159 -0.0950  0.2496  0.1743
16449TIP3    H170762   0.342   2.529   2.118  0.4028 -0.5156  1.9816
16449TIP3    H270763   0.199   2.545   2.167  0.4947 -0.5475  2.2629
16450TIP3   OH270764   3.529   2.384  15.111  0.6501  0.1148 -0.1717
16450TIP3    H170765   3.527   2.408  15.203  0.2787 -0.0112 -0.1462
16450TIP3    H270766   3.558   2.293  15.109 -0.6374 -0.3182 -0.0839
16451TIP3   OH270767   1.476   4.038   5.994 -0.0378 -0.4570 -0.5380
16451TIP3    H170768   1.415   4.073   6.059  0.5004  1.3342 -0.9559
16451TIP3    H270769   1.501   4.113   5.941  0.4318 -1.6631 -2.1142
16452TIP3   OH270770   3.544   5.440   3.295  0.4537  0.3177  0.4666
16452TIP3    H170771   3.530   5.351   3.262 -2.9283  1.0459 -0.3781
16452TIP3    H270772   3.559   5.429   3.389 -0.2624 -1.1324  0.4280
16453TIP3   OH270773   6.281   4.737   4.387 -0.6240  0.5396  0.1647
16453TIP3    H170774   6.323   4.727   4.472  1.3979 -0.2133 -0.8537
16453TIP3    H270775   6.272   4.648   4.354 -0.0238  0.8881 -0.9989
16454TIP3   OH270776   4.637   3.089  11.365  0.9456  0.4245  0.0825
16454TIP3    H170777   4.656   2.999  11.394  1.2109  0.6150  0.5083
16454TIP3    H270778   4.571   3.078  11.297 -0.3227  0.0153  1.3148
16455TIP3   OH270779   6.611   0.268   5.617  0.2894  0.3225  0.3145
16455TIP3    H170780   6.703   0.280   5.595  0.3628  0.3703  0.6356
16455TIP3    H270781   6.565   0.267   5.533  0.6289 -0.0912  0.1281
16456TIP3   OH270782   3.741   1.090  11.371  0.0963  0.2716 -0.0865
16456TIP3    H170783   3.665   1.145  11.391 -0.7403 -0.8835 -0.0063
16456TIP3    H270784   3.704   1.005  11.348  1.4044 -0.6423  1.0247
16457TIP3   OH270785   3.930   4.078   4.984  0.3240 -0.2938 -0.0036
16457TIP3    H170786   3.883   4.152   5.023  1.6322  0.4290  0.2611
16457TIP3    H270787   3.972   4.116   4.906 -0.3147 -1.1547 -0.7820
16458TIP3   OH270788   5.109   0.673   1.095  0.3632  0.5979 -0.3396
16458TIP3    H170789   5.127   0.762   1.126  1.7845  0.3644 -0.4673
16458TIP3    H270790   5.162   0.616   1.151 -1.7416 -0.3513  0.8364
16459TIP3   OH270791   5.292   4.302   6.469 -0.9277  0.4126 -0.1376
16459TIP3    H170792   5.235   4.376   6.446 -0.7343  0.6238  0.0560
16459TIP3    H270793   5.377   4.324   6.430 -1.2059 -0.3242 -1.1906
16460TIP3   OH270794   1.482   2.378   0.880  0.1468 -0.5044  1.1630
16460TIP3    H170795   1.539   2.454   0.885  0.8478 -0.9035 -0.2037
16460TIP3    H270796   1.465   2.355   0.971  0.7490  0.6632  1.5972
16461TIP3   OH270797   4.377   6.021   3.792  0.1202 -0.0289  0.3859
16461TIP3    H170798   4.403   6.110   3.771 -0.0593  0.1247  0.8138
16461TIP3    H270799   4.340   6.026   3.880 -2.4120 -0.0223 -0.5948
16462TIP3   OH270800   6.402   2.456   0.702 -0.2815 -0.0261 -0.0460
16462TIP3    H170801   6.404   2.407   0.784  0.8940  0.0492 -0.0135
16462TIP3    H270802   6.489   2.442   0.663 -1.0223 -0.5508 -1.5698
16463TIP3   OH270803   5.444   0.573  15.652 -0.1303  0.5734 -0.3294
16463TIP3    H170804   5.415   0.655  15.611 -1.6033 -0.7405 -2.0474
16463TIP3    H270805   5.371   0.513  15.640  1.3207 -1.3415 -0.0677
16464TIP3   OH270806   5.300   4.494  11.755  0.0292 -0.1184 -0.2733
16464TIP3    H170807   5.242   4.495  11.679 -1.7277  0.1962  1.0067
16464TIP3    H270808   5.326   4.585  11.767  0.1404 -0.1368 -0.3700
16465TIP3   OH270809   5.019   4.026   5.540  0.4486 -0.2277 -0.2086
16465TIP3    H170810   4.946   4.041   5.600 -0.1925  0.1433 -1.0589
16465TIP3    H270811   4.980   4.030   5.453  1.5710  0.5133 -0.7045
16466TIP3   OH270812   0.508   1.646  10.769 -0.5209  0.3694 -0.2401
16466TIP3    H170813   0.437   1.677  10.712  1.0498  0.8679 -2.0127
16466TIP3    H270814   0.547   1.726  10.805  1.2460  0.3630 -1.9757
16467TIP3   OH270815   6.444   5.631   4.801 -0.3450 -0.4699  0.6566
16467TIP3    H170816   6.385   5.675   4.738 -0.7307 -0.5241  0.9748
16467TIP3    H270817   6.461   5.697   4.868 -1.2220 -0.9056  1.3319
16468TIP3   OH270818   5.995   6.073  13.405 -0.5490  0.4753  0.3716
16468TIP3    H170819   5.962   6.021  13.479 -0.3544 -0.5342 -0.2263
16468TIP3    H270820   5.921   6.127  13.379 -1.2307 -0.5533  0.1007
16469TIP3   OH270821   3.459   1.551  16.289  0.1678  0.1874  0.7513
16469TIP3    H170822   3.429   1.464  16.313  1.6123 -1.2235 -2.0539
16469TIP3    H270823   3.415   1.570  16.206  1.0953  1.4287  0.5081
16470TIP3   OH270824   2.234   6.124   2.405  0.0659 -0.3423  0.6092
16470TIP3    H170825   2.248   6.209   2.446 -0.0351 -1.4506  3.1871
16470TIP3    H270826   2.150   6.094   2.441  0.7621 -2.0943  0.8780
16471TIP3   OH270827   0.034   6.544   4.451 -0.0651 -0.2674 -0.1077
16471TIP3    H170828   0.123   6.520   4.475  0.4627  1.5016 -0.1675
16471TIP3    H270829  -0.017   6.535   4.532  0.0341 -1.7424 -0.1834
16472TIP3   OH270830   5.384   0.872  14.354  0.1151 -0.2412  0.2081
16472TIP3    H170831   5.329   0.846  14.428 -1.5228  0.9024 -0.5476
16472TIP3    H270832   5.346   0.954  14.323  2.1892  0.5486 -0.4708
16473TIP3   OH270833   6.681   2.613  13.245 -0.2021 -0.1202  0.3856
16473TIP3    H170834   6.680   2.587  13.153  0.6549  3.3333 -0.7496
16473TIP3    H270835   6.589   2.620  13.270 -0.4586 -0.1524 -0.5284
16474TIP3   OH270836   3.543   5.045  14.553 -0.0224  0.1401  0.3374
16474TIP3    H170837   3.555   4.957  14.591  0.0956 -1.3596 -2.8409
16474TIP3    H270838   3.626   5.089  14.569  1.0861 -1.4747 -0.6177
16475TIP3   OH270839   6.438   1.810  14.005 -0.0163  0.1421 -0.0194
16475TIP3    H170840   6.411   1.731  13.957  2.2221 -0.8574  0.2388
16475TIP3    H270841   6.513   1.843  13.956  1.1756  0.1460  1.7148
16476TIP3   OH270842   5.705   1.654  16.716 -1.0497  0.2752 -0.6254
16476TIP3    H170843   5.768   1.667  16.787  0.7881  3.6473 -2.6218
16476TIP3    H270844   5.708   1.560  16.699  2.1997  0.0340  0.5126
16477TIP3   OH270845   6.577   5.715  16.772 -0.2418  0.1654  0.8001
16477TIP3    H170846   6.496   5.746  16.733  0.3400  1.0162  0.2359
16477TIP3    H270847   6.615   5.656  16.706 -0.9941 -1.2419  1.5770
16478TIP3   OH270848   2.069   6.537   2.910 -0.1293 -0.3462  0.5687
16478TIP3    H170849   2.162   6.558   2.917 -0.1323 -0.1025 -0.0848
16478TIP3    H270850   2.063   6.447   2.941  0.8767 -1.6180 -2.5440
16479TIP3   OH270851   5.450   2.630  15.341 -0.4177 -0.3920 -0.5263
16479TIP3    H170852   5.521   2.691  15.323 -0.5097 -0.2145 -0.2952
16479TIP3    H270853   5.388   2.680  15.394 -1.0327 -0.3446 -1.2735
16480TIP3   OH270854   5.875   5.473   1.149 -0.0054  0.2692  0.6707
16480TIP3    H170855   5.936   5.514   1.210 -1.7316  2.4459  1.0401
16480TIP3    H270856   5.823   5.545   1.115 -1.2462 -1.3012 -0.9507
16481TIP3   OH270857   5.205   5.116   4.293  0.8633 -0.3859 -0.1658
16481TIP3    H170858   5.170   5.030   4.315 -2.9931  0.7987 -0.8223
16481TIP3    H270859   5.227   5.110   4.200 -5.0454  0.5743 -2.0316
16482TIP3   OH270860   1.028   3.725  12.782 -0.0658  0.1350  0.1960
16482TIP3    H170861   1.055   3.697  12.694 -1.2657  0.6487 -0.3620
16482TIP3    H270862   1.077   3.805  12.799 -1.1885  1.0851 -0.8230
16483TIP3   OH270863   0.158   5.392  15.183 -0.4876 -0.2332 -0.2106
16483TIP3    H170864   0.185   5.483  15.172 -0.3744 -0.2398  0.0125
16483TIP3    H270865   0.236   5.347  15.215 -0.8262 -0.1930  0.7155
16484TIP3   OH270866   0.797   0.769  12.585  0.5440 -0.1513  0.1374
16484TIP3    H170867   0.886   0.799  12.571  0.4510 -0.7153 -2.0237
16484TIP3    H270868   0.800   0.675  12.568 -0.3650 -0.2563  0.5073
16485TIP3   OH270869   0.646   3.964   2.227 -0.7486 -0.5277 -0.7280
16485TIP3    H170870   0.655   3.994   2.137 -0.1959  0.3231 -0.4033
16485TIP3    H270871   0.635   3.869   2.220 -0.5060 -0.4974 -1.6735
16486TIP3   OH270872   3.045   4.828   2.560 -0.4344  0.4659 -0.2334
16486TIP3    H170873   3.091   4.830   2.476  2.0471 -1.5457  0.9168
16486TIP3    H270874   3.004   4.741   2.562  0.2531  0.1451  0.9353
16487TIP3   OH270875   6.539   5.445  11.620  0.0511  0.1483  0.1509
16487TIP3    H170876   6.459   5.435  11.672 -0.8262  0.6817 -1.0527
16487TIP3    H270877   6.565   5.355  11.599 -1.0493 -0.0031 -0.6361
16488TIP3   OH270878   0.115   5.726   3.304  0.2328  0.3632 -0.4489
16488TIP3    H170879   0.095   5.705   3.213  0.0401 -1.9902  0.0901
16488TIP3    H270880   0.198   5.774   3.300  0.3481  0.0879 -1.8357
16489TIP3   OH270881   6.703   4.170   6.220 -0.2390 -0.1370 -0.3250
16489TIP3    H170882   6.652   4.131   6.291 -0.2195  1.7788  0.8006
16489TIP3    H270883   6.792   4.139   6.235 -0.4999 -0.9616 -0.4315
16490TIP3   OH270884   1.338   3.988  11.493 -0.6043 -0.2742  0.1836
16490TIP3    H170885   1.283   4.048  11.544 -0.0010  0.5171 -0.0799
16490TIP3    H270886   1.296   3.903  11.503 -1.6538  0.2484  0.3074
16491TIP3   OH270887   0.101   4.891   2.306  0.6332  0.6401 -0.0642
16491TIP3    H170888   0.133   4.803   2.328 -0.8794  0.1715  0.4119
16491TIP3    H270889   0.162   4.950   2.350  0.4833 -0.2195  1.3562
16492TIP3   OH270890   0.415   1.566   0.883 -0.1774 -0.2253  0.2548
16492TIP3    H170891   0.393   1.620   0.959 -1.5345 -1.3517  0.7011
16492TIP3    H270892   0.506   1.540   0.898  0.0402  0.7519  0.7405
16493TIP3   OH270893   5.258   5.607  17.272 -0.0732 -0.1656  0.2464
16493TIP3    H170894   5.266   5.600  17.177 -0.9584  0.7236  0.0935
16493TIP3    H270895   5.345   5.634  17.301  0.2063 -0.4594 -0.3049
16494TIP3   OH270896   3.162   5.155  17.342  0.4897  0.2671 -0.2260
16494TIP3    H170897   3.118   5.117  17.419  1.0212 -0.2568 -0.1781
16494TIP3    H270898   3.097   5.216  17.306 -0.7092 -1.2950 -0.8090
16495TIP3   OH270899   5.520   1.712  10.990 -0.1673 -0.1919 -0.7396
16495TIP3    H170900   5.428   1.691  11.002 -0.4527  0.7493 -1.1530
16495TIP3    H270901   5.563   1.628  10.975 -0.7654 -0.7577  0.6062
16496TIP3   OH270902   5.892   0.071  10.997 -0.0328 -0.0223 -0.0370
16496TIP3    H170903   5.821   0.046  11.056 -0.1833 -1.8843 -0.9337
16496TIP3    H270904   5.848   0.115  10.924 -0.2212 -0.7725 -0.3781
16497TIP3   OH270905   0.121   1.695  14.901 -0.4945  0.3880  0.0871
16497TIP3    H170906   0.141   1.670  14.991 -0.1259 -2.0689 -0.6243
16497TIP3    H270907   0.206   1.700  14.857 -0.4718  3.4961  0.2230
16498TIP3   OH270908   4.924   2.281  17.071 -0.0567  0.5032 -0.3025
16498TIP3    H170909   4.952   2.193  17.045  1.0895  1.2442 -1.7183
16498TIP3    H270910   4.970   2.340  17.010 -1.9413  2.0090 -0.3459
16499TIP3   OH270911   6.133   0.489  11.079  0.4668 -0.0719  0.7220
16499TIP3    H170912   6.072   0.558  11.106 -0.8707 -0.5284 -0.9315
16499TIP3    H270913   6.077   0.421  11.042  1.9166 -1.0251  0.2143
16500TIP3   OH270914   6.135   3.587  14.014  0.5416 -0.3305 -0.2653
16500TIP3    H170915   6.052   3.635  14.005 -0.0926 -1.3059  0.2248
16500TIP3    H270916   6.160   3.599  14.106  1.8067  1.2953 -0.7737
16501TIP3   OH270917   4.041   4.557   2.855 -0.8038  0.1903  0.2787
16501TIP3    H170918   4.003   4.638   2.820  1.0264  0.9046 -0.1512
16501TIP3    H270919   4.051   4.500   2.779  1.8966  1.2302 -0.2603
16502TIP3   OH270920   5.656   3.342   1.761 -0.5711 -0.2784 -0.0538
16502TIP3    H170921   5.723   3.398   1.721 -0.7351 -0.6939 -0.9116
16502TIP3    H270922   5.640   3.383   1.847 -0.6034  0.9278 -0.6097
16503TIP3   OH270923   1.195   1.583  11.968  0.1477 -0.0739  0.3103
16503TIP3    H170924   1.210   1.662  11.915  0.3352 -0.3666 -0.0797
16503TIP3    H270925   1.149   1.615  12.046  0.3341  0.4405  0.2178
16504TIP3   OH270926   2.732   1.009  13.683 -0.2967 -0.3410  0.2201
16504TIP3    H170927   2.645   0.976  13.702  0.1592 -2.2019 -0.7318
16504TIP3    H270928   2.789   0.932  13.687  0.8509  0.3005 -2.0239
16505TIP3   OH270929   3.227   0.417  12.354  0.5635  0.1333  0.6815
16505TIP3    H170930   3.244   0.362  12.278  0.6899  1.0806 -0.0030
16505TIP3    H270931   3.193   0.357  12.420  1.8611 -0.9611  0.3975
16506TIP3   OH270932   0.830   2.329   4.474 -0.5292  0.8694  0.3821
16506TIP3    H170933   0.862   2.348   4.386 -1.9471  1.1988 -0.0887
16506TIP3    H270934   0.737   2.353   4.472 -0.6703  0.5721  1.8729
16507TIP3   OH270935   1.202   1.450   1.173 -0.3601  0.4271 -0.4207
16507TIP3    H170936   1.260   1.526   1.176 -1.3602  1.2056  1.1938
16507TIP3    H270937   1.243   1.390   1.111  2.4073  0.7243  0.9668
16508TIP3   OH270938   4.810   3.431  16.917  0.1642  0.4358 -0.3224
16508TIP3    H170939   4.784   3.343  16.889 -1.6736  1.2094 -1.2342
16508TIP3    H270940   4.876   3.457  16.853 -0.0060  0.0773 -0.6527
16509TIP3   OH270941   2.139   5.151  12.788 -0.3064 -0.0398  0.3800
16509TIP3    H170942   2.175   5.077  12.836  1.8812  0.9624  0.3897
16509TIP3    H270943   2.115   5.114  12.703 -0.2699 -0.9665  0.7573
16510TIP3   OH270944   6.534   3.088   2.068  0.0514  0.7307  0.2604
16510TIP3    H170945   6.502   3.109   2.156 -0.8414  0.6840 -0.0340
16510TIP3    H270946   6.568   2.999   2.076 -0.6231  0.4741  0.4307
16511TIP3   OH270947   3.880   1.902   2.217  0.2887 -0.3599 -0.0611
16511TIP3    H170948   3.951   1.845   2.187  0.9453 -0.0728  0.8776
16511TIP3    H270949   3.906   1.927   2.306 -0.2834  0.9062 -0.2301
16512TIP3   OH270950   5.744   3.371   3.199 -0.8619 -0.1782  0.3613
16512TIP3    H170951   5.746   3.276   3.195 -3.3560 -0.3092  0.2789
16512TIP3    H270952   5.699   3.397   3.119  0.1945  1.1260  0.1585
16513TIP3   OH270953   1.865   0.522   4.344  0.2756 -0.0423 -0.1962
16513TIP3    H170954   1.852   0.464   4.269  1.2985 -0.7780  0.1727
16513TIP3    H270955   1.958   0.545   4.340  0.4465 -0.4472  1.0889
16514TIP3   OH270956   2.048   0.322   5.215 -0.4296  0.7255 -0.2250
16514TIP3    H170957   1.993   0.374   5.275  0.5209  0.2011  1.1547
16514TIP3    H270958   2.115   0.384   5.185  1.8075  0.0414  2.8272
16515TIP3   OH270959   0.478   1.102   2.165  0.5564  0.2257 -0.0230
16515TIP3    H170960   0.389   1.072   2.147 -0.5499  2.7680  0.8769
16515TIP3    H270961   0.533   1.034   2.126 -1.7301 -1.3219 -0.8147
16516TIP3   OH270962   0.841   4.065  14.709 -0.0867  0.3556  0.1970
16516TIP3    H170963   0.751   4.089  14.734 -0.2874 -0.3222  0.1525
16516TIP3    H270964   0.830   4.006  14.635  0.1595 -2.9446  2.5946
16517TIP3   OH270965   4.241   5.328   4.401 -0.1697 -0.0605  0.8618
16517TIP3    H170966   4.275   5.409   4.440 -0.6673  0.3965  0.3529
16517TIP3    H270967   4.294   5.259   4.441  0.8542  0.5768  0.6522
16518TIP3   OH270968   0.533   5.821  16.806  0.4335 -0.5031  0.2228
16518TIP3    H170969   0.570   5.834  16.719  1.8635 -0.7133  0.7698
16518TIP3    H270970   0.605   5.843  16.866 -0.4871 -0.4685  1.3520
16519TIP3   OH270971   6.658   3.020   4.543 -0.0726  0.5306 -0.4205
16519TIP3    H170972   6.581   2.966   4.563  0.4546  0.1829  0.7205
16519TIP3    H270973   6.622   3.107   4.528 -0.7477  0.2553 -0.4540
16520TIP3   OH270974   1.537   4.974   5.628  0.3669  0.4660 -0.3450
16520TIP3    H170975   1.584   5.049   5.664  0.2244  0.0084  0.8483
16520TIP3    H270976   1.588   4.898   5.656 -0.2609  0.0447 -0.3245
16521TIP3   OH270977   1.032   0.746  11.562 -0.3506 -0.5905 -0.1068
16521TIP3    H170978   1.104   0.772  11.620  0.6924 -0.2191 -1.5301
16521TIP3    H270979   1.032   0.810  11.492 -1.8916 -0.7744 -0.3187
16522TIP3   OH270980   0.077   1.392   5.934  0.7433 -0.3295  0.4290
16522TIP3    H170981   0.036   1.468   5.891  2.9471  0.9744  0.4670
16522TIP3    H270982   0.087   1.328   5.864 -0.0436 -0.1245  0.1137
16523TIP3   OH270983   4.879   2.698  11.560 -0.0863 -0.3275  0.0059
16523TIP3    H170984   4.909   2.773  11.508 -1.4946 -0.3838 -0.9365
16523TIP3    H270985   4.911   2.716  11.648 -1.1701  1.8598  0.0111
16524TIP3   OH270986   3.577   2.838  16.772  0.3018  0.4071 -0.3080
16524TIP3    H170987   3.568   2.795  16.857 -2.9506  0.6693 -0.3732
16524TIP3    H270988   3.549   2.772  16.709 -0.3320  1.1788 -0.8534
16525TIP3   OH270989   3.007   5.601  14.365 -0.0066  0.4318  0.1059
16525TIP3    H170990   3.066   5.537  14.405  1.8374  1.2505 -1.1407
16525TIP3    H270991   3.059   5.682  14.360 -1.3670  1.3061 -0.7013
16526TIP3   OH270992   5.985   0.821  13.509 -0.0031  0.4400  0.2821
16526TIP3    H170993   6.038   0.861  13.441 -2.5088 -0.1348 -2.2098
16526TIP3    H270994   5.895   0.827  13.476 -1.0514 -2.4290  2.2175
16527TIP3   OH270995   3.485   0.076   0.229  0.8489  0.1661  0.0979
16527TIP3    H170996   3.454   0.055   0.317  1.3658  0.2430  0.3015
16527TIP3    H270997   3.484   0.171   0.225  0.5849  0.1588 -0.0724
16528TIP3   OH270998   2.600   1.134  16.858 -0.1881  0.0493 -0.0099
16528TIP3    H170999   2.632   1.224  16.867  0.0911 -0.1384  0.9342
16528TIP3    H271000   2.655   1.096  16.789  0.6138  0.1922  0.5434
16529TIP3   OH271001   1.380   2.969   2.832 -0.2689 -0.8180 -0.4176
16529TIP3    H171002   1.387   2.991   2.739 -0.8855 -0.6437 -0.4249
16529TIP3    H271003   1.307   3.022   2.864 -1.2016 -2.1622 -0.2303
16530TIP3   OH271004   6.763   4.439  16.324  0.0159 -0.7273 -0.1595
16530TIP3    H171005   6.740   4.347  16.306  0.1872 -1.1010  1.3321
16530TIP3    H271006   6.716   4.489  16.257 -2.3430 -1.7079  0.6362
16531TIP3   OH271007   3.149   4.502  14.191 -0.1428 -0.4837 -0.4510
16531TIP3    H171008   3.159   4.595  14.170 -2.3235 -0.3194 -1.0893
16531TIP3    H271009   3.103   4.465  14.115 -1.1545 -1.6134  0.6589
16532TIP3   OH271010   3.787   4.019  17.274 -0.0704  0.2282 -0.2837
16532TIP3    H171011   3.808   4.111  17.286 -1.9881  0.5371  1.1818
16532TIP3    H271012   3.829   3.975  17.348 -0.7100  0.2037  0.0690
16533TIP3   OH271013   0.357   1.977   1.614  0.9458  0.3024  0.4797
16533TIP3    H171014   0.349   1.886   1.588 -1.8203  0.2571  1.0918
16533TIP3    H271015   0.280   2.019   1.575  0.7543  1.7950  2.3474
16534TIP3   OH271016   2.495   6.546   3.801 -0.2058  0.1936  0.2464
16534TIP3    H171017   2.473   6.507   3.716 -0.3436  0.6192  0.0818
16534TIP3    H271018   2.509   6.472   3.859  1.7670 -0.1830 -0.6142
16535TIP3   OH271019   5.034   6.476  16.943 -0.5371 -0.8895 -0.4149
16535TIP3    H171020   5.040   6.530  16.864 -0.4499 -1.7916 -1.0391
16535TIP3    H271021   4.951   6.430  16.934 -0.0710 -1.7256 -0.4476
16536TIP3   OH271022   3.178   5.127   4.910  0.3899 -0.6491  0.3544
16536TIP3    H171023   3.087   5.125   4.941  0.3842  0.9652  0.5048
16536TIP3    H271024   3.230   5.106   4.987  0.1929 -0.5601  0.5119
16537TIP3   OH271025   1.254   2.568   1.445 -0.0348  0.2282 -0.0016
16537TIP3    H171026   1.184   2.632   1.429  0.4923  0.4659 -1.5555
16537TIP3    H271027   1.221   2.515   1.517 -0.8613  1.7051  0.7760
16538TIP3   OH271028   1.210   3.428   3.663 -0.1877  0.4037 -0.3020
16538TIP3    H171029   1.184   3.420   3.571 -0.2879  0.8992 -0.3197
16538TIP3    H271030   1.154   3.366   3.709  1.6211 -1.8175 -0.8742
16539TIP3   OH271031   3.488   1.700  12.121 -0.0407  0.1144  0.1816
16539TIP3    H171032   3.508   1.703  12.214 -0.2805 -0.9676  0.2803
16539TIP3    H271033   3.539   1.772  12.083  2.0346 -0.9765  0.7686
16540TIP3   OH271034   5.367   1.253  13.552  0.3742  0.3241  0.0024
16540TIP3    H171035   5.446   1.207  13.581  0.6730  0.6561 -0.2750
16540TIP3    H271036   5.303   1.237  13.621  0.5359 -0.3362  0.0121
16541TIP3   OH271037   0.320   2.906  12.926  0.0890 -0.0853  0.5789
16541TIP3    H171038   0.345   2.842  12.860  2.0706  1.0019  0.2016
16541TIP3    H271039   0.235   2.876  12.958  0.4822 -2.3109 -0.2994
16542TIP3   OH271040   0.828   3.378   5.111  0.1251 -0.1118 -0.1021
16542TIP3    H171041   0.864   3.460   5.079 -1.5638  0.9039  0.4538
16542TIP3    H271042   0.880   3.357   5.188  0.3157  0.6486 -0.0192
16543TIP3   OH271043   5.456   5.296  17.271  0.2710  0.4588 -0.1545
16543TIP3    H171044   5.534   5.351  17.271  0.0665  0.7595 -0.8819
16543TIP3    H271045   5.422   5.302  17.181  0.2358 -0.8455 -0.2442
16544TIP3   OH271046   6.178   5.285   3.175  0.0273  0.0840 -0.1418
16544TIP3    H171047   6.251   5.347   3.174 -3.0682  4.1756  0.4611
16544TIP3    H271048   6.182   5.242   3.089  3.5603 -0.6112  0.2425
16545TIP3   OH271049   2.834   2.757   4.056  0.2266  0.0960 -0.1316
16545TIP3    H171050   2.824   2.826   3.991  1.3242  0.6318  0.2390
16545TIP3    H271051   2.907   2.704   4.024 -1.3641 -1.6842 -1.0522
16546TIP3   OH271052   4.768   6.379   3.427 -0.0875 -0.0503 -0.3726
16546TIP3    H171053   4.741   6.424   3.507  0.9674  2.5686 -1.3650
16546TIP3    H271054   4.708   6.412   3.360  2.0667  1.7230 -1.5544
16547TIP3   OH271055   2.738   6.271   1.288 -0.0099  0.2586 -0.1435
16547TIP3    H171056   2.681   6.194   1.295 -0.5653  0.6514 -0.2788
16547TIP3    H271057   2.719   6.322   1.366  0.0264  0.4749 -0.2746
16548TIP3   OH271058   0.471   1.337  17.146  0.5275  0.8293  0.3030
16548TIP3    H171059   0.540   1.393  17.183  0.4306  0.7569  0.5957
16548TIP3    H271060   0.440   1.285  17.220 -0.3954  1.4284  0.3533
16549TIP3   OH271061   3.690   5.014  13.954  0.0629 -0.7027  0.0872
16549TIP3    H171062   3.695   5.106  13.979  2.0586  0.3101 -3.3045
16549TIP3    H271063   3.718   4.966  14.032 -0.7036  1.5364  1.8461
16550TIP3   OH271064   0.917   3.593   4.909 -0.6175 -0.3509 -0.0509
16550TIP3    H171065   0.952   3.654   4.974 -0.2416  1.1897 -1.6084
16550TIP3    H271066   0.993   3.545   4.877 -0.5448  0.0559 -0.4985
16551TIP3   OH271067   3.400   2.687   2.217  0.5432  0.0774 -0.2480
16551TIP3    H171068   3.495   2.699   2.208  0.6574  0.9128  1.6447
16551TIP3    H271069   3.362   2.771   2.192  0.5022  0.5985  1.4916
16552TIP3   OH271070   2.943   2.313  16.117 -0.1018 -0.1637 -0.3662
16552TIP3    H171071   2.860   2.276  16.147 -0.1428  0.6000  0.4939
16552TIP3    H271072   2.940   2.405  16.142  0.3073  0.2772 -1.8431
16553TIP3   OH271073   0.149   1.290  12.002 -0.1995  0.2270 -0.5612
16553TIP3    H171074   0.176   1.271  11.913 -1.5024  2.4641 -1.5224
16553TIP3    H271075   0.054   1.302  11.996 -0.3667  0.0469  1.1954
16554TIP3   OH271076   4.418   4.435   6.079  0.3179  0.0270  0.3160
16554TIP3    H171077   4.485   4.475   6.134  0.5057 -1.5560  1.3054
16554TIP3    H271078   4.353   4.402   6.140  0.8634 -2.3707 -0.2847
16555TIP3   OH271079   0.066   5.703  14.895  0.0143 -0.3095 -0.2064
16555TIP3    H171080   0.016   5.784  14.903  0.7388  0.5191 -3.0124
16555TIP3    H271081   0.157   5.729  14.913 -0.0983 -1.2713  2.2111
16556TIP3   OH271082   6.525   3.465  13.678 -0.4479 -0.6354 -0.2083
16556TIP3    H171083   6.552   3.403  13.746 -0.4689 -0.0924  0.3036
16556TIP3    H271084   6.477   3.533  13.725  0.3367  0.2370 -0.6269
16557TIP3   OH271085   1.302   6.515   4.561  0.3177 -0.2700 -0.4450
16557TIP3    H171086   1.237   6.475   4.502 -2.9820  2.9738  0.5961
16557TIP3    H271087   1.294   6.464   4.642 -2.2646  0.9560  0.1832
16558TIP3   OH271088   6.295   4.791  11.849 -0.2070 -0.4333 -0.2952
16558TIP3    H171089   6.379   4.802  11.805 -0.0617  0.3511  0.1685
16558TIP3    H271090   6.267   4.880  11.871  0.1293 -0.8266  1.9464
16559TIP3   OH271091   3.705   2.407   3.990  0.0189  0.4077  0.6475
16559TIP3    H171092   3.613   2.430   3.977 -0.3801 -0.2603  2.1872
16559TIP3    H271093   3.750   2.492   3.995 -0.1294  0.7657 -2.2296
16560TIP3   OH271094   5.606   6.578   5.778  0.4336 -0.1037 -0.2226
16560TIP3    H171095   5.626   6.583   5.872  0.0501 -1.7191 -0.0296
16560TIP3    H271096   5.691   6.569   5.736  0.5793  0.2210 -0.0084
16561TIP3   OH271097   3.159   3.326  17.260  0.1528 -0.0945 -0.0214
16561TIP3    H171098   3.074   3.303  17.223 -1.4300  1.0476  2.6052
16561TIP3    H271099   3.204   3.372  17.189 -2.5293  1.6767 -0.7620
16562TIP3   OH271100   0.607   6.077  11.775  0.0483 -0.5718  0.0711
16562TIP3    H171101   0.605   6.049  11.866 -0.6163  2.1934  0.9919
16562TIP3    H271102   0.556   6.011  11.728 -0.0659 -1.7452  1.7806
16563TIP3   OH271103   4.556   5.089  12.032 -0.2849  0.7379  0.9202
16563TIP3    H171104   4.566   5.149  12.105 -0.8720  1.4642  0.4232
16563TIP3    H271105   4.540   5.004  12.073  1.9339  0.5997  1.6577
16564TIP3   OH271106   4.382   1.503  13.529 -0.2312  0.5027 -0.0440
16564TIP3    H171107   4.336   1.450  13.594  1.1545  1.2361  1.5955
16564TIP3    H271108   4.474   1.498  13.554  0.1396  2.1862 -0.9430
16565TIP3   OH271109   3.987   3.595  15.096 -0.3983 -0.1059  0.6329
16565TIP3    H171110   4.006   3.506  15.124 -0.8913 -1.5154 -2.9710
16565TIP3    H271111   4.066   3.645  15.116  1.0710 -2.1048  0.0670
16566TIP3   OH271112   2.364   5.168   0.813 -0.3787 -0.1623  0.0794
16566TIP3    H171113   2.336   5.230   0.746 -0.0898 -2.0175 -1.8445
16566TIP3    H271114   2.431   5.216   0.863  0.8088  0.6777 -2.1929
16567TIP3   OH271115   0.785   6.587   3.865  0.5065 -0.3286 -0.1033
16567TIP3    H171116   0.851   6.639   3.819 -1.3642  0.6190 -1.8854
16567TIP3    H271117   0.752   6.525   3.799  0.2144 -1.3708  0.9829
16568TIP3   OH271118   2.669   1.909   5.673 -0.3567 -0.0925  0.6664
16568TIP3    H171119   2.734   1.892   5.741  0.9657  0.7752 -0.3418
16568TIP3    H271120   2.685   1.999   5.646 -0.8926 -0.3892 -0.7358
16569TIP3   OH271121   6.427   6.629  13.790 -0.2238  0.2332  0.1496
16569TIP3    H171122   6.413   6.664  13.878 -0.9612  2.7915 -0.8772
16569TIP3    H271123   6.349   6.577  13.772 -0.0561 -0.3351  0.9778
16570TIP3   OH271124   2.363   1.737  11.601 -0.1544 -0.3239 -0.2201
16570TIP3    H171125   2.373   1.799  11.529  0.3608 -1.6588 -1.3398
16570TIP3    H271126   2.450   1.732  11.641 -0.3414  0.1160  0.2433
16571TIP3   OH271127   1.442   4.352   2.815  0.3770  0.2276  0.4022
16571TIP3    H171128   1.444   4.446   2.794 -1.0459  0.2308  0.1985
16571TIP3    H271129   1.364   4.341   2.869 -1.6806 -1.4223 -2.6543
16572TIP3   OH271130   2.579   3.382  15.431 -0.3017  0.0782 -0.5104
16572TIP3    H171131   2.643   3.314  15.413 -0.6949 -0.7105  0.8819
16572TIP3    H271132   2.496   3.346  15.399 -0.5948 -0.3311  0.6700
16573TIP3   OH271133   5.666   2.350   4.913  0.0483  0.8449 -0.3989
16573TIP3    H171134   5.689   2.274   4.859  2.0001 -0.6857  2.2939
16573TIP3    H271135   5.571   2.352   4.913 -0.0667 -1.6588 -0.5640
16574TIP3   OH271136   6.091   1.934   5.078 -0.0216 -0.1342  0.8155
16574TIP3    H171137   6.142   1.860   5.047 -0.7874 -0.6757  0.8282
16574TIP3    H271138   6.144   1.971   5.149  1.0915  0.2871 -0.1979
16575TIP3   OH271139   3.764   1.483   3.285 -0.0210  0.1288 -0.0067
16575TIP3    H171140   3.766   1.398   3.241 -0.8587  0.8404 -1.4964
16575TIP3    H271141   3.838   1.531   3.248  0.7369 -0.0940  1.1786
16576TIP3   OH271142   1.884   4.160   3.825 -0.0362  0.0218 -0.0941
16576TIP3    H171143   1.958   4.218   3.841 -0.0930 -0.5240  2.6296
16576TIP3    H271144   1.822   4.212   3.774  1.3506  1.1366 -0.7020
16577TIP3   OH271145   1.315   6.626  14.935  0.0679  0.0537 -0.1090
16577TIP3    H171146   1.359   6.545  14.909 -1.1007 -1.0573  1.1926
16577TIP3    H271147   1.254   6.644  14.863 -0.5360 -0.9376  0.1366
16578TIP3   OH271148   0.383   6.640   1.843  0.0674  0.2282 -0.0566
16578TIP3    H171149   0.332   6.674   1.916  0.3478  1.0994 -0.2511
16578TIP3    H271150   0.325   6.650   1.767 -0.7023 -1.8233  0.2033
16579TIP3   OH271151   6.676   3.175  12.747 -0.5438 -0.4778  0.2856
16579TIP3    H171152   6.733   3.153  12.821 -0.9271 -1.5398  0.2859
16579TIP3    H271153   6.592   3.135  12.770 -0.4841 -1.4253 -1.0404
16580TIP3   OH271154   2.833   1.472  12.207  0.0118  0.0663  0.7753
16580TIP3    H171155   2.928   1.467  12.216 -0.1710 -1.2398  2.5888
16580TIP3    H271156   2.801   1.488  12.296 -1.3606  4.0991 -0.1997
16581TIP3   OH271157   4.664   5.923  10.979 -0.1022  0.1587  0.4851
16581TIP3    H171158   4.616   5.927  10.896  0.7910 -1.3094 -0.1394
16581TIP3    H271159   4.738   5.982  10.966  0.4700 -0.6619 -0.0833
16582TIP3   OH271160   2.939   2.832   4.559  0.7811 -0.4827  0.0732
16582TIP3    H171161   2.872   2.791   4.614  1.7204 -0.3313  1.3761
16582TIP3    H271162   2.993   2.759   4.529  1.2472 -0.4215  0.7329
16583TIP3   OH271163   2.088   1.518   4.090  0.4793  0.2458 -0.1591
16583TIP3    H171164   1.998   1.510   4.120  0.3672 -0.8451 -0.7501
16583TIP3    H271165   2.091   1.468   4.009  1.6801  0.0441 -0.0065
16584TIP3   OH271166   4.727   2.571   3.510 -0.2585 -0.8399 -0.2203
16584TIP3    H171167   4.809   2.524   3.524  1.2035  1.5521  0.0148
16584TIP3    H271168   4.672   2.511   3.459  0.6490 -3.4531  1.7095
16585TIP3   OH271169   4.227   5.834   2.985 -0.2699 -0.0316 -0.1813
16585TIP3    H171170   4.175   5.768   2.939  1.0412  0.2122 -2.1257
16585TIP3    H271171   4.220   5.912   2.930 -0.1544  0.8761  1.0411
16586TIP3   OH271172   4.886   6.103  11.951 -0.1953 -0.0643 -0.1029
16586TIP3    H171173   4.909   6.130  11.863 -0.8708 -0.9771 -0.5732
16586TIP3    H271174   4.807   6.153  11.972  1.4138  2.1944  1.0686
16587TIP3   OH271175   3.297   2.701  17.076  0.2789 -0.7964  0.6154
16587TIP3    H171176   3.349   2.627  17.044  1.1324 -1.0262  2.3941
16587TIP3    H271177   3.360   2.772  17.086 -0.4139 -0.0047 -0.4286
16588TIP3   OH271178   1.651   0.307  11.556  0.6198  0.5009 -0.0714
16588TIP3    H171179   1.726   0.310  11.497  0.4139 -0.2496 -0.3752
16588TIP3    H271180   1.600   0.232  11.526  0.1976  0.4833  0.6797
16589TIP3   OH271181   3.921   3.097  16.804 -0.3679 -0.0724 -0.1502
16589TIP3    H171182   3.948   3.065  16.890  2.9032  2.1012 -0.1971
16589TIP3    H271183   3.939   3.024  16.744  1.2683 -0.2546  0.5076
16590TIP3   OH271184   2.583   3.693  11.143 -0.2610  0.0259 -0.0962
16590TIP3    H171185   2.597   3.787  11.148  0.7502 -0.1667  0.8624
16590TIP3    H271186   2.630   3.665  11.065 -0.4953  0.2970 -0.3356
16591TIP3   OH271187   3.631   4.781  12.378 -0.7660  0.1611 -0.3178
16591TIP3    H171188   3.653   4.874  12.368 -0.2137 -0.0720 -1.4473
16591TIP3    H271189   3.715   4.736  12.382 -1.0128 -0.4396 -1.4880
16592TIP3   OH271190   1.389   6.519   6.297  0.2436 -0.0416 -0.4565
16592TIP3    H171191   1.414   6.573   6.373  2.5970  1.5869 -2.2222
16592TIP3    H271192   1.312   6.563   6.262 -1.1408 -1.0638  1.1622
16593TIP3   OH271193   5.952   1.767   4.483 -0.7894 -0.3792  0.7715
16593TIP3    H171194   6.041   1.798   4.471 -0.5685  0.2626  3.5046
16593TIP3    H271195   5.927   1.731   4.397  1.6136  0.5325 -0.3867
16594TIP3   OH271196   1.841   0.318   3.420  0.0806  0.0963 -0.3238
16594TIP3    H171197   1.774   0.261   3.383  0.5984 -0.4239 -0.4836
16594TIP3    H271198   1.859   0.382   3.352  1.7227 -1.4316 -1.4181
16595TIP3   OH271199   1.517   5.154  15.375 -0.1678  0.1746  0.0758
16595TIP3    H171200   1.553   5.226  15.325 -1.6903 -1.1640 -3.2409
16595TIP3    H271201   1.593   5.109  15.411  1.4068 -0.6217 -3.8014
16596TIP3   OH271202   0.325   4.842   1.460  0.2617  0.4286  0.9064
16596TIP3    H171203   0.307   4.904   1.530 -2.4736  1.7993 -0.8571
16596TIP3    H271204   0.308   4.891   1.379 -1.8844 -2.5156 -0.5976
16597TIP3   OH271205   5.740   2.152  16.900  0.2495  0.3256 -0.2034
16597TIP3    H171206   5.740   2.072  16.847  0.2693  0.7798 -0.8957
16597TIP3    H271207   5.648   2.168  16.920  0.3679 -0.9705  1.6497
16598TIP3   OH271208   2.680   6.656   5.347  0.4867 -0.3434  0.7050
16598TIP3    H171209   2.612   6.719   5.324  1.4218  0.1531 -0.8555
16598TIP3    H271210   2.762   6.703   5.335  1.2361 -1.9148 -0.9181
16599TIP3   OH271211   1.239   3.834  11.074 -0.4623  0.4725  0.2546
16599TIP3    H171212   1.321   3.874  11.104  0.4414 -1.4370  0.4815
16599TIP3    H271213   1.259   3.801  10.986 -1.0705  0.2368  0.1964
16600TIP3   OH271214   2.735   1.251  12.435 -0.1469 -0.2961 -0.0288
16600TIP3    H171215   2.653   1.297  12.420 -0.8269 -0.3563  2.8186
16600TIP3    H271216   2.738   1.182  12.369 -1.3664  0.9360 -1.4354
16601TIP3   OH271217   6.297   3.199   3.512  0.1567  0.4155  0.2820
16601TIP3    H171218   6.345   3.197   3.595  0.1986  1.1539  0.2847
16601TIP3    H271219   6.209   3.230   3.536  0.4002  1.4036 -0.0463
16602TIP3   OH271220   4.101   3.852   3.561 -0.2313 -0.5563  0.0430
16602TIP3    H171221   4.193   3.829   3.554 -0.2081 -0.0487 -1.7722
16602TIP3    H271222   4.095   3.900   3.644  1.2553 -0.0879 -0.0917
16603TIP3   OH271223   5.093   4.139   4.542 -0.1509  0.4767 -0.1844
16603TIP3    H171224   5.054   4.061   4.502 -0.5170  1.0576 -0.9883
16603TIP3    H271225   5.088   4.123   4.636  0.3288 -0.7372 -0.3474
16604TIP3   OH271226   0.359   0.526   2.450 -0.1242 -0.2367 -0.0805
16604TIP3    H171227   0.328   0.616   2.464 -1.2970 -0.6850  0.3065
16604TIP3    H271228   0.289   0.471   2.483  1.1225 -1.3180  0.8634
16605TIP3   OH271229   0.952   4.267   1.493 -0.1547 -0.2339 -0.3479
16605TIP3    H171230   1.024   4.293   1.435  1.3800  1.3834  2.0795
16605TIP3    H271231   0.986   4.190   1.540 -0.0830  0.3850  0.6343
16606TIP3   OH271232   3.978   6.515  14.212  0.0121  0.3060 -0.5214
16606TIP3    H171233   3.974   6.483  14.122  2.5948  0.3661 -0.7256
16606TIP3    H271234   3.958   6.608  14.205  0.1649  0.3019 -1.0309
16607TIP3   OH271235   4.028   1.290  12.103 -0.5099  0.2018 -0.1640
16607TIP3    H171236   4.014   1.259  12.014  0.2549 -1.0480  0.1268
16607TIP3    H271237   4.068   1.376  12.093 -0.0656 -0.1002 -1.0352
16608TIP3   OH271238   3.572   4.645  14.077 -0.1309 -0.1160 -0.6704
16608TIP3    H171239   3.665   4.628  14.096  0.1125  0.4465 -1.3026
16608TIP3    H271240   3.573   4.683  13.989 -1.0308 -0.7346 -0.9582
16609TIP3   OH271241   2.257   3.788  13.810  0.7349 -0.1535  0.0068
16609TIP3    H171242   2.347   3.806  13.837  1.3076 -0.5277 -1.5383
16609TIP3    H271243   2.260   3.789  13.715 -0.6138 -1.6125 -0.0850
16610TIP3   OH271244   2.364   6.552  16.656 -0.2648 -0.1111  0.1093
16610TIP3    H171245   2.414   6.512  16.727 -0.2495  0.9355  0.6966
16610TIP3    H271246   2.282   6.502  16.655  0.9888 -2.3309 -1.3497
16611TIP3   OH271247   4.434   6.305   5.158 -0.6197  0.3121  0.6552
16611TIP3    H171248   4.427   6.338   5.068  1.2872  2.2880  1.1462
16611TIP3    H271249   4.452   6.212   5.148 -2.7328  0.0113 -0.9136
16612TIP3   OH271250   4.095   4.663   1.403  0.2974 -0.1315 -0.6103
16612TIP3    H171251   4.057   4.586   1.445  0.0481  0.3069 -0.0123
16612TIP3    H271252   4.084   4.733   1.467  0.4014  0.4324 -1.1978
16613TIP3   OH271253   3.511   2.232  16.047 -0.1266 -0.0570 -0.0135
16613TIP3    H171254   3.558   2.254  16.127  0.1980 -0.8252  0.0166
16613TIP3    H271255   3.467   2.313  16.022 -1.6979 -0.2660  1.9075
16614TIP3   OH271256   0.837   1.054  14.063  0.5696  0.4843 -0.7164
16614TIP3    H171257   0.764   1.015  14.016 -0.5894  1.3376  0.3395
16614TIP3    H271258   0.829   1.020  14.153  1.9781 -0.0810 -0.7708
16615TIP3   OH271259   3.883   2.444  11.073 -0.0321 -0.4861  0.0528
16615TIP3    H171260   3.866   2.359  11.113 -2.1315 -0.1167  0.0602
16615TIP3    H271261   3.966   2.472  11.111  1.4571 -3.0794 -0.9735
16616TIP3   OH271262   1.375   1.142   6.179 -0.8549  0.1964 -0.2672
16616TIP3    H171263   1.325   1.202   6.234 -1.2237 -1.1520  0.9287
16616TIP3    H271264   1.429   1.092   6.240 -0.4693 -0.6173 -1.2364
16617TIP3   OH271265   0.049   4.307   5.719  0.0985 -0.3378 -0.1632
16617TIP3    H171266   0.135   4.331   5.686  0.4075 -0.4908  0.5348
16617TIP3    H271267  -0.012   4.349   5.657  0.6603 -1.6513 -1.6624
16618TIP3   OH271268   6.447   4.367  15.399 -0.3505 -0.1019  0.0772
16618TIP3    H171269   6.356   4.383  15.372 -1.0386 -1.4814  1.4542
16618TIP3    H271270   6.451   4.400  15.488  0.1933 -1.0040  0.3938
16619TIP3   OH271271   5.417   6.585  16.558 -0.2043 -0.4646 -0.2029
16619TIP3    H171272   5.396   6.676  16.538  0.5367 -0.3750 -0.6164
16619TIP3    H271273   5.449   6.587  16.648 -0.6113 -0.3812 -0.0609
16620TIP3   OH271274   1.201   1.216  11.088  0.5001 -0.1388  0.4662
16620TIP3    H171275   1.290   1.249  11.102  0.6687 -0.7668  0.8968
16620TIP3    H271276   1.204   1.174  11.002  1.3164 -2.3911  1.5190
16621TIP3   OH271277   2.713   5.565   3.915  0.1900  0.4406  0.8511
16621TIP3    H171278   2.730   5.516   3.835 -1.4437  0.6941  0.2969
16621TIP3    H271279   2.631   5.528   3.949  0.2767  1.0733  1.8144
16622TIP3   OH271280   6.584   0.587   2.483 -0.5837  0.1913 -0.8680
16622TIP3    H171281   6.671   0.624   2.491 -0.6541 -0.0453  1.9898
16622TIP3    H271282   6.599   0.493   2.468 -0.3692  0.2351 -0.9292
16623TIP3   OH271283   1.265   6.560   3.641 -0.3486 -0.0309  0.5566
16623TIP3    H171284   1.229   6.561   3.552  1.3335 -0.3205 -0.1733
16623TIP3    H271285   1.194   6.592   3.696 -1.9416 -1.2601 -0.6889
16624TIP3   OH271286   6.448   2.803   4.594 -0.2534 -0.6181 -0.2318
16624TIP3    H171287   6.374   2.792   4.654 -0.7244  2.6092 -0.0081
16624TIP3    H271288   6.414   2.775   4.509 -1.2475 -0.5960  0.1452
16625TIP3   OH271289   3.752   5.982  15.682 -0.1190 -0.4267 -0.3599
16625TIP3    H171290   3.824   6.037  15.712 -0.3239  0.6424 -1.6994
16625TIP3    H271291   3.678   6.041  15.675 -0.7515 -1.2093 -0.3499
16626TIP3   OH271292   4.478   1.104   2.657  0.2564 -0.2496  0.1973
16626TIP3    H171293   4.407   1.139   2.602 -0.5192 -0.9146  0.7449
16626TIP3    H271294   4.471   1.009   2.646  1.3848 -0.3124 -0.1127
16627TIP3   OH271295   1.935   3.332  13.822  0.3221 -0.7497  0.4158
16627TIP3    H171296   1.871   3.383  13.772  0.9468  0.8494  1.1718
16627TIP3    H271297   1.936   3.246  13.779 -1.0406 -0.2569 -0.6795
16628TIP3   OH271298   3.919   4.593  14.382 -0.2715 -0.5357 -0.6376
16628TIP3    H171299   3.964   4.655  14.439  1.5861 -0.6674 -1.8474
16628TIP3    H271300   3.826   4.603  14.403  0.2413  0.3473  1.4171
16629TIP3   OH271301   0.955   2.465  10.826 -0.3443  0.3431 -0.1020
16629TIP3    H171302   0.993   2.533  10.882 -1.0296  2.0095 -1.5607
16629TIP3    H271303   0.934   2.511  10.745  1.3052 -2.0958 -2.0622
16630TIP3   OH271304   3.940   5.780   4.659  0.2150  0.2032  0.1702
16630TIP3    H171305   3.895   5.862   4.640  0.0326  0.2236  0.6700
16630TIP3    H271306   3.914   5.758   4.749 -0.1557 -0.6696 -0.1390
16631TIP3   OH271307   1.247   4.934  12.352 -0.3724 -0.5061  0.1653
16631TIP3    H171308   1.173   4.877  12.333 -0.2049 -0.2646 -1.3325
16631TIP3    H271309   1.324   4.885  12.323 -0.0646 -0.2148  0.4761
16632TIP3   OH271310   3.807   5.636   5.612  0.4145 -0.3057 -0.2704
16632TIP3    H171311   3.863   5.596   5.678  0.5964 -2.1688 -1.4880
16632TIP3    H271312   3.867   5.685   5.556  0.5039 -0.2294 -0.1083
16633TIP3   OH271313   3.633   5.184  13.435 -0.5941 -0.2745  0.0713
16633TIP3    H171314   3.549   5.228  13.423 -0.8421 -0.6593  0.3947
16633TIP3    H271315   3.634   5.156  13.526  0.7326  1.4656  0.6580
16634TIP3   OH271316   1.019   0.854   1.964  0.2094  0.1553 -0.0318
16634TIP3    H171317   1.060   0.931   1.925 -0.3007 -1.2869 -3.8024
16634TIP3    H271318   1.073   0.781   1.936 -1.0470 -1.1535  0.8196
16635TIP3   OH271319   2.380   4.425  11.544  0.4492 -0.6671 -0.2700
16635TIP3    H171320   2.377   4.475  11.462  0.5849 -1.1886 -0.6012
16635TIP3    H271321   2.471   4.398  11.551  0.2782 -1.2665 -0.3424
16636TIP3   OH271322   6.609   4.027   2.658 -0.3026 -0.4248  0.3878
16636TIP3    H171323   6.614   3.943   2.705  0.2987 -1.4903 -1.4866
16636TIP3    H271324   6.642   4.091   2.721  1.2549 -1.9042  1.1688
16637TIP3   OH271325   4.310   5.543   3.052  0.3275  0.1297 -0.1357
16637TIP3    H171326   4.271   5.587   2.977 -0.7381  1.9360  1.3771
16637TIP3    H271327   4.251   5.469   3.069 -1.0758  1.3636  0.5867
16638TIP3   OH271328   5.040   5.386   2.453 -0.1935  0.3490 -0.1448
16638TIP3    H171329   4.946   5.393   2.438 -0.1246 -0.4102 -0.9576
16638TIP3    H271330   5.080   5.400   2.367  0.6089  3.3012  0.5915
16639TIP3   OH271331   2.486   3.615   5.460  0.2161  0.2829  0.4556
16639TIP3    H171332   2.488   3.653   5.372 -1.6981 -1.1493 -0.2860
16639TIP3    H271333   2.523   3.683   5.516 -0.3275  2.0345 -1.1922
16640TIP3   OH271334   6.668   3.302  13.846  0.2322 -0.7397 -0.3029
16640TIP3    H171335   6.763   3.290  13.841  0.1399 -1.7152 -0.0387
16640TIP3    H271336   6.640   3.242  13.916 -0.2200  1.7096  1.7410
16641TIP3   OH271337   2.557   3.488  13.849 -0.1822 -0.0094 -0.2259
16641TIP3    H171338   2.601   3.566  13.882 -0.2122  0.3105 -0.9254
16641TIP3    H271339   2.599   3.470  13.765 -0.0031 -0.8969  0.0440
16642TIP3   OH271340   0.193   1.738   1.244  0.3350  0.4023 -0.2599
16642TIP3    H171341   0.125   1.743   1.178  0.3037  2.0715 -0.1400
16642TIP3    H271342   0.173   1.659   1.294 -2.8644  1.9490  1.1922
16643TIP3   OH271343   5.620   4.760  14.354  0.6926 -0.2566  0.5449
16643TIP3    H171344   5.545   4.793  14.403  0.4784 -1.1753  0.8549
16643TIP3    H271345   5.690   4.754  14.419  1.0477  0.6027  0.2561
16644TIP3   OH271346   5.602   4.629  14.652 -0.1950  0.1823 -0.1124
16644TIP3    H171347   5.670   4.690  14.622 -1.2698  0.2426 -2.6501
16644TIP3    H271348   5.528   4.685  14.675  0.8131  0.2010  3.6508
16645TIP3   OH271349   1.155   1.843   1.503  0.2211  0.3447  0.6526
16645TIP3    H171350   1.168   1.876   1.414 -2.1142  0.2258  0.2248
16645TIP3    H271351   1.097   1.906   1.544  0.6004 -0.0616  1.8421
16646TIP3   OH271352   5.804   5.907  16.093  0.7703  0.0711 -0.4632
16646TIP3    H171353   5.810   5.913  15.998  0.8357 -0.3444 -0.4877
16646TIP3    H271354   5.737   5.841  16.109  1.6384 -0.7793 -0.2332
16647TIP3   OH271355   5.116   6.379   5.234 -0.3470  0.0933 -0.1729
16647TIP3    H171356   5.155   6.411   5.315  1.3676 -2.0634 -0.0515
16647TIP3    H271357   5.171   6.414   5.164 -0.6300  0.3209 -0.2851
16648TIP3   OH271358   4.540   0.184   3.142 -0.7206  0.2917  0.0183
16648TIP3    H171359   4.616   0.230   3.106 -2.2336  1.4557 -1.9198
16648TIP3    H271360   4.530   0.220   3.230  0.2652  1.0342 -0.1564
16649TIP3   OH271361   3.647   0.175  12.875 -0.2498 -0.1219  0.0732
16649TIP3    H171362   3.632   0.147  12.965 -1.3379 -0.7963 -0.2969
16649TIP3    H271363   3.606   0.261  12.868 -0.3990 -0.1870  0.1515
16650TIP3   OH271364   6.355   1.388   1.878 -0.4762  0.2787  0.4640
16650TIP3    H171365   6.442   1.373   1.839 -0.1976  0.0052  1.1847
16650TIP3    H271366   6.373   1.410   1.969 -1.2388 -1.4050  1.0596
16651TIP3   OH271367   6.496   3.565   0.309 -0.2546 -0.3821  0.4058
16651TIP3    H171368   6.557   3.561   0.383 -0.0286  0.7232  0.2889
16651TIP3    H271369   6.419   3.517   0.339  0.6386 -1.7621  0.5716
16652TIP3   OH271370   5.734   1.774  15.306  0.4123  0.0797 -0.0080
16652TIP3    H171371   5.739   1.808  15.217 -0.2217  0.3051  0.0352
16652TIP3    H271372   5.649   1.804  15.338  1.1526  1.0558  1.1200
16653TIP3   OH271373   4.008   6.259   2.705 -0.2765 -0.1551 -0.0143
16653TIP3    H171374   4.071   6.320   2.742 -0.4810 -0.7422  1.3759
16653TIP3    H271375   3.956   6.230   2.780 -3.1828  1.3694 -1.2810
16654TIP3   OH271376   0.086   3.760   4.673 -0.6604 -0.1604  0.2048
16654TIP3    H171377   0.025   3.688   4.658 -2.0826  0.8129  1.0697
16654TIP3    H271378   0.091   3.768   4.768 -2.4454  2.3428  0.2020
16655TIP3   OH271379   0.575   4.779   3.129  0.0775 -0.3901  0.5782
16655TIP3    H171380   0.575   4.861   3.178 -1.1362 -0.5119  0.8094
16655TIP3    H271381   0.573   4.711   3.196 -1.3669 -0.5610  0.3984
16656TIP3   OH271382   0.957   1.476   3.754  0.5593  0.0393  0.0740
16656TIP3    H171383   1.040   1.510   3.722  0.2487  0.1714 -0.6216
16656TIP3    H271384   0.894   1.545   3.734  0.2642 -0.1130  0.4755
16657TIP3   OH271385   0.455   6.198  15.566  0.0111 -0.1946  0.3813
16657TIP3    H171386   0.522   6.206  15.499 -0.1771 -0.3678  0.1703
16657TIP3    H271387   0.401   6.124  15.538 -0.6020  0.2919  0.2501
16658TIP3   OH271388   4.373   2.777   5.204  0.3482  0.4517 -0.2892
16658TIP3    H171389   4.297   2.729   5.235  0.3738 -0.0232 -0.9410
16658TIP3    H271390   4.445   2.745   5.258 -0.3591  3.1680  2.5536
16659TIP3   OH271391   4.471   3.564  12.316  0.0847  0.0069  0.1440
16659TIP3    H171392   4.432   3.584  12.401 -1.8589 -1.2783 -0.3610
16659TIP3    H271393   4.563   3.545  12.334  0.0623  1.2488  1.7103
16660TIP3   OH271394   4.676   2.555  13.780 -0.0468 -0.7342 -0.3379
16660TIP3    H171395   4.595   2.605  13.786 -0.0658 -0.9088  1.2610
16660TIP3    H271396   4.709   2.552  13.869  1.5443 -0.9803 -0.9089
16661TIP3   OH271397   6.463   0.126  16.981 -0.5088  0.8626  0.3062
16661TIP3    H171398   6.509   0.102  16.900 -1.8489  2.4641 -1.0160
16661TIP3    H271399   6.533   0.134  17.046  0.5833 -0.7487 -0.5915
16662TIP3   OH271400   5.197   2.667  11.955  0.6033  0.0652  0.0727
16662TIP3    H171401   5.279   2.624  11.930  0.5093 -0.8199  1.2200
16662TIP3    H271402   5.202   2.675  12.050 -0.6701 -0.0651  0.1688
16663TIP3   OH271403   6.714   5.564   0.984  0.2755  0.5192 -0.6902
16663TIP3    H171404   6.761   5.646   0.968 -1.0297  1.5787  0.6383
16663TIP3    H271405   6.780   5.505   1.021  0.9294  1.4100 -0.4076
16664TIP3   OH271406   0.694   3.975   0.099  0.5694 -0.7390 -0.2227
16664TIP3    H171407   0.748   3.924   0.159 -1.3242 -2.7190 -0.0979
16664TIP3    H271408   0.671   3.914   0.029  1.3814  1.0655 -2.1773
16665TIP3   OH271409   1.401   2.059   4.921  0.1155 -0.3389 -0.1885
16665TIP3    H171410   1.341   2.129   4.895  0.6414  0.4723  0.7055
16665TIP3    H271411   1.420   2.076   5.013 -2.2903 -3.5350  1.0896
16666TIP3   OH271412   1.256   0.011  14.282  0.0673 -0.1440  0.1042
16666TIP3    H171413   1.337   0.051  14.314 -0.7136  0.1033  1.9167
16666TIP3    H271414   1.228   0.067  14.210  2.2718 -1.1105 -1.6400
16667TIP3   OH271415   1.659   1.844   2.494 -0.1199 -0.3562 -0.2482
16667TIP3    H171416   1.681   1.757   2.462  2.6208  0.8099 -1.8770
16667TIP3    H271417   1.593   1.877   2.433  0.0676 -0.6511 -0.6075
16668TIP3   OH271418   2.993   5.358  11.646 -0.2923  0.9531  0.4350
16668TIP3    H171419   3.087   5.345  11.642 -0.3312  0.5831  0.6759
16668TIP3    H271420   2.956   5.292  11.588 -0.4789  0.0943  1.4957
16669TIP3   OH271421   0.362   1.819  15.951 -0.3997 -0.3195 -0.0843
16669TIP3    H171422   0.316   1.892  15.993  0.1130 -0.2310  0.3425
16669TIP3    H271423   0.293   1.759  15.923 -0.8040  0.1365 -0.0676
16670TIP3   OH271424   6.039   6.072   0.008  0.1150 -0.1547 -0.1506
16670TIP3    H171425   6.131   6.045   0.005 -0.1812 -1.1820 -0.7148
16670TIP3    H271426   6.015   6.065   0.100  1.2419  2.4962  0.4191
16671TIP3   OH271427   6.092   1.006   5.435  0.0529 -0.0189 -0.2686
16671TIP3    H171428   6.066   1.035   5.348 -0.2876 -0.6208 -0.3727
16671TIP3    H271429   6.021   0.949   5.464 -0.3801  1.0884  0.8844
16672TIP3   OH271430   0.856   4.364   4.129 -0.2978 -0.5481  0.3019
16672TIP3    H171431   0.844   4.402   4.216  0.4793 -0.5760  0.4316
16672TIP3    H271432   0.852   4.269   4.143 -0.5798 -0.5433  0.2460
16673TIP3   OH271433   5.131   6.109  15.037  0.0281 -1.2884  0.6116
16673TIP3    H171434   5.084   6.158  15.105 -0.4439 -0.2438 -0.4258
16673TIP3    H271435   5.062   6.062  14.990 -0.1979  0.8862 -1.4385
16674TIP3   OH271436   1.935   3.348  16.227  0.3716 -0.4970 -0.1257
16674TIP3    H171437   2.009   3.351  16.288  0.1369 -0.4753  0.1594
16674TIP3    H271438   1.911   3.440  16.215 -1.4489 -0.6143  2.0456
16675TIP3   OH271439   1.449   1.280   5.167  0.2850  0.7320 -0.1121
16675TIP3    H171440   1.496   1.278   5.251  0.8683 -1.3800 -0.4260
16675TIP3    H271441   1.400   1.361   5.169  1.6072  1.5543  1.5562
16676TIP3   OH271442   0.953   4.991  13.006 -0.3705 -0.1164  0.2906
16676TIP3    H171443   0.864   4.993  13.041 -0.5002  0.2689 -0.0535
16676TIP3    H271444   0.950   5.046  12.927  0.4432  0.8611  0.9146
16677TIP3   OH271445   0.435   1.060   0.738 -0.5806 -0.4355  0.2228
16677TIP3    H171446   0.415   1.152   0.721 -0.1301 -0.4422 -0.4102
16677TIP3    H271447   0.358   1.027   0.784 -1.4606 -0.1404 -0.9803
16678TIP3   OH271448   4.863   4.911  12.019  0.6764 -0.6752 -0.2943
16678TIP3    H171449   4.915   4.832  12.004 -0.6112 -1.3551 -1.3435
16678TIP3    H271450   4.776   4.889  11.987 -0.9868 -0.4154  3.4438
16679TIP3   OH271451   5.000   2.963  13.437  0.3348  0.1240 -0.7559
16679TIP3    H171452   5.037   2.956  13.349  2.3371  0.5271 -0.0117
16679TIP3    H271453   5.051   2.901  13.489 -0.9481 -0.2448  0.1039
16680TIP3   OH271454   4.607   4.254  13.169  0.2988 -0.0277 -0.7373
16680TIP3    H171455   4.549   4.208  13.109  1.3505 -0.8127 -1.1762
16680TIP3    H271456   4.583   4.220  13.255  0.7960 -1.1180 -1.0184
16681TIP3   OH271457   1.353   3.265  15.320  0.0408 -0.2035 -0.4750
16681TIP3    H171458   1.293   3.193  15.300  1.2165 -1.1579 -0.6989
16681TIP3    H271459   1.438   3.234  15.289  0.3844  1.7801 -1.7141
16682TIP3   OH271460   6.421   0.760   4.356 -0.2994 -0.1124 -0.0935
16682TIP3    H171461   6.449   0.723   4.272 -0.1325 -2.0139  0.7442
16682TIP3    H271462   6.497   0.811   4.386  0.7060 -1.6660  0.1348
16683TIP3   OH271463   5.257   3.249   4.702 -0.0082  0.2955 -0.1476
16683TIP3    H171464   5.196   3.275   4.771  2.3917  0.4945  2.0349
16683TIP3    H271465   5.259   3.324   4.643 -0.9055  0.8047  0.4450
16684TIP3   OH271466   1.545   3.158   1.579 -0.0941  0.4357 -0.0637
16684TIP3    H171467   1.584   3.081   1.621  1.3036  1.2470  0.1902
16684TIP3    H271468   1.455   3.160   1.612 -0.2463 -1.2210 -0.2838
16685TIP3   OH271469   4.056   0.832   2.666 -0.4376  0.0440 -0.0752
16685TIP3    H171470   4.009   0.762   2.711 -1.5076  0.8199  0.0733
16685TIP3    H271471   4.000   0.855   2.591  0.2527  0.2383 -0.5374
16686TIP3   OH271472   2.948   1.331   5.753  0.2072 -0.4653 -0.2378
16686TIP3    H171473   2.891   1.308   5.680  2.4647  0.7989 -2.5295
16686TIP3    H271474   3.034   1.296   5.730  2.1259  3.8531 -0.5977
16687TIP3   OH271475   0.679   4.244   3.019  0.0154  0.4352 -0.3521
16687TIP3    H171476   0.700   4.330   2.984  1.2993  0.8487  1.2644
16687TIP3    H271477   0.728   4.183   2.964 -0.1910  0.8235 -0.9658
16688TIP3   OH271478   4.058   3.539  14.278 -0.4156 -0.1231 -0.7268
16688TIP3    H171479   4.056   3.493  14.362  0.2078 -0.8219 -1.0829
16688TIP3    H271480   4.099   3.477  14.217  2.0779  1.5243 -0.8649
16689TIP3   OH271481   2.914   2.328  13.158  0.2436 -0.3867  0.0575
16689TIP3    H171482   2.915   2.396  13.225 -0.0305  0.2550 -0.5704
16689TIP3    H271483   2.995   2.341  13.108  0.6010 -1.0589  0.4405
16690TIP3   OH271484   1.159   3.489   0.399  0.3523  0.6688 -0.1648
16690TIP3    H171485   1.151   3.510   0.307 -1.1253 -0.9249 -0.4551
16690TIP3    H271486   1.201   3.403   0.401  1.6507  1.2807  0.7340
16691TIP3   OH271487   4.537   3.667  14.807  0.7392 -0.4925  0.0097
16691TIP3    H171488   4.534   3.759  14.780  2.3559 -0.1481  0.8697
16691TIP3    H271489   4.451   3.632  14.782  0.1639  1.1849 -0.5225
16692TIP3   OH271490   1.750   3.407   2.080 -0.2172 -0.0388  0.2453
16692TIP3    H171491   1.816   3.363   2.135 -1.1724  0.6237  2.0245
16692TIP3    H271492   1.728   3.343   2.013  0.5148 -1.1743  1.0449
16693TIP3   OH271493   4.699   1.788  11.375  0.5542 -0.0596  0.1188
16693TIP3    H171494   4.748   1.830  11.445  0.8417 -2.3024  1.3564
16693TIP3    H271495   4.741   1.817  11.294  2.3471  0.0049  1.0432
16694TIP3   OH271496   1.897   5.285  17.200  0.2678 -0.1488  0.2407
16694TIP3    H171497   1.802   5.295  17.205  0.2723 -0.3486  0.7199
16694TIP3    H271498   1.919   5.312  17.110  0.1143  2.7664  0.9727
16695TIP3   OH271499   3.234   6.160  17.047 -0.2566 -0.2437  0.0808
16695TIP3    H171500   3.195   6.095  16.988  0.1875 -1.3880  1.0190
16695TIP3    H271501   3.285   6.108  17.110  0.8669  1.0645  0.3016
16696TIP3   OH271502   3.233   1.453  15.417  0.5172  0.2093 -0.0372
16696TIP3    H171503   3.254   1.365  15.384  0.1947  0.2414 -0.3340
16696TIP3    H271504   3.316   1.500  15.414  0.4467  0.2953 -1.0684
16697TIP3   OH271505   3.059   0.335  13.966  0.0431  0.2366  0.2272
16697TIP3    H171506   3.004   0.263  13.997  0.7728 -0.8570 -0.9445
16697TIP3    H271507   3.147   0.298  13.961  0.2630  0.8819 -1.3780
16698TIP3   OH271508   6.446   4.312   6.657  0.5458 -0.1866 -0.3350
16698TIP3    H171509   6.458   4.218   6.672  3.0989  0.1923  0.4196
16698TIP3    H271510   6.528   4.352   6.686 -0.2603  2.2435 -1.1520
16699TIP3   OH271511   4.577   0.338  12.958  0.1983 -0.2347 -0.4359
16699TIP3    H171512   4.572   0.420  13.006 -0.7561 -0.7287  0.3326
16699TIP3    H271513   4.657   0.296  12.990  0.8175  0.4916 -1.0087
16700TIP3   OH271514   4.103   4.906   5.835 -0.0180 -0.3584 -0.1144
16700TIP3    H171515   4.069   4.933   5.921  1.3061  0.5404  0.1578
16700TIP3    H271516   4.065   4.819   5.821 -0.7375 -0.2756  1.1015
16701TIP3   OH271517   0.629   4.078  13.543  0.0449  0.0465  0.2666
16701TIP3    H171518   0.546   4.044  13.508  1.3010 -1.8710 -1.0432
16701TIP3    H271519   0.625   4.062  13.637 -1.4526  0.9170  0.3829
16702TIP3   OH271520   1.124   4.065  15.642  0.5208 -0.9527  0.1182
16702TIP3    H171521   1.123   4.153  15.679  0.9271  0.1617 -2.3483
16702TIP3    H271522   1.130   4.007  15.718  0.8132  1.1519  1.7780
16703TIP3   OH271523   2.349   4.549  14.355  0.7074  0.5543  0.1106
16703TIP3    H171524   2.385   4.463  14.332 -1.3975 -0.0081 -1.4396
16703TIP3    H271525   2.271   4.529  14.406 -0.9742  1.3766 -1.9946
16704TIP3   OH271526   3.103   1.765  16.515 -0.5523  0.2957  0.2557
16704TIP3    H171527   3.182   1.751  16.568 -0.5530 -0.3213  0.1014
16704TIP3    H271528   3.052   1.828  16.565  0.2770  1.1073  0.1059
16705TIP3   OH271529   3.558   3.279   6.111 -0.7743  0.0900  0.9328
16705TIP3    H171530   3.607   3.239   6.184 -1.6981  1.8787  2.6445
16705TIP3    H271531   3.476   3.308   6.151 -1.3183  1.1392 -0.8563
16706TIP3   OH271532   0.722   3.772   5.654 -0.8590  0.3104  0.0429
16706TIP3    H171533   0.724   3.795   5.562  0.8376 -1.2430 -0.3739
16706TIP3    H271534   0.791   3.824   5.694 -0.8781  0.1918  0.2341
16707TIP3   OH271535   2.373   1.319  16.143  0.2154 -0.8237 -0.1732
16707TIP3    H171536   2.413   1.297  16.059  1.7395 -1.9540  0.7846
16707TIP3    H271537   2.293   1.366  16.121  0.9804 -0.4164 -2.2306
16708TIP3   OH271538   0.718   6.495  17.062 -0.9073 -0.4520  0.5457
16708TIP3    H171539   0.643   6.546  17.030  0.4924  1.0302 -0.5240
16708TIP3    H271540   0.692   6.467  17.150 -2.2045  1.1063  0.7072
16709TIP3   OH271541   0.873   3.751  11.534  0.2988  0.5720 -0.5584
16709TIP3    H171542   0.789   3.761  11.578  0.4729 -0.6889  0.0873
16709TIP3    H271543   0.907   3.840  11.527 -2.9711  1.8241 -4.7489
16710TIP3   OH271544   2.279   1.010   2.219 -0.1366  0.0037 -0.0399
16710TIP3    H171545   2.259   1.097   2.184 -2.5675  1.1173  3.4758
16710TIP3    H271546   2.248   0.949   2.152 -2.1067  1.8900 -0.9737
16711TIP3   OH271547   6.480   0.220  10.929 -0.7624  0.0703  0.6488
16711TIP3    H171548   6.533   0.293  10.962 -1.7588  1.0589  0.1085
16711TIP3    H271549   6.534   0.181  10.860 -0.5063  0.7254  0.4725
16712TIP3   OH271550   0.994   6.002  17.237 -0.3382 -0.0094  0.0784
16712TIP3    H171551   1.047   5.943  17.183 -0.1979 -0.3257  0.5491
16712TIP3    H271552   0.928   5.944  17.277 -0.3205  0.1858  0.3907
16713TIP3   OH271553   5.530   3.759  12.654 -0.2747  0.2711  0.1676
16713TIP3    H171554   5.531   3.672  12.614  2.0009  0.4876 -0.3666
16713TIP3    H271555   5.584   3.751  12.732 -0.3330  1.1208  0.3118
16714TIP3   OH271556   1.106   2.674   5.848 -0.3592 -0.0251  0.4905
16714TIP3    H171557   1.093   2.604   5.911  1.5118  0.0929  1.0484
16714TIP3    H271558   1.201   2.682   5.838 -0.4672  2.6458  0.7305
16715TIP3   OH271559   5.050   6.614  16.654  0.1867 -0.5580 -0.1554
16715TIP3    H171560   5.004   6.539  16.616 -0.9225  0.9071 -1.8482
16715TIP3    H271561   5.094   6.655  16.579  1.5984 -0.0458  0.9049
16716TIP3   OH271562   3.560   2.244  11.521  0.2447  0.2734  0.0456
16716TIP3    H171563   3.655   2.243  11.523  0.2655 -1.7356  0.7599
16716TIP3    H271564   3.535   2.152  11.529 -1.7663  0.7720  0.1493
16717TIP3   OH271565   5.799   2.431  16.998 -0.0898  0.2712 -0.3089
16717TIP3    H171566   5.834   2.414  17.086  1.8045  0.2114 -1.0292
16717TIP3    H271567   5.798   2.346  16.956 -1.1333  0.2781 -0.3144
16718TIP3   OH271568   1.807   2.678   2.928  0.3774 -0.0074  0.4047
16718TIP3    H171569   1.785   2.619   3.001 -0.0112  0.5588  0.7550
16718TIP3    H271570   1.765   2.761   2.951  0.9344  0.4128 -0.0751
16719TIP3   OH271571   5.399   3.960   0.611  0.6370  0.8187  0.2775
16719TIP3    H171572   5.409   4.033   0.551  0.5773  0.7274  0.1572
16719TIP3    H271573   5.345   3.994   0.683  0.6776  0.9160  0.2607
16720TIP3   OH271574   6.709   0.442  16.830 -0.0957 -0.1997  0.6544
16720TIP3    H171575   6.628   0.488  16.810 -0.4726 -1.4694 -0.9811
16720TIP3    H271576   6.779   0.498  16.795 -0.3862  0.1965  0.7160
16721TIP3   OH271577   1.827   3.246  12.793  0.5141 -0.2062  0.0824
16721TIP3    H171578   1.842   3.318  12.854 -1.1235  0.0196  0.2622
16721TIP3    H271579   1.798   3.173  12.848 -0.0182 -0.3046 -0.3181
16722TIP3   OH271580   0.621   1.208   4.063 -0.7323  0.4004  0.5028
16722TIP3    H171581   0.666   1.281   4.022  0.6041  0.2400  1.6060
16722TIP3    H271582   0.565   1.248   4.130  2.1277  0.3929  3.1206
16723TIP3   OH271583   6.071   0.388   0.001  0.0578  0.4994 -0.1149
16723TIP3    H171584   6.112   0.456   0.054 -0.9410  0.8262  0.2460
16723TIP3    H271585   6.143   0.355  -0.054  0.9608  0.6074  0.9564
16724TIP3   OH271586   6.526   0.878   2.359 -0.2655  0.0491 -0.1274
16724TIP3    H171587   6.558   0.788   2.367 -1.0186 -0.1277  1.3002
16724TIP3    H271588   6.483   0.895   2.443  0.4263  1.9795 -0.1217
16725TIP3   OH271589   6.388   1.721  12.075  0.1036 -0.6676 -0.1654
16725TIP3    H171590   6.304   1.765  12.067  0.9879  0.9137 -1.4270
16725TIP3    H271591   6.448   1.790  12.103  1.0826 -1.6504  0.2223
16726TIP3   OH271592   4.443   2.697  13.857 -0.0357  0.1086  0.2692
16726TIP3    H171593   4.378   2.765  13.838 -1.5646 -1.7040 -1.3886
16726TIP3    H271594   4.462   2.708  13.950 -1.9801  1.3214  0.5858
16727TIP3   OH271595   5.011   5.395  14.179  0.0676 -0.3934  0.8055
16727TIP3    H171596   5.084   5.342  14.148  1.0851  1.5699 -0.3081
16727TIP3    H271597   5.029   5.408  14.272  1.2553  0.2199  0.5084
16728TIP3   OH271598   0.759   1.190   5.929 -0.3351 -0.4991  0.5518
16728TIP3    H171599   0.716   1.114   5.890 -1.1949 -0.0856  0.6874
16728TIP3    H271600   0.692   1.231   5.983 -0.1715  0.8939 -0.2566
16729TIP3   OH271601   1.449   0.477   2.624  0.7045 -0.1498 -0.5151
16729TIP3    H171602   1.466   0.571   2.623 -1.1514  0.3618  2.2470
16729TIP3    H271603   1.368   0.468   2.574 -0.1364  0.0574  0.7624
16730TIP3   OH271604   4.035   1.745   0.328 -0.3242  0.2968 -0.3787
16730TIP3    H171605   4.075   1.769   0.412 -0.2461  2.3588 -0.9678
16730TIP3    H271606   4.104   1.698   0.281  0.2761  0.8214 -0.0355
16731TIP3   OH271607   1.395   5.070  14.328 -0.0471 -0.6425  0.3903
16731TIP3    H171608   1.302   5.067  14.346  0.2232  0.3683  2.1687
16731TIP3    H271609   1.407   5.014  14.251 -2.1508 -0.4471 -0.1167
16732TIP3   OH271610   0.858   4.302  11.366  0.0203  0.0869  0.2535
16732TIP3    H171611   0.785   4.346  11.409 -0.4696 -0.8219  0.3656
16732TIP3    H271612   0.853   4.331  11.275 -0.3950  0.1476  0.2926
16733TIP3   OH271613   4.200   3.688   2.189  0.6178  0.4048  0.3583
16733TIP3    H171614   4.224   3.699   2.097  1.4719 -0.7034  0.4163
16733TIP3    H271615   4.168   3.598   2.194  0.7946  0.3837  1.1889
16734TIP3   OH271616   6.237   4.105   5.218  0.3203  0.1060  1.0945
16734TIP3    H171617   6.216   4.056   5.297  0.4629 -1.2414  0.3181
16734TIP3    H271618   6.322   4.071   5.190 -0.3675 -0.4796 -0.4058
16735TIP3   OH271619   5.640   3.540   0.080 -0.0053 -0.6794  0.8695
16735TIP3    H171620   5.654   3.470   0.143 -0.9595 -1.3290  0.3926
16735TIP3    H271621   5.647   3.621   0.131  2.3220 -1.0290  1.2000
16736TIP3   OH271622   4.021   4.178   5.857 -0.0389  0.1821  0.0963
16736TIP3    H171623   4.012   4.269   5.829  0.8671 -0.1907 -1.5288
16736TIP3    H271624   4.101   4.176   5.909 -1.3473  0.7357  2.2661
16737TIP3   OH271625   1.243   3.932   4.417 -0.2828 -0.3489 -0.4792
16737TIP3    H171626   1.242   3.888   4.502  0.0022 -0.9115 -0.7611
16737TIP3    H271627   1.150   3.937   4.393 -0.5368  1.4105  0.6508
16738TIP3   OH271628   5.314   0.221  12.081 -0.0285  0.4425  0.2632
16738TIP3    H171629   5.278   0.273  12.153 -0.4419  0.0667  0.3276
16738TIP3    H271630   5.239   0.201  12.026  0.0755 -0.3366  0.3909
16739TIP3   OH271631   4.764   0.883  15.708 -0.0493  0.4852  0.2549
16739TIP3    H171632   4.688   0.835  15.742  0.6131 -0.3624  0.5858
16739TIP3    H271633   4.774   0.853  15.618  1.7522 -1.8692  1.1274
16740TIP3   OH271634   2.222   4.220  11.485 -0.2356 -0.6876  0.5294
16740TIP3    H171635   2.281   4.144  11.486 -0.6881 -1.0930 -1.1280
16740TIP3    H271636   2.277   4.293  11.512  0.1496 -1.6202  2.4429
16741TIP3   OH271637   2.106   3.786  11.729  0.3116  0.1206  0.0776
16741TIP3    H171638   2.193   3.822  11.744 -0.9552  2.2455  3.5104
16741TIP3    H271639   2.096   3.719  11.797  0.4367 -2.7514 -2.5367
16742TIP3   OH271640   1.228   0.639  16.105 -0.3192  0.6404 -0.4635
16742TIP3    H171641   1.218   0.661  16.198  0.0638 -2.4264  0.4036
16742TIP3    H271642   1.138   0.636  16.072 -0.7444 -1.3220  0.6869
16743TIP3   OH271643   0.383   5.720  14.078 -0.1118 -0.3933  0.2716
16743TIP3    H171644   0.371   5.668  13.998 -0.5809 -0.0799  0.1394
16743TIP3    H271645   0.391   5.655  14.147  1.3465 -0.7127 -0.1510
16744TIP3   OH271646   2.893   4.945   0.480 -0.4737 -0.0397  0.0263
16744TIP3    H171647   2.868   4.878   0.544  3.4508 -1.6847  0.1413
16744TIP3    H271648   2.890   4.900   0.395  2.0664 -0.5162  0.0890
16745TIP3   OH271649   1.371   4.531  16.647 -0.2108 -0.0631  0.2014
16745TIP3    H171650   1.315   4.470  16.696 -2.4586  2.2604  0.7225
16745TIP3    H271651   1.459   4.513  16.679 -0.9647 -2.0472  1.3688
16746TIP3   OH271652   0.223   3.588  12.333  0.2513  0.1548 -0.6390
16746TIP3    H171653   0.213   3.609  12.426  0.8568 -1.4876 -0.1784
16746TIP3    H271654   0.193   3.498  12.326  1.5737 -0.2200 -1.7736
16747TIP3   OH271655   1.547   0.719  17.189 -0.1274 -0.1130  0.3299
16747TIP3    H171656   1.497   0.666  17.251 -0.2207 -0.7024 -0.2438
16747TIP3    H271657   1.637   0.715  17.221  0.0951 -1.6837 -0.4092
16748TIP3   OH271658   0.460   1.387  13.223 -0.8328 -0.1714 -0.3127
16748TIP3    H171659   0.493   1.424  13.141 -1.2394 -0.1389 -0.4681
16748TIP3    H271660   0.468   1.292  13.212 -2.3391 -0.2476 -1.0441
16749TIP3   OH271661   1.957   5.714   2.467 -0.3921 -0.0831 -0.5840
16749TIP3    H171662   1.963   5.677   2.555 -0.9741  1.5894  0.1987
16749TIP3    H271663   2.031   5.775   2.462 -0.7491  0.3193 -1.0100
16750TIP3   OH271664   2.655   4.578  16.999 -0.0029 -0.3880 -0.4119
16750TIP3    H171665   2.661   4.635  16.923 -0.0533  0.1884  0.0044
16750TIP3    H271666   2.722   4.512  16.985  1.9323  1.2936  0.3398
16751TIP3   OH271667   1.326   0.735   5.717  0.4523 -0.4134 -0.1678
16751TIP3    H171668   1.258   0.689   5.667  0.7857  0.1987 -1.2301
16751TIP3    H271669   1.297   0.826   5.718  1.0912 -0.2006 -0.3716
16752TIP3   OH271670   2.203   5.215   2.301 -0.0164 -0.0348  0.7712
16752TIP3    H171671   2.206   5.311   2.302 -1.2545  0.0244  0.3382
16752TIP3    H271672   2.174   5.191   2.389 -0.3056  0.0150  0.6891
16753TIP3   OH271673   6.595   3.907  11.454  0.2426  0.2158  0.3954
16753TIP3    H171674   6.594   3.936  11.363  0.3249  1.1529  0.6859
16753TIP3    H271675   6.591   3.988  11.505  0.6387 -0.2775  1.2265
16754TIP3   OH271676   5.224   5.405  15.056  0.4524  0.3906 -0.0928
16754TIP3    H171677   5.186   5.493  15.049  0.6377  0.4138 -0.8827
16754TIP3    H271678   5.197   5.374  15.142 -0.4830  0.8117 -0.2275
16755TIP3   OH271679   6.259   0.955   2.996 -0.0765 -0.1165 -0.7302
16755TIP3    H171680   6.216   1.018   3.054  1.8675  1.1092 -0.5166
16755TIP3    H271681   6.247   0.870   3.039 -2.2272  0.1438 -0.7090
16756TIP3   OH271682   1.609   1.605  13.498  0.6868  0.1693  0.2273
16756TIP3    H171683   1.543   1.650  13.550 -0.1821 -0.6003 -0.1870
16756TIP3    H271684   1.566   1.526  13.467  0.8615  0.9934 -2.3681
16757TIP3   OH271685   2.328   4.104   4.298 -0.2038 -0.0891 -0.2855
16757TIP3    H171686   2.257   4.156   4.337  0.8092  0.9353  0.2760
16757TIP3    H271687   2.408   4.139   4.338  0.6593 -0.9128 -1.2210
16758TIP3   OH271688   3.942   6.717  15.919 -0.0410 -0.0969  0.1282
16758TIP3    H171689   3.871   6.755  15.970 -0.6626  2.1421 -2.2060
16758TIP3    H271690   4.022   6.755  15.956 -0.3065 -0.1283  0.7399
16759TIP3   OH271691   1.608   5.840  14.122 -0.3085 -0.5206  0.2074
16759TIP3    H171692   1.689   5.808  14.162 -0.7749 -1.0177  0.7705
16759TIP3    H271693   1.637   5.906  14.058  0.4295  0.7531  1.7767
16760TIP3   OH271694   1.940   1.244   3.227 -0.3002  0.3025  0.1305
16760TIP3    H171695   2.035   1.257   3.217  0.1356 -2.6464 -0.4444
16760TIP3    H271696   1.902   1.296   3.156  0.6324  3.0832  1.4872
16761TIP3   OH271697   0.166   6.720   1.669  0.0206  0.1598 -0.6038
16761TIP3    H171698   0.158   6.731   1.575 -1.6184  0.5754 -0.4515
16761TIP3    H271699   0.083   6.754   1.704 -0.4713 -2.2512  0.7981
16762TIP3   OH271700   4.968   3.806   0.627  0.2301 -0.5859 -0.5489
16762TIP3    H171701   4.928   3.889   0.602 -0.9856 -1.4538 -1.6189
16762TIP3    H271702   5.004   3.822   0.714  1.3606  1.4811 -1.3300
16763TIP3   OH271703   3.048   2.862  11.407  0.8987 -0.2639  0.4338
16763TIP3    H171704   3.085   2.856  11.319  0.7586 -2.0328  0.4542
16763TIP3    H271705   3.115   2.825  11.464  0.6788  0.1528  0.9714
16764TIP3   OH271706   2.010   5.315   5.909  0.0069 -0.2215  0.0818
16764TIP3    H171707   1.966   5.399   5.925 -0.2022  0.0483 -1.6986
16764TIP3    H271708   2.096   5.340   5.874  0.0405 -0.7590 -0.2269
16765TIP3   OH271709   5.631   3.625   5.178  0.0280 -0.1443 -0.3704
16765TIP3    H171710   5.711   3.671   5.151 -0.8066  0.9684 -1.0741
16765TIP3    H271711   5.642   3.611   5.272  1.3775 -0.7055 -0.5947
16766TIP3   OH271712   0.385   4.389   3.481 -0.0351  0.2232  0.1499
16766TIP3    H171713   0.318   4.378   3.549  0.3946 -0.1381  0.5190
16766TIP3    H271714   0.437   4.309   3.485  0.4896  0.5497 -0.0526
16767TIP3   OH271715   3.969   0.588  11.873 -0.1039 -0.1602  0.3203
16767TIP3    H171716   3.986   0.623  11.961 -1.3908  0.7731  0.2224
16767TIP3    H271717   3.949   0.496  11.888 -0.9632  0.1323  1.1155
16768TIP3   OH271718   5.191   3.391  11.733 -0.5235  0.0165  1.0291
16768TIP3    H171719   5.184   3.423  11.643 -1.4569 -1.9080  0.3771
16768TIP3    H271720   5.109   3.417  11.774  0.5218  2.3126  1.9017
16769TIP3   OH271721   3.610   2.683  16.092 -0.0501  0.8844  0.5160
16769TIP3    H171722   3.529   2.729  16.111 -1.1361 -1.3924  1.8124
16769TIP3    H271723   3.597   2.595  16.128  1.5410 -0.7727 -2.5281
16770TIP3   OH271724   2.992   5.588  14.765 -0.2437  0.0128  0.0143
16770TIP3    H171725   2.996   5.561  14.857 -0.1602 -0.5372 -0.1493
16770TIP3    H271726   3.025   5.513  14.716 -1.0138  0.0021 -0.5197
16771TIP3   OH271727   3.302   6.584  11.285  0.2150 -0.3035 -0.1830
16771TIP3    H171728   3.272   6.659  11.232 -0.6682  0.2295  1.0225
16771TIP3    H271729   3.320   6.515  11.221 -0.5592  0.4091 -1.2027
16772TIP3   OH271730   3.518   2.675  16.549 -0.1078 -0.0446 -0.4048
16772TIP3    H171731   3.486   2.744  16.491 -1.1664 -1.1345 -1.1860
16772TIP3    H271732   3.527   2.598  16.492  0.8540 -0.6044  0.4715
16773TIP3   OH271733   5.337   6.730   2.133  0.6306  0.4961 -0.2550
16773TIP3    H171734   5.336   6.683   2.216  1.1429 -0.0862 -0.5698
16773TIP3    H271735   5.385   6.811   2.151 -0.2694  0.9269  0.2901
16774TIP3   OH271736   3.870   4.462   5.505  0.4203 -0.6476 -0.4877
16774TIP3    H171737   3.783   4.464   5.465  1.0077 -0.6246 -1.8299
16774TIP3    H271738   3.906   4.377   5.482  0.5983 -0.8356  0.4397
16775TIP3   OH271739   1.367   1.888   5.923  0.0576  0.5773 -0.0231
16775TIP3    H171740   1.389   1.813   5.868 -0.3688  1.2085 -1.0907
16775TIP3    H271741   1.326   1.849   6.001  0.7424 -0.3350 -0.1045
16776TIP3   OH271742   3.300   6.382  11.587  0.0040 -0.3284 -0.0212
16776TIP3    H171743   3.257   6.465  11.566  1.1791  0.9677  2.4107
16776TIP3    H271744   3.228   6.319  11.593 -1.0229  0.7292 -0.8036
16777TIP3   OH271745   5.061   6.439   5.602  0.1617 -0.1444 -0.0571
16777TIP3    H171746   5.130   6.448   5.537 -0.6145 -1.0243 -1.0439
16777TIP3    H271747   5.022   6.526   5.608  0.3852 -0.0028 -0.6094
16778TIP3   OH271748   4.376   0.142  13.040  0.3851  0.3466  0.1635
16778TIP3    H171749   4.308   0.206  13.060  0.4779  0.8172 -0.9264
16778TIP3    H271750   4.452   0.195  13.015  0.7524 -0.1839  0.1444
16779TIP3   OH271751   4.095   5.794   6.248 -0.0952  0.0556 -0.3346
16779TIP3    H171752   4.134   5.713   6.282  0.8962  1.1748  1.3232
16779TIP3    H271753   4.025   5.764   6.189  1.3792 -1.9982 -1.1596
16780TIP3   OH271754   3.824   0.185  12.638  0.0210  0.3617 -0.3491
16780TIP3    H171755   3.761   0.193  12.709 -0.9186  0.8823 -1.2058
16780TIP3    H271756   3.777   0.139  12.569  0.7409  0.3322 -0.8345
16781TIP3   OH271757   4.607   5.012  12.613  0.4435 -0.1173  0.6298
16781TIP3    H171758   4.591   5.006  12.519 -1.7756  0.5537  0.8917
16781TIP3    H271759   4.621   4.921  12.641 -1.4255 -0.6510 -0.0110
16782TIP3   OH271760   4.067   6.331  16.727  0.0723 -0.0318 -0.5214
16782TIP3    H171761   4.056   6.425  16.744 -1.3803 -0.3828  0.6816
16782TIP3    H271762   4.066   6.324  16.631  2.2341  1.3580 -0.7263
16783TIP3   OH271763   3.053   2.584   5.141 -0.4846 -0.2627 -0.0196
16783TIP3    H171764   3.047   2.595   5.047  1.8512 -1.0345 -0.3265
16783TIP3    H271765   3.127   2.639   5.167 -1.1988  0.0711  1.4034
16784TIP3   OH271766   4.583   3.937   0.376  0.8184  0.2371  0.0901
16784TIP3    H171767   4.499   3.931   0.331  0.3996  0.5619  0.8045
16784TIP3    H271768   4.559   3.952   0.468  1.5221 -3.3087  1.0214
16785TIP3   OH271769   3.502   5.120   2.903  0.7743  0.2058  0.0694
16785TIP3    H171770   3.549   5.189   2.858  0.4678 -0.8818 -2.0330
16785TIP3    H271771   3.522   5.040   2.854  0.2258 -1.0173  1.7368
16786TIP3   OH271772   2.690   6.175  10.967  0.7351  0.7568 -0.1412
16786TIP3    H171773   2.757   6.145  11.029  1.2438  1.0291 -0.5554
16786TIP3    H271774   2.634   6.234  11.019 -2.2313 -3.1705  1.6288
16787TIP3   OH271775   0.355   5.823   2.883 -0.6001 -0.1416  0.7974
16787TIP3    H171776   0.437   5.869   2.900 -0.6341 -0.8237  3.2455
16787TIP3    H271777   0.329   5.851   2.795  2.7181 -0.6896 -0.4875
16788TIP3   OH271778   1.189   4.071  10.856  0.2759 -0.1065  0.1255
16788TIP3    H171779   1.118   4.105  10.801  1.3702  0.0401 -1.2597
16788TIP3    H271780   1.163   3.981  10.875 -0.3639 -0.0031 -0.2176
16789TIP3   OH271781   0.988   2.138  12.537  0.5912 -0.1213 -0.0409
16789TIP3    H171782   0.936   2.167  12.462  1.0021 -1.6236 -0.9618
16789TIP3    H271783   0.930   2.148  12.612 -0.0541  0.8331 -0.6407
16790TIP3   OH271784   5.374   3.259   1.748 -0.1455 -0.2336  0.1814
16790TIP3    H171785   5.351   3.253   1.841 -0.1397  2.7130  0.4728
16790TIP3    H271786   5.458   3.305   1.748  0.2029 -0.8135 -1.2894
16791TIP3   OH271787   1.214   5.545  16.994 -0.2999  0.3425  0.6853
16791TIP3    H171788   1.280   5.611  17.014 -0.4299  0.6722  0.0669
16791TIP3    H271789   1.264   5.466  16.975 -0.0430  0.7214 -0.2813
16792TIP3   OH271790   6.385   1.741  17.250  0.7625  0.2583 -0.2971
16792TIP3    H171791   6.437   1.815  17.218 -0.3828 -0.0042 -3.0646
16792TIP3    H271792   6.397   1.673  17.184 -0.0198 -1.2290  1.0306
16793TIP3   OH271793   5.732   2.102   2.036 -0.6371  0.1261 -0.4524
16793TIP3    H171794   5.736   2.197   2.048 -0.2009  0.0501  0.0760
16793TIP3    H271795   5.691   2.070   2.116  1.3851 -0.3115  0.4840
16794TIP3   OH271796   0.639   5.448  14.979 -0.0697  0.1061  0.3375
16794TIP3    H171797   0.558   5.492  15.004 -0.4055 -0.7259  0.7458
16794TIP3    H271798   0.708   5.511  15.001 -0.6754  1.4809 -1.5074
16795TIP3   OH271799   0.643   4.124  11.005 -0.2526 -0.2032 -0.0609
16795TIP3    H171800   0.670   4.215  11.018 -1.7219  0.5495 -2.0030
16795TIP3    H271801   0.646   4.086  11.093  0.5667  1.6414  0.7608
16796TIP3   OH271802   1.557   1.553  15.777 -0.6950  0.9876  0.1919
16796TIP3    H171803   1.527   1.634  15.821  0.3959  0.5667  1.8079
16796TIP3    H271804   1.569   1.491  15.849  1.4662  0.3420 -0.6653
16797TIP3   OH271805   2.916   2.418   5.321 -0.1805  0.1075  0.4040
16797TIP3    H171806   2.923   2.460   5.407  2.8822 -1.7692  1.2480
16797TIP3    H271807   2.966   2.475   5.263  1.0581 -0.5411  0.7927
16798TIP3   OH271808   3.524   5.055  15.541  0.0932 -0.9654 -0.1987
16798TIP3    H171809   3.577   5.135  15.537  1.1789 -1.7135 -1.7889
16798TIP3    H271810   3.552   5.012  15.621 -0.1561 -0.0126  0.4250
16799TIP3   OH271811   2.543   0.369  10.800 -0.4879 -0.6646  0.3496
16799TIP3    H171812   2.448   0.378  10.803 -0.6006 -1.2848 -0.7646
16799TIP3    H271813   2.559   0.276  10.785  0.2108 -0.3221 -1.3452
16800TIP3   OH271814   5.768   1.046   3.318  0.4082  0.0583  0.0629
16800TIP3    H171815   5.797   1.079   3.233  1.6888  0.7938  0.7478
16800TIP3    H271816   5.675   1.028   3.307  0.5103  0.3314 -1.4269
16801TIP3   OH271817   5.205   2.239  16.747  0.4071  0.1245  0.0766
16801TIP3    H171818   5.255   2.235  16.829  2.1634  0.1640 -0.9529
16801TIP3    H271819   5.198   2.148  16.719 -0.3134  0.0991  0.3197
16802TIP3   OH271820   5.531   0.301   3.424 -0.1697 -0.2674  0.3399
16802TIP3    H171821   5.626   0.304   3.414 -0.2032 -0.1756  0.0470
16802TIP3    H271822   5.504   0.222   3.378 -0.5475  1.2479 -2.2315
16803TIP3   OH271823   6.238   3.490   1.981 -0.1462 -0.1397  0.0229
16803TIP3    H171824   6.216   3.579   2.008  1.8757  0.2392  0.5633
16803TIP3    H271825   6.259   3.444   2.063  0.9231 -0.4787 -0.4195
16804TIP3   OH271826   3.751   2.427   0.448  0.4134 -0.7185  0.0682
16804TIP3    H171827   3.837   2.445   0.487  0.8437  0.7463 -1.4444
16804TIP3    H271828   3.718   2.352   0.497  2.0955 -0.6647  1.3853
16805TIP3   OH271829   4.369   4.732  13.109  0.1076  0.6944  0.2394
16805TIP3    H171830   4.429   4.658  13.118 -0.6986  0.1740  1.5203
16805TIP3    H271831   4.426   4.806  13.086  0.7778 -0.5761 -2.7726
16806TIP3   OH271832   0.982   3.478  15.657  0.5090 -0.3183 -0.4229
16806TIP3    H171833   1.048   3.419  15.622  2.7047  1.6854  0.0943
16806TIP3    H271834   0.949   3.526  15.581  0.8911 -0.1508 -0.4845
16807TIP3   OH271835   4.706   5.873  13.911 -0.4792 -0.7104  0.6407
16807TIP3    H171836   4.799   5.897  13.914 -0.8794  1.0251  3.1192
16807TIP3    H271837   4.685   5.871  13.818  1.6286  0.6559  0.0435
16808TIP3   OH271838   6.338   5.870  13.498  0.1290  0.1630 -0.1708
16808TIP3    H171839   6.337   5.776  13.480 -1.5775 -0.0422  0.7678
16808TIP3    H271840   6.246   5.893  13.510  0.6431  1.5910  1.3886
16809TIP3   OH271841   4.657   2.351   4.137  0.6506  0.2033  0.5565
16809TIP3    H171842   4.603   2.289   4.187 -0.3822  1.7101  1.4209
16809TIP3    H271843   4.707   2.397   4.204  0.2863  1.3022  0.0970
16810TIP3   OH271844   2.076   5.292  16.643  0.3026  0.0230 -0.2146
16810TIP3    H171845   2.101   5.272  16.553  1.9351 -1.8179  0.5740
16810TIP3    H271846   2.030   5.213  16.673 -0.4747  0.7239  0.4929
16811TIP3   OH271847   5.822   0.593  16.965 -0.3408 -0.0653 -0.0919
16811TIP3    H171848   5.878   0.516  16.977 -0.2431 -0.0342 -0.3574
16811TIP3    H271849   5.801   0.594  16.872 -0.8770 -0.1393  0.0305
16812TIP3   OH271850   3.724   1.824  15.902  0.0038 -0.1264  0.1874
16812TIP3    H171851   3.633   1.853  15.899  0.0207 -0.1396 -1.0067
16812TIP3    H271852   3.728   1.765  15.976 -0.5167  1.3023  1.4107
16813TIP3   OH271853   1.295   5.517  13.389  0.4039 -0.0153  0.3700
16813TIP3    H171854   1.205   5.484  13.399  0.4443  0.2601  2.0357
16813TIP3    H271855   1.341   5.482  13.465  1.5812  0.2714 -0.1989
16814TIP3   OH271856   3.637   6.426   1.875 -0.0437 -0.0427  0.1336
16814TIP3    H171857   3.708   6.474   1.918  0.2989  1.1560 -1.6716
16814TIP3    H271858   3.607   6.364   1.942  0.4087  1.7352  2.1133
16815TIP3   OH271859   3.849   4.914  14.449 -0.0947  0.8795  0.2388
16815TIP3    H171860   3.931   4.873  14.476 -0.5085 -0.5356 -0.5600
16815TIP3    H271861   3.864   5.008  14.462  1.6235  0.6505  0.1462
16816TIP3   OH271862   2.823   3.398   4.242  0.1613  0.4206  0.2941
16816TIP3    H171863   2.768   3.413   4.319 -0.3479 -1.0988  0.2603
16816TIP3    H271864   2.805   3.307   4.217  0.3604  0.8598 -1.5917
16817TIP3   OH271865   2.300   1.295   4.177 -0.7360  0.3003 -0.4495
16817TIP3    H171866   2.379   1.347   4.192  1.1576 -1.5934 -2.9055
16817TIP3    H271867   2.230   1.359   4.171  1.2096  2.4687 -1.6534
16818TIP3   OH271868   2.275   0.489   4.755 -0.2093 -0.2098 -0.2063
16818TIP3    H171869   2.293   0.577   4.723 -2.9128  0.3404 -0.4686
16818TIP3    H271870   2.204   0.457   4.699 -0.2306 -2.0085  0.7626
16819TIP3   OH271871   3.814   6.199   2.501  0.4100 -0.4554 -0.0178
16819TIP3    H171872   3.820   6.270   2.438 -1.5972  0.9138  1.2069
16819TIP3    H271873   3.858   6.233   2.579 -0.0590 -0.7515  0.3851
16820TIP3   OH271874   0.814   5.288   3.629  0.2591 -0.3495  0.4974
16820TIP3    H171875   0.738   5.297   3.571 -0.3339 -1.0690  1.1495
16820TIP3    H271876   0.880   5.244   3.575 -0.4920 -1.5577  0.5345
16821TIP3   OH271877   2.095   0.095  14.986  0.1574  0.3135 -0.2621
16821TIP3    H171878   2.054   0.012  15.010  1.0723 -0.1394 -0.2090
16821TIP3    H271879   2.167   0.070  14.927  1.1215  0.9584  0.6109
16822TIP3   OH271880   6.138   6.050  15.058  0.9944 -0.2534  0.1629
16822TIP3    H171881   6.101   6.027  14.973  1.2474  1.1782 -0.3780
16822TIP3    H271882   6.089   6.127  15.086  2.4143  0.6870  0.2057
16823TIP3   OH271883   3.480   1.153   3.420 -0.0702  0.0530  0.2670
16823TIP3    H171884   3.454   1.146   3.512 -0.3071 -0.7409  0.1519
16823TIP3    H271885   3.532   1.233   3.416  1.4018 -0.7554  1.4558
16824TIP3   OH271886   6.196   2.868  16.568  0.0558 -0.3624 -0.3690
16824TIP3    H171887   6.154   2.783  16.560  2.3990 -1.6706  0.2075
16824TIP3    H271888   6.219   2.891  16.478 -0.6813 -0.2688 -0.5383
16825TIP3   OH271889   0.286   2.958  12.627 -0.2617 -0.7978  0.3679
16825TIP3    H171890   0.302   3.046  12.660 -0.5364 -1.0262  1.1397
16825TIP3    H271891   0.309   2.962  12.535 -2.2023  0.6198 -0.1183
16826TIP3   OH271892   0.944   6.189   4.215  0.2670  0.4557 -0.0150
16826TIP3    H171893   0.897   6.126   4.160 -1.0774  2.3253 -1.1289
16826TIP3    H271894   1.019   6.216   4.161  0.0684  0.7963 -0.1285
16827TIP3   OH271895   6.185   2.703   2.061  0.2179  0.1913  1.0004
16827TIP3    H171896   6.141   2.619   2.046 -1.2258  1.1115 -0.2304
16827TIP3    H271897   6.117   2.758   2.100 -0.2915  2.0896 -2.2553
16828TIP3   OH271898   1.895   4.821  17.035  0.5545  1.0968 -0.1166
16828TIP3    H171899   1.963   4.888  17.044  0.0155  1.3760  4.6263
16828TIP3    H271900   1.935   4.742  17.070  0.0392 -0.2590 -2.3886
16829TIP3   OH271901   3.974   3.162   0.157  0.3673 -0.3038 -0.1949
16829TIP3    H171902   4.011   3.187   0.242 -0.0262 -1.2161  0.2662
16829TIP3    H271903   3.898   3.108   0.179  1.2396 -1.9737 -1.1048
16830TIP3   OH271904   2.191   4.982   0.938  0.3424 -0.2467 -0.1441
16830TIP3    H171905   2.240   5.060   0.912  0.1278 -0.1595 -0.2945
16830TIP3    H271906   2.160   5.001   1.026  1.5495 -0.7697  0.4147
16831TIP3   OH271907   0.617   4.493  16.923  0.2407  0.0019 -0.0619
16831TIP3    H171908   0.564   4.415  16.937  0.2635  0.0134  0.0932
16831TIP3    H271909   0.618   4.505  16.828 -1.4618  0.9760 -0.0149
16832TIP3   OH271910   5.318   6.342  14.726  0.1572 -0.3982  0.2728
16832TIP3    H171911   5.341   6.258  14.765 -0.0768 -0.1481  0.9590
16832TIP3    H271912   5.223   6.341  14.719  0.2614 -1.0491 -1.7061
16833TIP3   OH271913   4.354   0.802   1.906  0.1592  0.6921  0.3296
16833TIP3    H171914   4.298   0.747   1.960  0.6464 -0.9716 -0.7987
16833TIP3    H271915   4.433   0.815   1.958 -0.4673  1.4387  1.1267
16834TIP3   OH271916   0.657   3.327  14.168 -0.2304 -0.3096 -0.1995
16834TIP3    H171917   0.593   3.377  14.219  1.7614 -0.2890  2.5106
16834TIP3    H271918   0.624   3.237  14.170  0.5885 -0.6512  2.7594
16835TIP3   OH271919   5.943   5.068  17.300 -0.3841  0.2637  0.1766
16835TIP3    H171920   5.912   4.990  17.345  0.3363 -0.6505 -0.8411
16835TIP3    H271921   5.863   5.108  17.264 -0.6524 -0.6987 -0.3409
16836TIP3   OH271922   6.455   5.683   3.004  0.2857 -0.2222 -0.2190
16836TIP3    H171923   6.383   5.743   3.022  1.0543  1.1111 -1.4043
16836TIP3    H271924   6.464   5.683   2.909  0.8474 -1.6025 -0.1967
16837TIP3   OH271925   0.970   0.167  14.022  0.2333  0.4037  0.0292
16837TIP3    H171926   0.972   0.071  14.030  1.1338  0.1950 -1.9541
16837TIP3    H271927   0.993   0.199  14.109 -0.0994 -1.1806  0.7380
16838TIP3   OH271928   2.191   1.103   5.167  0.3304  0.1862  0.1794
16838TIP3    H171929   2.246   1.115   5.245  1.5454 -3.6458  0.1609
16838TIP3    H271930   2.102   1.119   5.197  0.8328 -0.5536  2.2348
16839TIP3   OH271931   3.232   5.976  11.220  0.3483  0.0549  0.0839
16839TIP3    H171932   3.234   5.915  11.146  1.8392  0.1364  0.0162
16839TIP3    H271933   3.321   5.972  11.256 -0.3153  0.0974  1.8162
16840TIP3   OH271934   1.328   5.516  11.953 -0.7242 -0.5993  0.1158
16840TIP3    H171935   1.236   5.529  11.932 -0.3767  0.2040 -1.0403
16840TIP3    H271936   1.375   5.565  11.885  0.5341  0.4867  1.7085
16841TIP3   OH271937   2.816   6.257  14.892  0.3725 -0.0393 -0.6329
16841TIP3    H171938   2.813   6.196  14.965  2.4526  0.7996  0.2432
16841TIP3    H271939   2.730   6.299  14.891  0.0818 -0.5490  0.9124
16842TIP3   OH271940   6.682   2.819  11.661  0.2092  0.3913 -0.3701
16842TIP3    H171941   6.687   2.844  11.569  1.4818 -0.6285 -0.6002
16842TIP3    H271942   6.617   2.749  11.663 -1.9942  2.3300 -0.0009
16843TIP3   OH271943   0.633   5.696  16.483  0.5054  0.7477 -0.1846
16843TIP3    H171944   0.629   5.791  16.485 -1.5772  0.6962  0.2428
16843TIP3    H271945   0.554   5.669  16.437  0.6376 -0.8011  0.4147
16844TIP3   OH271946   0.721   4.230  12.894 -0.5126  0.1803  0.1982
16844TIP3    H171947   0.681   4.180  12.823 -0.0507  0.0540  0.0198
16844TIP3    H271948   0.738   4.316  12.856  2.5486 -0.7472 -0.8994
16845TIP3   OH271949   4.353   4.829   2.364 -0.3150 -0.4848  0.0358
16845TIP3    H171950   4.309   4.879   2.295  0.3561 -1.5108 -1.1547
16845TIP3    H271951   4.336   4.880   2.444 -0.6593  1.0002 -0.9444
16846TIP3   OH271952   2.765   1.303   2.750  0.2982  0.1333  0.0210
16846TIP3    H171953   2.696   1.243   2.723 -0.4300  1.4299 -1.1961
16846TIP3    H271954   2.826   1.250   2.800 -1.6258 -1.0565  1.2609
16847TIP3   OH271955   0.295   4.731   3.068 -0.3334  0.5872  0.1339
16847TIP3    H171956   0.390   4.737   3.074 -0.2850  1.2741 -1.0650
16847TIP3    H271957   0.278   4.691   2.983 -1.1229  1.3132 -0.0642
16848TIP3   OH271958   4.574   2.518  16.379  0.5053 -0.2250 -0.2734
16848TIP3    H171959   4.593   2.518  16.473  0.6881 -1.5032 -0.2901
16848TIP3    H271960   4.601   2.604  16.349  1.0122 -0.0149  0.7420
16849TIP3   OH271961   4.213   1.263   4.711 -0.5206  0.0237  0.9562
16849TIP3    H171962   4.245   1.333   4.655 -0.2602 -0.2858  0.7133
16849TIP3    H271963   4.290   1.208   4.727 -0.8367 -0.5128  0.6814
16850TIP3   OH271964   4.377   3.296   4.690  0.1837  0.6996  0.1528
16850TIP3    H171965   4.296   3.264   4.651  1.3989 -2.0253 -0.3373
16850TIP3    H271966   4.382   3.387   4.663 -2.0437  0.5819 -0.8864
16851TIP3   OH271967   3.305   0.657  16.548  0.3334 -0.0149 -0.1172
16851TIP3    H171968   3.400   0.660  16.539  0.5077  0.4792  1.4781
16851TIP3    H271969   3.274   0.742  16.516  0.3953 -0.2758 -0.8789
16852TIP3   OH271970   5.536   1.310   3.675 -0.3159 -0.2232 -0.4711
16852TIP3    H171971   5.617   1.282   3.633  0.4848  0.8856  0.2640
16852TIP3    H271972   5.563   1.382   3.732 -1.6062 -0.6877  0.7839
16853TIP3   OH271973   1.461   4.528   3.337 -0.1856 -0.0473  0.6712
16853TIP3    H171974   1.441   4.618   3.310 -0.3331 -0.4747 -0.7045
16853TIP3    H271975   1.542   4.536   3.387  0.6334  0.6819 -0.7064
16854TIP3   OH271976   5.698   0.558   1.846 -0.3805 -0.0541  0.3050
16854TIP3    H171977   5.779   0.562   1.795 -0.5283 -0.1382  0.0599
16854TIP3    H271978   5.663   0.647   1.843 -0.1210  0.0639  0.7039
16855TIP3   OH271979   1.613   6.114  11.633  0.1888  0.2105  0.6711
16855TIP3    H171980   1.535   6.154  11.672 -0.3639 -0.4394  0.2570
16855TIP3    H271981   1.578   6.049  11.572  1.0223  1.2239 -0.9413
16856TIP3   OH271982   0.881   0.253  12.104 -0.5993 -0.9026  0.8673
16856TIP3    H171983   0.832   0.230  12.183  0.6499 -0.2898  1.8514
16856TIP3    H271984   0.915   0.341  12.121 -0.2832 -0.7684 -0.3413
16857TIP3   OH271985   0.171   2.699  10.598  0.2812  0.2761 -0.2621
16857TIP3    H171986   0.253   2.721  10.641  0.7906  0.0417 -1.0934
16857TIP3    H271987   0.192   2.624  10.543 -0.8960 -0.8950  0.8172
16858TIP3   OH271988   1.916   4.845  12.628 -0.4341  0.6394 -0.1580
16858TIP3    H171989   1.888   4.892  12.550 -0.3735  0.6983 -0.1446
16858TIP3    H271990   1.845   4.784  12.647  0.1107 -0.2797 -1.0081
16859TIP3   OH271991   1.293   2.348   2.701 -0.4181 -0.1878 -0.1046
16859TIP3    H171992   1.341   2.275   2.663 -1.3160  0.1590 -2.0529
16859TIP3    H271993   1.235   2.377   2.630 -0.1910  2.3167  0.6670
16860TIP3   OH271994   5.073   1.932   1.882  0.1037  0.3737  0.1136
16860TIP3    H171995   5.050   2.025   1.886 -0.1710  0.3054  0.1534
16860TIP3    H271996   5.066   1.902   1.972 -3.0158 -0.4361 -0.2801
16861TIP3   OH271997   1.147   4.129   4.679  0.0609 -0.0517  0.4692
16861TIP3    H171998   1.190   4.062   4.732  1.0876 -1.9921 -2.5882
16861TIP3    H271999   1.071   4.084   4.641 -0.3781  1.1264 -0.0965
16862TIP3   OH272000   3.929   2.263   3.953  0.2038 -0.2034 -0.3989
16862TIP3    H172001   3.906   2.187   3.899  0.9269 -1.5712  1.1196
16862TIP3    H272002   3.846   2.301   3.978 -0.2228 -1.1993 -0.2532
16863TIP3   OH272003   3.855   1.480   1.008 -0.0614 -0.3938  0.6396
16863TIP3    H172004   3.790   1.475   0.938 -0.3965  2.9204  0.5391
16863TIP3    H272005   3.803   1.498   1.087  0.3887 -3.1422  1.6423
16864TIP3   OH272006   5.831   0.299  14.342 -0.1206 -0.4236 -0.2923
16864TIP3    H172007   5.783   0.381  14.331 -0.7728 -0.1585  3.2452
16864TIP3    H272008   5.863   0.278  14.254 -2.3430  2.0783 -1.8623
16865TIP3   OH272009   4.781   1.160   5.796 -0.0809  0.0723  0.0360
16865TIP3    H172010   4.788   1.099   5.722 -0.5704 -0.6747  0.5878
16865TIP3    H272011   4.754   1.243   5.756 -0.4100 -0.3428 -0.6200
16866TIP3   OH272012   4.009   0.012  11.885 -0.0066  0.1377  0.2622
16866TIP3    H172013   4.062  -0.033  11.951  0.4285 -0.0107 -0.1800
16866TIP3    H272014   3.922  -0.028  11.893  0.5406 -1.3340 -0.6013
16867TIP3   OH272015   1.241   2.688  12.483  0.0550 -0.0882 -0.3850
16867TIP3    H172016   1.226   2.595  12.496  0.0098 -0.1433 -0.8100
16867TIP3    H272017   1.209   2.705  12.394  0.3956  0.2559 -0.4456
16868TIP3   OH272018   5.317   1.530   3.683 -0.2101  0.0693  0.4101
16868TIP3    H172019   5.344   1.461   3.743 -2.9743 -1.2198  0.3127
16868TIP3    H272020   5.326   1.492   3.596  0.3385  0.6235  0.2218
16869TIP3   OH272021   5.530   4.890  10.722 -0.0171  0.8183 -0.4866
16869TIP3    H172022   5.479   4.837  10.784  0.9218  0.0011 -0.3837
16869TIP3    H272023   5.611   4.911  10.769  0.0318  1.5331 -0.8817
16870TIP3   OH272024   3.708   1.413   1.667  0.5045 -0.2570  0.7497
16870TIP3    H172025   3.777   1.351   1.691 -0.7464 -2.2868 -0.5749
16870TIP3    H272026   3.627   1.370   1.695 -0.3885  1.0315  0.2269
16871TIP3   OH272027   5.235   0.417  13.272  0.0956 -0.2015  0.2007
16871TIP3    H172028   5.292   0.493  13.272  0.4252 -0.4247 -0.8742
16871TIP3    H272029   5.294   0.342  13.267 -0.2603 -0.4708 -0.0762
16872TIP3   OH272030   4.858   5.926   3.660 -0.6775 -0.4921  0.5713
16872TIP3    H172031   4.787   5.955   3.602 -0.5694 -0.3731  0.4967
16872TIP3    H272032   4.855   5.987   3.733  0.9946  1.1644 -0.6527
16873TIP3   OH272033   2.523   4.084   4.718  0.4529 -0.4420  0.0654
16873TIP3    H172034   2.573   4.003   4.711  2.0921  0.4779  0.4535
16873TIP3    H272035   2.444   4.068   4.667  0.4504 -2.4767  0.6195
16874TIP3   OH272036   5.445   4.090   2.311  0.0117  0.2309 -0.0730
16874TIP3    H172037   5.471   4.147   2.239  0.3695 -1.3096 -1.2168
16874TIP3    H272038   5.397   4.147   2.371  1.2335  1.9468 -0.6470
16875TIP3   OH272039   5.408   3.150  13.291 -0.0803  0.1811  0.1176
16875TIP3    H172040   5.420   3.055  13.283  0.9701  0.2919  0.1805
16875TIP3    H272041   5.394   3.165  13.384 -3.0210 -0.1621 -0.1729
16876TIP3   OH272042   1.445   1.999  13.336 -0.0828  0.5575 -0.2374
16876TIP3    H172043   1.429   2.028  13.246  0.2017  0.4074 -0.3351
16876TIP3    H272044   1.358   1.987  13.373 -0.1973  0.0194 -0.6812
16877TIP3   OH272045   4.973   6.234   3.947  0.2839 -0.2734  0.4319
16877TIP3    H172046   4.928   6.160   3.988 -1.1121  0.1853 -0.1983
16877TIP3    H272047   4.996   6.291   4.020 -0.3497 -0.4289  0.7626
16878TIP3   OH272048   2.883   4.908   4.579  0.2315  0.3011  0.0783
16878TIP3    H172049   2.808   4.944   4.532 -0.2697  0.6049  1.0815
16878TIP3    H272050   2.946   4.980   4.582 -0.2222  0.6797  0.8973
16879TIP3   OH272051   1.770   3.392  15.927 -0.5371 -0.2308  0.6329
16879TIP3    H172052   1.863   3.379  15.944 -0.0025 -1.0540 -2.2646
16879TIP3    H272053   1.727   3.317  15.968 -0.1520  0.8058  3.0830
16880TIP3   OH272054   4.437   2.820   2.253 -0.2210  0.1890  0.3990
16880TIP3    H172055   4.397   2.874   2.185 -0.1690  0.8349  0.8668
16880TIP3    H272056   4.525   2.802   2.222 -0.5171 -0.3431 -0.1485
16881TIP3   OH272057   0.652   2.476   3.225  0.2430 -0.1906 -0.7875
16881TIP3    H172058   0.610   2.394   3.199  0.7091 -0.6548 -0.1296
16881TIP3    H272059   0.744   2.452   3.238  0.2447  0.2644  0.1405
16882TIP3   OH272060   2.312   4.626  15.299  0.1808  0.2914 -0.3339
16882TIP3    H172061   2.232   4.609  15.250  0.4827  0.8990 -1.0583
16882TIP3    H272062   2.286   4.687  15.368  0.2216  1.3720 -1.2479
16883TIP3   OH272063   0.841   0.464   4.538 -0.1142  0.1045 -0.5488
16883TIP3    H172064   0.840   0.500   4.449  2.1010 -0.3298 -0.8019
16883TIP3    H272065   0.910   0.513   4.583  0.9141 -1.7328 -0.0301
16884TIP3   OH272066   0.163   2.124   3.179 -0.9941 -0.2634  0.0055
16884TIP3    H172067   0.086   2.093   3.227 -1.1983  0.0957 -0.0909
16884TIP3    H272068   0.127   2.179   3.109 -0.6028  0.7993  0.6176
16885TIP3   OH272069   5.174   4.771   2.702  0.0133  0.1133  0.7998
16885TIP3    H172070   5.162   4.847   2.644  1.7849  0.6227  1.0351
16885TIP3    H272071   5.143   4.802   2.787 -1.5056 -0.2539  0.4140
16886TIP3   OH272072   2.083   6.290   0.249  0.1019 -0.3169 -0.2284
16886TIP3    H172073   2.112   6.354   0.184  1.7228 -0.4309  0.3433
16886TIP3    H272074   2.075   6.208   0.200 -1.1918  0.1278 -0.7923
16887TIP3   OH272075   1.347   0.194  17.132  0.5301  0.5465 -0.0806
16887TIP3    H172076   1.256   0.203  17.105 -0.0526 -2.8521  0.3825
16887TIP3    H272077   1.396   0.190  17.050  0.1037  0.9356 -0.3648
16888TIP3   OH272078   3.991   4.693  10.727 -0.3936 -0.0615 -0.6943
16888TIP3    H172079   4.078   4.723  10.752 -1.1473  0.7044  1.1822
16888TIP3    H272080   3.940   4.774  10.719 -1.3185 -0.5739 -0.1274
16889TIP3   OH272081   3.003   4.230   3.767  0.2633 -0.3955 -0.1211
16889TIP3    H172082   2.995   4.211   3.861  0.6168 -0.9355 -0.2011
16889TIP3    H272083   2.917   4.266   3.744  0.1750 -0.2423  0.4089
16890TIP3   OH272084   1.318   3.656   3.794  0.6731 -0.5429 -0.1215
16890TIP3    H172085   1.394   3.615   3.836 -1.1232 -2.4962  1.4844
16890TIP3    H272086   1.279   3.585   3.741  0.5160  0.7118 -1.7646
16891TIP3   OH272087   5.286   3.020   0.543  0.2706  0.1570 -0.3873
16891TIP3    H172088   5.237   2.939   0.555 -1.7575  1.4945  0.9826
16891TIP3    H272089   5.274   3.043   0.451  1.0827 -1.1789 -0.8528
16892TIP3   OH272090   5.853   2.802   2.955  0.2857 -0.1609  0.2665
16892TIP3    H172091   5.871   2.890   2.923  1.9008 -0.8352 -0.8034
16892TIP3    H272092   5.762   2.786   2.931 -0.1471  1.3317  0.8124
16893TIP3   OH272093   1.133   4.788  13.084 -0.8028  0.0817 -0.3207
16893TIP3    H172094   1.077   4.720  13.121 -0.1160 -0.6043 -0.5222
16893TIP3    H272095   1.075   4.840  13.029 -1.2722 -0.5401 -0.4226
16894TIP3   OH272096   2.139   0.290   1.068  0.4546 -0.1441 -0.1248
16894TIP3    H172097   2.207   0.225   1.083  0.2243  0.0087  1.8890
16894TIP3    H272098   2.177   0.372   1.099 -0.0377  0.2738 -0.5939
16895TIP3   OH272099   2.101   3.681  11.256 -0.1096  0.2834 -0.4405
16895TIP3    H172100   2.040   3.658  11.185  0.7239 -2.6207 -0.3145
16895TIP3    H272101   2.180   3.710  11.211 -0.4501  0.9663 -0.6236
16896TIP3   OH272102   2.974   5.496   6.358 -0.0799 -0.4836 -0.1951
16896TIP3    H172103   2.887   5.522   6.386 -0.4433  0.7168 -2.2459
16896TIP3    H272104   3.026   5.577   6.361  0.7225 -0.9959  0.1183
16897TIP3   OH272105   6.754   2.120   2.628 -0.4767 -0.5781 -0.4472
16897TIP3    H172106   6.695   2.196   2.627  0.3500  0.0854 -0.1562
16897TIP3    H272107   6.775   2.108   2.721 -0.2306 -0.8676 -0.5406
16898TIP3   OH272108   5.135   3.184   5.353 -0.1173 -0.1212 -0.0012
16898TIP3    H172109   5.119   3.171   5.447  1.2340 -0.9067  0.1567
16898TIP3    H272110   5.231   3.181   5.345 -0.1892 -3.5428 -1.8146
16899TIP3   OH272111   5.698   0.892   3.007  0.4148 -0.0651  0.9859
16899TIP3    H172112   5.780   0.940   3.022  0.5800  0.2224 -0.6410
16899TIP3    H272113   5.652   0.943   2.941 -0.2390 -1.2002  0.5329
16900TIP3   OH272114   4.715   6.458   1.949  0.0156 -0.3945  0.3978
16900TIP3    H172115   4.784   6.437   1.886 -0.6270  0.8272 -0.7713
16900TIP3    H272116   4.633   6.443   1.902 -0.4984 -0.1876  1.1933
16901TIP3   OH272117   2.355   4.463   2.811  0.2128  0.0461 -0.5247
16901TIP3    H172118   2.314   4.491   2.893 -0.7056  0.0160 -0.9488
16901TIP3    H272119   2.382   4.372   2.827 -1.1119 -0.3975 -0.6268
16902TIP3   OH272120   0.540   2.872  11.305 -0.6756 -0.9636  0.2830
16902TIP3    H172121   0.560   2.961  11.275 -1.8859  0.2667  2.8599
16902TIP3    H272122   0.540   2.820  11.224  2.8397  0.7310 -1.0267
16903TIP3   OH272123   3.750   0.584  11.126 -0.6774 -0.0359 -0.2672
16903TIP3    H172124   3.788   0.498  11.111  0.2233 -0.1895  2.3487
16903TIP3    H272125   3.710   0.608  11.042  1.6918 -1.6364 -1.9818
16904TIP3   OH272126   4.762   5.494   3.983 -0.0140 -0.6119  0.2762
16904TIP3    H172127   4.840   5.545   3.963 -0.3426  0.3629  1.3760
16904TIP3    H272128   4.724   5.472   3.898  0.8292 -0.1111 -0.2383
16905TIP3   OH272129   6.592   1.072  11.923  0.1723  0.2637 -0.5517
16905TIP3    H172130   6.608   1.163  11.897 -0.0102  0.1988 -0.9075
16905TIP3    H272131   6.672   1.046  11.969 -0.4632  1.1640  1.1731
16906TIP3   OH272132   4.432   5.957   3.124  0.7115 -0.4434 -0.0345
16906TIP3    H172133   4.378   5.966   3.203  0.0014  0.8087 -0.6304
16906TIP3    H272134   4.375   5.914   3.061  1.3662 -1.6806  0.1826
16907TIP3   OH272135   3.314   1.752  10.850  0.0868 -0.0447  0.3480
16907TIP3    H172136   3.379   1.782  10.787 -0.9701  3.7477  0.7821
16907TIP3    H272137   3.234   1.739  10.798 -0.0909  0.4403  0.4880
16908TIP3   OH272138   0.673   1.423   5.660 -0.7636  0.1289 -0.2041
16908TIP3    H172139   0.728   1.433   5.738 -0.6844 -2.7344  0.2183
16908TIP3    H272140   0.734   1.430   5.586 -0.4193  0.4092  0.1074
16909TIP3   OH272141   3.564   1.061   3.076 -0.3110 -0.7503  0.3962
16909TIP3    H172142   3.566   1.049   2.982  0.8175  0.6791  0.1967
16909TIP3    H272143   3.604   0.982   3.112  0.7304 -0.6131 -0.4241
16910TIP3   OH272144   0.560   5.100   1.249  0.3936  0.0238  0.2171
16910TIP3    H172145   0.575   5.030   1.185 -0.3022 -1.1052  1.2449
16910TIP3    H272146   0.648   5.127   1.276  0.6704 -0.5070 -0.1383
16911TIP3   OH272147   5.415   4.430  11.145  0.0909  0.1201 -0.2147
16911TIP3    H172148   5.356   4.505  11.151  2.0604  1.7433  0.2625
16911TIP3    H272149   5.491   4.463  11.097  0.7764 -1.7664 -0.5230
16912TIP3   OH272150   5.394   5.746  11.255 -0.1492  0.3449 -0.3884
16912TIP3    H172151   5.455   5.682  11.220  0.9095  0.3030  1.4093
16912TIP3    H272152   5.449   5.821  11.280 -1.1299  1.2214 -0.7670
16913TIP3   OH272153   3.507   6.439  13.935  0.6072  0.0057  0.1669
16913TIP3    H172154   3.467   6.377  13.874 -0.5714  0.5053  0.4050
16913TIP3    H272155   3.433   6.484  13.975  1.4387  1.5057  0.0742
16914TIP3   OH272156   1.170   1.188   4.605 -0.2205  0.0923 -0.0907
16914TIP3    H172157   1.211   1.270   4.576 -1.1252  1.0614  1.2487
16914TIP3    H272158   1.079   1.212   4.623 -0.6058 -1.3104 -0.0575
16915TIP3   OH272159   0.325   5.778  14.935 -0.1807  0.0067  0.0598
16915TIP3    H172160   0.361   5.765  14.848  0.7985 -0.3165  0.4929
16915TIP3    H272161   0.399   5.810  14.987 -0.7887  0.3518  0.7320
16916TIP3   OH272162   6.020   3.171  12.339 -0.1637  0.4210  0.2998
16916TIP3    H172163   6.017   3.083  12.301  1.1245 -0.4751  2.1172
16916TIP3    H272164   6.112   3.194  12.338 -0.3402  1.2082  1.0202
16917TIP3   OH272165   5.757   2.356   1.560 -0.5233 -0.2396 -0.3006
16917TIP3    H172166   5.671   2.388   1.532 -0.1974  1.7465  0.8150
16917TIP3    H272167   5.818   2.388   1.493  0.0373  3.1858  1.6066
16918TIP3   OH272168   2.656   2.741  11.705  0.2895  0.0406  0.3628
16918TIP3    H172169   2.619   2.660  11.671 -0.7325  0.2950  0.8250
16918TIP3    H272170   2.603   2.810  11.667 -0.3381  0.3744  1.7706
16919TIP3   OH272171   4.030   4.294   4.548  0.4499 -0.1320 -0.2311
16919TIP3    H172172   3.946   4.254   4.570  0.1639 -0.7632 -2.2398
16919TIP3    H272173   4.007   4.381   4.516  0.9711  1.3208  2.9519
16920TIP3   OH272174   2.181   6.603  11.563 -0.0465 -0.5585 -0.3526
16920TIP3    H172175   2.228   6.557  11.493  0.2240  0.2842 -0.7454
16920TIP3    H272176   2.250   6.650  11.610 -0.3461 -0.3586 -0.1160
16921TIP3   OH272177   0.749   2.054  11.967  0.3349 -0.2017  0.1353
16921TIP3    H172178   0.685   2.101  12.021  0.6778 -0.4941  0.8098
16921TIP3    H272179   0.710   2.053  11.880 -0.1795  0.3815  0.3482
16922TIP3   OH272180   6.658   6.707   6.056 -0.3623 -0.2452 -0.0411
16922TIP3    H172181   6.653   6.639   6.124  1.0918  1.8615  2.3786
16922TIP3    H272182   6.567   6.733   6.041 -0.7196 -0.4265  1.5659
16923TIP3   OH272183   0.013   3.610  14.975  0.8173  0.1410  0.3887
16923TIP3    H172184   0.083   3.647  15.028  0.5614 -1.1006  1.6589
16923TIP3    H272185  -0.067   3.652  15.007  0.9553  1.6347 -1.1310
16924TIP3   OH272186   1.890   1.193  10.834  0.1428 -0.0394 -0.1890
16924TIP3    H172187   1.955   1.206  10.903 -0.1513  1.4324 -0.1585
16924TIP3    H272188   1.806   1.191  10.880 -0.1213  1.6486 -0.5114
16925TIP3   OH272189   4.754   4.870   2.555  0.7870 -0.1652  0.8446
16925TIP3    H172190   4.717   4.829   2.477  1.0595  1.8508 -0.4278
16925TIP3    H272191   4.817   4.807   2.588  0.5890 -1.1185 -0.5122
16926TIP3   OH272192   5.186   4.059  16.518 -0.3639  0.4428 -0.0687
16926TIP3    H172193   5.258   4.009  16.480 -0.0014  1.6204 -0.9888
16926TIP3    H272194   5.213   4.151  16.508 -2.8081  1.0435 -2.2342
16927TIP3   OH272195   6.108   0.172  12.606 -0.0782  0.5679  0.3869
16927TIP3    H172196   6.124   0.078  12.615  1.3792  0.9250  2.1143
16927TIP3    H272197   6.027   0.187  12.654 -0.3776  0.1884  0.0090
16928TIP3   OH272198   3.493   1.894  16.131 -0.4811  0.4315 -0.7683
16928TIP3    H172199   3.558   1.938  16.185 -0.3809 -0.9224  0.2741
16928TIP3    H272200   3.415   1.890  16.187  0.1303 -2.5355  0.0915
16929TIP3   OH272201   2.942   4.061  14.301 -0.2271 -0.3937  0.0387
16929TIP3    H172202   2.973   4.101  14.382  0.0191 -0.7601  0.1322
16929TIP3    H272203   2.999   4.096  14.233  0.4683 -1.1324  0.2224
16930TIP3   OH272204   5.756   1.410   1.982  0.0653 -0.4039 -0.2735
16930TIP3    H172205   5.751   1.505   1.992 -2.3200 -0.0927 -3.0294
16930TIP3    H272206   5.708   1.376   2.057  0.0416  0.6065  0.1918
16931TIP3   OH272207   2.510   5.266   5.612  0.7862  0.2497  0.2495
16931TIP3    H172208   2.597   5.305   5.599  1.3048 -1.0142 -0.2561
16931TIP3    H272209   2.528   5.179   5.646  0.0232 -1.9190 -4.1218
16932TIP3   OH272210   2.651   6.060   5.668 -0.1173 -0.1343  0.3288
16932TIP3    H172211   2.697   6.112   5.734  0.1704  0.0378 -0.0073
16932TIP3    H272212   2.703   5.980   5.660  1.3333  0.9096 -1.5448
16933TIP3   OH272213   1.008   3.851  12.441  0.1834  0.2331 -0.4012
16933TIP3    H172214   1.002   3.777  12.501 -0.6273  0.2825 -0.4037
16933TIP3    H272215   0.974   3.925  12.491  1.0412  0.6226 -0.3799
16934TIP3   OH272216   3.171   0.093  13.996  0.0839 -0.2609  0.4145
16934TIP3    H172217   3.160   0.099  13.901  1.1684 -1.0425  0.2189
16934TIP3    H272218   3.201   0.004  14.011 -0.7661 -0.3738  1.5819
16935TIP3   OH272219   5.636   3.505  12.024 -0.2711  0.1494  0.4145
16935TIP3    H172220   5.608   3.511  11.933  2.3331  0.0660 -0.4948
16935TIP3    H272221   5.695   3.430  12.026 -0.7333 -0.2180  2.3393
16936TIP3   OH272222   6.483   2.232   2.113  0.2845  0.1536  0.0720
16936TIP3    H172223   6.403   2.241   2.164  0.0184  1.3661 -0.5169
16936TIP3    H272224   6.497   2.138   2.106 -1.4115 -0.1032 -0.3037
16937TIP3   OH272225   1.451   6.373  14.751  0.5824 -0.8207 -0.1354
16937TIP3    H172226   1.359   6.395  14.763  0.9774  1.9449 -1.4939
16937TIP3    H272227   1.449   6.295  14.694 -0.8870 -0.8800 -0.0440
16938TIP3   OH272228   5.880   3.452  12.616 -1.0932  0.2184 -0.0573
16938TIP3    H172229   5.832   3.394  12.675  2.1805 -1.2662  1.3843
16938TIP3    H272230   5.866   3.415  12.529 -1.5585 -0.8632  0.4656
16939TIP3   OH272231   0.699   4.061  12.057 -0.5637  0.2095  0.0355
16939TIP3    H172232   0.649   3.982  12.039 -1.0760 -0.5618  3.9193
16939TIP3    H272233   0.790   4.032  12.064 -0.6236  0.1123  0.4732
16940TIP3   OH272234   0.881   5.145  17.085  0.1327  0.3353 -0.1622
16940TIP3    H172235   0.968   5.136  17.123  0.0758 -1.4457 -0.3700
16940TIP3    H272236   0.823   5.160  17.160  0.1140 -2.4729  0.4825
16941TIP3   OH272237   1.799   1.967  15.001  0.2181  0.8188 -1.0944
16941TIP3    H172238   1.730   2.032  15.014 -0.5821  0.0945 -1.5267
16941TIP3    H272239   1.772   1.920  14.922  0.1143 -0.7998 -0.1590
16942TIP3   OH272240   6.491   1.975  17.203  0.1422  0.1225  0.1722
16942TIP3    H172241   6.584   1.996  17.211  0.3107 -0.7967  0.8837
16942TIP3    H272242   6.446   2.053  17.236  0.6395  0.7071 -0.4905
16943TIP3   OH272243   3.172   2.037   5.958  0.5038 -0.2171 -0.3429
16943TIP3    H172244   3.106   2.106   5.968  0.4852 -0.3495  0.6186
16943TIP3    H272245   3.124   1.963   5.921  0.1542 -0.2287  0.1138
16944TIP3   OH272246   0.936   1.618  14.367  0.0835 -0.3238 -0.3686
16944TIP3    H172247   0.975   1.621  14.280  0.9025  1.7479  0.0069
16944TIP3    H272248   0.994   1.672  14.421 -1.9318  0.8297  0.7856
16945TIP3   OH272249   3.612   5.397  13.739  0.4084  0.1840 -0.2999
16945TIP3    H172250   3.558   5.346  13.801 -1.0656  1.6563 -0.3085
16945TIP3    H272251   3.684   5.338  13.717  1.7335 -0.0715  3.7242
16946TIP3   OH272252   5.816   0.888   2.658  0.5163 -0.2092 -0.1903
16946TIP3    H172253   5.773   0.874   2.573  3.0743  0.5950 -1.7504
16946TIP3    H272254   5.874   0.812   2.668  0.9313  0.1721  0.3394
16947TIP3   OH272255   4.870   6.620   6.528 -0.8767  0.0781  0.0608
16947TIP3    H172256   4.805   6.671   6.576 -0.4777 -0.6444  1.4095
16947TIP3    H272257   4.838   6.619   6.438 -3.0164 -0.7096  0.7878
16948TIP3   OH272258   2.031   0.700  15.480  0.0632 -0.0050  0.3823
16948TIP3    H172259   1.945   0.682  15.519  0.0500  1.1760  0.9367
16948TIP3    H272260   2.014   0.768  15.414  0.9104  2.2319  2.3303
16949TIP3   OH272261   1.088   4.216   6.625 -0.2186  0.3845  0.0093
16949TIP3    H172262   1.008   4.263   6.650 -0.7176  1.1588 -2.7252
16949TIP3    H272263   1.078   4.200   6.531  1.8413 -1.5536  0.0387
16950TIP3   OH272264   4.584   6.433  12.183 -0.0100 -0.0194 -0.2021
16950TIP3    H172265   4.605   6.443  12.276 -0.4048 -1.3962  0.0671
16950TIP3    H272266   4.648   6.487  12.137 -0.4574  1.5067  0.9083
16951TIP3   OH272267   3.874   5.089  15.640  0.4996 -0.0398 -0.1036
16951TIP3    H172268   3.936   5.162  15.637  0.2334  0.1627 -0.9805
16951TIP3    H272269   3.917   5.019  15.590 -0.2497  0.3296 -1.3010
16952TIP3   OH272270   6.086   4.777  14.597  0.2580  0.0511 -0.3247
16952TIP3    H172271   6.078   4.840  14.524  0.7123  2.1537  1.3413
16952TIP3    H272272   6.180   4.761  14.604  0.1521 -0.7846 -0.6652
16953TIP3   OH272273   3.348   2.425  11.616  0.2535 -0.1783 -0.2090
16953TIP3    H172274   3.395   2.357  11.569 -0.9566 -1.5870  0.5273
16953TIP3    H272275   3.415   2.471  11.667  0.9765 -1.4444  0.0097
16954TIP3   OH272276   4.702   5.471  15.623  0.6080  0.1744 -0.5709
16954TIP3    H172277   4.773   5.519  15.581  2.0861 -0.2847  1.2326
16954TIP3    H272278   4.743   5.389  15.652 -1.1098 -0.8803 -0.9935
16955TIP3   OH272279   5.626   3.014   0.301  0.2034  0.0860 -0.0867
16955TIP3    H172280   5.667   2.928   0.296 -0.3725 -0.1360 -1.6794
16955TIP3    H272281   5.533   2.997   0.291 -0.2486  0.6760  2.4670
16956TIP3   OH272282   0.815   0.813  17.015 -0.3333  0.6686  0.6664
16956TIP3    H172283   0.895   0.795  17.065 -0.0299  0.1770  0.0188
16956TIP3    H272284   0.809   0.741  16.952 -0.7624  1.2249  0.0592
16957TIP3   OH272285   6.254   0.140  14.348 -0.2622  0.1652 -0.4885
16957TIP3    H172286   6.216   0.201  14.412 -0.4475  0.9200 -1.3080
16957TIP3    H272287   6.222   0.054  14.376 -0.9585  0.5718 -0.0073
16958TIP3   OH272288   4.380   2.193  14.784 -0.3067  0.5381  0.0016
16958TIP3    H172289   4.338   2.274  14.756 -0.1833 -0.2664 -2.7411
16958TIP3    H272290   4.347   2.127  14.724  0.9083 -1.1265  1.0903
16959TIP3   OH272291   0.247   5.508  15.436  0.0517 -0.1901  0.0654
16959TIP3    H172292   0.253   5.421  15.475 -0.3738  0.1219  0.8599
16959TIP3    H272293   0.162   5.541  15.465 -0.3213  0.0259 -1.2192
16960TIP3   OH272294   4.856   3.154   1.313 -0.4226 -0.1727  0.2597
16960TIP3    H172295   4.926   3.099   1.277 -1.8376 -2.3459  0.6417
16960TIP3    H272296   4.858   3.137   1.408 -2.2038 -1.2407  0.1485
16961TIP3   OH272297   6.304   0.600   1.563  0.0132 -0.2246  0.2519
16961TIP3    H172298   6.239   0.613   1.632 -1.0447 -2.8110 -0.1664
16961TIP3    H272299   6.386   0.633   1.600 -1.3766  2.8596  0.9019
16962TIP3   OH272300   2.105   0.965   0.833  0.4950  0.2317  0.0332
16962TIP3    H172301   2.164   0.904   0.788  0.2382  0.6970 -0.9412
16962TIP3    H272302   2.083   1.031   0.768  0.0398  0.8751  0.8147
16963TIP3   OH272303   4.014   4.659  12.943  0.4907 -0.3964 -0.2344
16963TIP3    H172304   4.000   4.658  13.038  0.1041 -0.7185 -0.2901
16963TIP3    H272305   4.098   4.704  12.931  0.9732 -1.1217  0.3189
16964TIP3   OH272306   1.998   2.003  11.668  0.6066  0.3815  0.0942
16964TIP3    H172307   2.000   2.052  11.586  0.3217  1.1145  0.5142
16964TIP3    H272308   2.030   1.916  11.645 -0.6005  0.2002 -1.0425
16965TIP3   OH272309   2.299   3.208   0.778 -0.0885 -0.1167 -0.1796
16965TIP3    H172310   2.260   3.125   0.804 -0.5900 -0.5099 -2.0237
16965TIP3    H272311   2.296   3.207   0.682  0.0695  1.9465 -0.2530
16966TIP3   OH272312   5.476   5.156  12.922 -0.2940 -0.2631  0.0818
16966TIP3    H172313   5.409   5.141  12.988 -0.5042 -1.3267 -0.3497
16966TIP3    H272314   5.508   5.068  12.901 -1.6224 -0.1801 -2.6652
16967TIP3   OH272315   5.310   1.654  12.393 -0.2579 -0.3896 -0.6318
16967TIP3    H172316   5.276   1.627  12.308  1.6534  0.2197 -1.6527
16967TIP3    H272317   5.312   1.750  12.388  0.7890 -0.3835 -0.3050
16968TIP3   OH272318   1.647   0.973   0.691 -0.5687 -0.1021 -0.3075
16968TIP3    H172319   1.631   0.911   0.620  0.6321 -0.0771 -0.6281
16968TIP3    H272320   1.741   0.966   0.708 -0.3565  1.7719 -0.5107
16969TIP3   OH272321   2.503   4.700   0.832 -0.4043  0.0724 -0.0800
16969TIP3    H172322   2.578   4.647   0.805 -1.2192 -1.3053  0.2649
16969TIP3    H272323   2.534   4.748   0.909  1.0569  1.8985 -1.7222
16970TIP3   OH272324   4.654   2.152   1.059  0.2124  0.2044  0.3904
16970TIP3    H172325   4.587   2.111   1.004 -1.2476 -0.2991  2.4193
16970TIP3    H272326   4.722   2.085   1.069 -0.0520 -0.1014  0.1305
16971TIP3   OH272327   1.659   4.815  12.476  0.4989  0.2502  0.1737
16971TIP3    H172328   1.638   4.908  12.473 -1.2656  0.0596  2.9775
16971TIP3    H272329   1.592   4.777  12.532  0.8083 -2.8602 -1.3154
16972TIP3   OH272330   2.539   5.759  13.281  0.3991  0.1148 -0.9654
16972TIP3    H172331   2.494   5.837  13.313  1.8077 -0.0317  1.6052
16972TIP3    H272332   2.481   5.686  13.303  0.4155  0.1999 -0.6405
16973TIP3   OH272333   2.523   2.523  14.466 -0.0067 -0.4410 -0.4638
16973TIP3    H172334   2.583   2.511  14.540  0.5223 -0.1618 -0.8513
16973TIP3    H272335   2.506   2.434  14.435  0.7034 -0.4848 -0.7468
16974TIP3   OH272336   1.432   5.324   0.580  0.8492 -0.1049 -0.3850
16974TIP3    H172337   1.368   5.282   0.638  0.8346 -0.5009 -0.6823
16974TIP3    H272338   1.399   5.413   0.568  0.6461 -0.1416 -0.0944
16975TIP3   OH272339   6.200   1.090   5.680 -0.7670  0.6856 -0.2678
16975TIP3    H172340   6.137   1.065   5.613 -0.9342 -0.0561  0.1490
16975TIP3    H272341   6.270   1.026   5.672 -0.5302  0.9194 -0.0894
16976TIP3   OH272342   2.355   1.872   1.012  0.3346 -0.1169  0.0253
16976TIP3    H172343   2.276   1.836   0.972 -0.3686  0.0925  1.1758
16976TIP3    H272344   2.416   1.884   0.939 -0.1180 -1.7690 -0.6520
16977TIP3   OH272345   2.463   4.034  14.438  0.0505  0.0550  0.5648
16977TIP3    H172346   2.514   4.115  14.440  0.8738 -0.4603  0.9816
16977TIP3    H272347   2.505   3.977  14.502  0.5018 -1.3085 -0.8768
16978TIP3   OH272348   4.490   5.903  15.877 -0.2644  0.7239  0.2478
16978TIP3    H172349   4.432   5.930  15.948  0.0385 -0.2287  0.8800
16978TIP3    H272350   4.549   5.840  15.918  0.4124  0.7438 -0.6785
16979TIP3   OH272351   6.699   4.906   0.981  0.1832 -0.1914 -0.0856
16979TIP3    H172352   6.613   4.887   0.942 -0.3682  1.0700  0.4761
16979TIP3    H272353   6.685   4.986   1.032  1.9162  0.5448 -0.7070
16980TIP3   OH272354   1.448   6.360  15.744 -0.3155  0.0017  0.1571
16980TIP3    H172355   1.455   6.370  15.839  2.3686  0.0199  0.0457
16980TIP3    H272356   1.515   6.418  15.708 -1.1787 -0.0959 -1.7618
16981TIP3   OH272357   0.094   4.812  16.584  0.2335 -0.5353  0.0523
16981TIP3    H172358   0.178   4.799  16.540  0.9084  3.0197  0.0199
16981TIP3    H272359   0.035   4.842  16.514  0.2830  1.4967  0.8162
16982TIP3   OH272360   6.522   4.951   5.978 -0.2155 -0.2100 -0.1493
16982TIP3    H172361   6.573   5.005   6.038  1.2514  0.0987 -1.5915
16982TIP3    H272362   6.586   4.919   5.915 -1.3478 -2.2447 -0.3496
16983TIP3   OH272363   4.509   2.869  16.983 -0.5793  0.7224  0.2247
16983TIP3    H172364   4.603   2.888  16.976 -0.3568 -0.5897 -0.7249
16983TIP3    H272365   4.481   2.916  17.062  0.6775  1.8375  0.0421
16984TIP3   OH272366   2.054   4.071  14.962 -0.1329 -0.1547 -0.2065
16984TIP3    H172367   1.966   4.051  14.933 -0.1066  0.1512 -0.4919
16984TIP3    H272368   2.048   4.071  15.058 -0.0073 -2.1473 -0.1538
16985TIP3   OH272369   4.607   3.751  16.704  0.2200 -0.5083 -0.5314
16985TIP3    H172370   4.521   3.729  16.739  0.1494 -1.5204 -1.2734
16985TIP3    H272371   4.666   3.746  16.780 -0.1465 -1.2602 -0.2858
16986TIP3   OH272372   1.371   5.277   5.671  0.7799 -0.0866  0.2744
16986TIP3    H172373   1.396   5.291   5.763 -0.7406  1.0671  0.5444
16986TIP3    H272374   1.299   5.213   5.676 -0.6931  1.4785  0.1118
16987TIP3   OH272375   2.370   5.994  13.158  0.0570  0.3899  0.1230
16987TIP3    H172376   2.465   5.999  13.157  0.2762 -1.8990 -2.3117
16987TIP3    H272377   2.345   5.984  13.067 -2.3681 -0.9430  0.8287
16988TIP3   OH272378   1.650   1.050   3.715 -0.2699  0.3495 -0.1119
16988TIP3    H172379   1.736   1.073   3.750 -0.9538  0.4564  1.5937
16988TIP3    H272380   1.668   0.982   3.650  1.1159  0.5839 -0.0026
16989TIP3   OH272381   3.325   0.429   4.654  0.6253  0.5508  0.2505
16989TIP3    H172382   3.293   0.374   4.583  1.9654  1.9810 -1.5497
16989TIP3    H272383   3.248   0.478   4.684 -0.0792 -0.5318  0.2496
16990TIP3   OH272384   0.618   0.516  12.831  0.7026 -0.3565  0.5529
16990TIP3    H172385   0.633   0.567  12.751 -3.6597 -1.1358 -1.1069
16990TIP3    H272386   0.650   0.428  12.809  0.0848 -0.4170 -0.1797
16991TIP3   OH272387   6.643   4.899   2.934  0.4445 -0.5758 -0.2894
16991TIP3    H172388   6.635   4.960   3.007 -2.4505 -2.6673  1.3544
16991TIP3    H272389   6.628   4.953   2.856  0.9671  1.2657  0.8164
16992TIP3   OH272390   1.421   5.549   4.445  0.4276  0.3111  0.4982
16992TIP3    H172391   1.385   5.480   4.501  0.5554  0.3604  0.6428
16992TIP3    H272392   1.351   5.569   4.383  1.0224 -1.2367 -0.7460
16993TIP3   OH272393   4.205   1.381   5.172  0.3487 -0.2618 -0.0985
16993TIP3    H172394   4.177   1.327   5.098  1.2515 -1.5460  0.4667
16993TIP3    H272395   4.298   1.364   5.181  0.7279  1.5888 -0.0202
16994TIP3   OH272396   2.406   0.617   2.355  0.0415 -0.0874  0.0151
16994TIP3    H172397   2.363   0.671   2.420  1.4930  0.2282  0.7555
16994TIP3    H272398   2.451   0.679   2.298 -2.1561 -0.2792 -2.0681
16995TIP3   OH272399   0.626   1.977  15.613 -0.4076  0.1298 -0.6160
16995TIP3    H172400   0.619   1.941  15.701  0.5769  1.4580  0.0554
16995TIP3    H272401   0.721   1.983  15.597 -0.5244  2.0367 -0.8107
16996TIP3   OH272402   1.628   4.210   5.349  0.0389 -0.1139 -0.3202
16996TIP3    H172403   1.722   4.204   5.334  0.0158  0.6324 -0.8008
16996TIP3    H272404   1.615   4.170   5.435  1.0193  1.2605  0.5091
16997TIP3   OH272405   4.797   0.387  13.838  0.0239  0.2869  0.1412
16997TIP3    H172406   4.752   0.330  13.900 -1.0266  0.3130 -0.5717
16997TIP3    H272407   4.861   0.435  13.891  2.8395 -3.3519  0.4167
16998TIP3   OH272408   0.365   2.863  16.718  0.3765  0.4988  0.2249
16998TIP3    H172409   0.274   2.857  16.690  0.6755 -0.6136 -0.5639
16998TIP3    H272410   0.416   2.862  16.637  1.1009  0.9620  0.6637
16999TIP3   OH272411   3.535   5.333  14.239  0.3565  0.1333 -0.5270
16999TIP3    H172412   3.611   5.367  14.286  0.4581  0.0142 -0.6040
16999TIP3    H272413   3.520   5.246  14.277  0.3971  0.0649 -0.6674
17000TIP3   OH272414   1.595   6.494   5.064  0.1697 -0.3474 -0.2874
17000TIP3    H172415   1.502   6.498   5.087  0.8042 -0.2984  2.7530
17000TIP3    H272416   1.600   6.529   4.976 -2.5278  1.1091  0.0384
17001TIP3   OH272417   3.024   2.023  11.905 -0.2074 -0.0035 -0.8503
17001TIP3    H172418   3.070   2.096  11.864  0.0331 -0.9488 -2.2990
17001TIP3    H272419   2.981   2.063  11.982  2.3137  1.0694  0.1207
17002TIP3   OH272420   1.521   5.532  14.002  0.3597 -0.1266  0.2198
17002TIP3    H172421   1.583   5.605  13.993 -0.2708  0.1804 -2.0836
17002TIP3    H272422   1.554   5.484  14.078  2.3161  1.0951  0.2396
17003TIP3   OH272423   1.666   3.917   3.301 -0.4877 -0.1007 -0.0949
17003TIP3    H172424   1.659   3.846   3.238  1.4243 -0.5423  0.1268
17003TIP3    H272425   1.759   3.937   3.305 -0.9194  2.1704  0.1575
17004TIP3   OH272426   6.514   0.041  15.316 -0.0592 -0.1223  0.0678
17004TIP3    H172427   6.515   0.134  15.334  2.8833 -0.2530  1.1370
17004TIP3    H272428   6.547   0.033  15.226 -0.6581 -0.1193 -0.1533
17005TIP3   OH272429   5.367   3.146  13.574 -0.1272 -0.5170  0.2762
17005TIP3    H172430   5.335   3.108  13.656 -0.9689 -0.3305  0.0451
17005TIP3    H272431   5.424   3.218  13.601 -0.9955  0.0302  0.7055
17006TIP3   OH272432   5.353   0.216  17.344 -0.0161 -0.2814 -0.0400
17006TIP3    H172433   5.413   0.226  17.270  2.4899  1.5259  2.0516
17006TIP3    H272434   5.401   0.162  17.407 -2.0825 -1.7781  0.3255
17007TIP3   OH272435   0.782   5.906  16.311  0.0100  0.3834  0.0454
17007TIP3    H172436   0.838   5.951  16.248 -0.3327  2.0879  0.9121
17007TIP3    H272437   0.810   5.938  16.396 -1.6669  0.6115  0.5580
17008TIP3   OH272438   1.913   2.956  14.737 -0.3952  0.2265  0.6725
17008TIP3    H172439   1.935   3.036  14.689  0.4145  0.2152  1.0116
17008TIP3    H272440   1.960   2.963  14.820 -0.4922 -0.4934  0.8016
17009TIP3   OH272441   5.147   3.320  17.110  0.0390  0.7413  0.3705
17009TIP3    H172442   5.149   3.285  17.021  1.5980  1.5862  0.0368
17009TIP3    H272443   5.204   3.397  17.107 -0.6324  1.3333  1.8808
17010TIP3   OH272444   0.448   3.514  13.229  0.3669  0.0709 -0.2787
17010TIP3    H172445   0.480   3.603  13.241  0.9741 -0.1667 -0.0786
17010TIP3    H272446   0.355   3.524  13.209 -0.4308  0.6085  3.0915
17011TIP3   OH272447   3.784   3.697  14.764  0.5040 -0.3848 -0.1010
17011TIP3    H172448   3.766   3.746  14.844 -0.7924  1.3324 -1.3691
17011TIP3    H272449   3.715   3.631  14.760  0.1908 -0.0576 -0.1237
17012TIP3   OH272450   0.714   5.241   6.026  0.1967  0.4137 -0.4052
17012TIP3    H172451   0.660   5.168   6.056  0.4858  0.4417  0.2039
17012TIP3    H272452   0.667   5.319   6.054  0.8971  0.4358  0.8053
17013TIP3   OH272453   5.818   0.450  11.381  0.3926  0.0064 -0.1214
17013TIP3    H172454   5.790   0.430  11.292  2.4056 -0.8260 -0.6087
17013TIP3    H272455   5.816   0.546  11.386 -1.9493  0.0371 -0.2512
17014TIP3   OH272456   0.217   3.505   0.668  0.5745  0.0999  0.3248
17014TIP3    H172457   0.242   3.591   0.702 -1.4804  0.1626  1.8822
17014TIP3    H272458   0.171   3.463   0.741  1.4580 -2.3402 -0.4121
17015TIP3   OH272459   0.051   4.968  17.259 -0.0251 -0.1869  0.1482
17015TIP3    H172460   0.077   5.050  17.301 -0.3461 -0.9360  1.8854
17015TIP3    H272461  -0.010   4.995  17.189  0.6393  1.1051  0.0426
17016TIP3   OH272462   2.126   2.343   3.116  0.4537  0.2263 -0.1016
17016TIP3    H172463   2.074   2.277   3.069  0.7667 -0.3732  0.3786
17016TIP3    H272464   2.065   2.382   3.178  0.8628 -1.4843  1.4876
17017TIP3   OH272465   0.344   0.185   0.122 -0.1918 -0.0245 -0.0491
17017TIP3    H172466   0.287   0.108   0.113  0.2522 -0.4245  0.5091
17017TIP3    H272467   0.326   0.217   0.210 -1.1242  1.1260 -0.6394
17018TIP3   OH272468   1.018   5.136   3.474 -0.6557 -0.2012  0.0197
17018TIP3    H172469   1.052   5.214   3.430 -2.3779  1.9280  2.1502
17018TIP3    H272470   1.089   5.107   3.531  0.1425 -0.5032 -1.0924
17019TIP3   OH272471   0.219   2.755   4.216  0.1705  0.2830  0.3550
17019TIP3    H172472   0.150   2.690   4.205  0.7783 -0.4952  1.0111
17019TIP3    H272473   0.277   2.741   4.141  1.0829 -0.9594  1.2335
17020TIP3   OH272474   3.635   0.593   1.009 -0.1547 -0.5636 -0.2498
17020TIP3    H172475   3.615   0.630   1.095  2.8063  2.1141 -0.5470
17020TIP3    H272476   3.555   0.607   0.959 -0.5227  1.9060  0.8644
17021TIP3   OH272477   4.961   3.577  13.825  0.3617 -0.6797  0.3983
17021TIP3    H172478   4.969   3.509  13.758 -0.4316  1.1183 -1.6376
17021TIP3    H272479   4.868   3.599  13.826  0.6794  0.7945  0.5059
17022TIP3   OH272480   3.645   4.087  16.181 -0.1790  0.3834 -0.0624
17022TIP3    H172481   3.597   4.161  16.142  0.7801  1.0857  0.0665
17022TIP3    H272482   3.732   4.121  16.198 -0.2609 -0.2334  1.7434
17023TIP3   OH272483   0.861   1.703  12.231  1.0259 -0.1960 -0.5534
17023TIP3    H172484   0.848   1.704  12.326  1.1173 -0.1601 -0.5413
17023TIP3    H272485   0.879   1.794  12.208  0.9355 -0.1941 -0.6145
17024TIP3   OH272486   4.523   3.834  15.341 -0.1486 -0.2361 -0.2599
17024TIP3    H172487   4.539   3.762  15.280 -2.9710 -0.9086 -0.3490
17024TIP3    H272488   4.503   3.790  15.424 -1.9627  0.3959 -0.3225
17025TIP3   OH272489   1.667   1.620  14.622 -1.2087 -0.7034  0.5079
17025TIP3    H172490   1.745   1.606  14.567 -3.0025 -1.0848 -2.1074
17025TIP3    H272491   1.691   1.584  14.707  1.3724 -1.0435 -0.2807
17026TIP3   OH272492   5.886   3.421   3.741 -0.5452  0.3717  0.0362
17026TIP3    H172493   5.890   3.458   3.653  0.7112 -1.3315 -0.6823
17026TIP3    H272494   5.923   3.488   3.798  1.9384  0.1946 -1.2467
17027TIP3   OH272495   1.079   4.668  14.422 -0.1016  0.2447 -0.4415
17027TIP3    H172496   1.010   4.733  14.436  0.5890  1.3404 -1.8585
17027TIP3    H272497   1.032   4.587  14.402 -0.9752  0.5655  0.2631
17028TIP3   OH272498   3.923   0.217   3.459 -0.2176  0.4602  0.0418
17028TIP3    H172499   3.982   0.244   3.389  0.2773 -0.0228  0.2695
17028TIP3    H272500   3.924   0.121   3.455 -0.8235  0.4444  0.1809
17029TIP3   OH272501   5.265   0.709  16.997 -0.2353  0.2253  0.2218
17029TIP3    H172502   5.263   0.649  17.072  3.2267  0.7281  0.9208
17029TIP3    H272503   5.357   0.709  16.970 -0.5211  3.4535 -1.2030
17030TIP3   OH272504   5.838   6.360  14.393 -0.0607  0.1401 -0.2052
17030TIP3    H172505   5.763   6.307  14.367  0.9645 -1.6159  0.2040
17030TIP3    H272506   5.889   6.369  14.312 -0.2331  0.4968 -0.2727
17031TIP3   OH272507   0.768   1.310   2.793  0.1176  0.1901  0.9271
17031TIP3    H172508   0.825   1.364   2.738  0.1230 -0.2773  0.4640
17031TIP3    H272509   0.770   1.352   2.879  0.7225  0.4905  0.7693
17032TIP3   OH272510   0.537   0.552   6.224 -0.0936  0.0613  0.3405
17032TIP3    H172511   0.568   0.613   6.291  2.3912 -0.1164 -0.5438
17032TIP3    H272512   0.507   0.609   6.153 -2.0756  0.2373  1.2542
17033TIP3   OH272513   1.163   0.071   0.747 -0.1328  0.0481  0.2914
17033TIP3    H172514   1.182   0.049   0.838 -4.2394 -0.8356  1.1298
17033TIP3    H272515   1.136   0.163   0.749 -0.6147 -0.0862  0.0380
17034TIP3   OH272516   2.090   0.177  13.317 -0.3218  0.1017  0.5345
17034TIP3    H172517   2.062   0.087  13.332 -0.5134  0.2404  1.0579
17034TIP3    H272518   2.068   0.195  13.226 -2.4041  0.3612  1.0507
17035TIP3   OH272519   1.767   0.257   1.815 -0.2460  0.4753  0.0868
17035TIP3    H172520   1.715   0.184   1.848  0.8235 -0.6112 -0.5597
17035TIP3    H272521   1.834   0.271   1.882 -0.6478  1.1150  0.3713
17036TIP3   OH272522   1.308   0.708   1.219  0.1307 -0.3811  0.2756
17036TIP3    H172523   1.359   0.749   1.289 -0.8313 -1.1947  1.5102
17036TIP3    H272524   1.336   0.616   1.220 -0.1037 -0.4584 -0.2076
17037TIP3   OH272525   0.200   0.751   5.286  0.5893 -0.1015 -1.3647
17037TIP3    H172526   0.127   0.716   5.338  2.3601 -0.6346  0.9135
17037TIP3    H272527   0.219   0.682   5.222  0.3505 -0.8006 -0.6900
17038TIP3   OH272528   2.553   4.207   5.796  0.9478 -0.1034 -0.1013
17038TIP3    H172529   2.541   4.175   5.707  1.7753  1.1713 -0.7014
17038TIP3    H272530   2.515   4.139   5.852 -1.0611 -0.1847 -1.4762
17039TIP3   OH272531   4.309   2.527   2.156  0.5272  0.0117 -0.3126
17039TIP3    H172532   4.320   2.598   2.219  2.5574  0.0831 -0.6785
17039TIP3    H272533   4.374   2.462   2.182  1.3732  0.0081 -2.2576
17040TIP3   OH272534   1.771   0.219   3.003  1.0359 -0.0706  0.1128
17040TIP3    H172535   1.724   0.289   2.957  0.6814 -0.5133 -0.2092
17040TIP3    H272536   1.833   0.185   2.938  0.5628 -0.6707 -0.0278
17041TIP3   OH272537   6.343   4.926   1.835 -0.1605 -0.3860 -0.8859
17041TIP3    H172538   6.395   4.855   1.797 -0.0321  0.3311 -2.1100
17041TIP3    H272539   6.255   4.890   1.842 -0.1209 -0.6474 -1.6043
17042TIP3   OH272540   0.714   0.109   0.776  0.8365  0.0037  0.4546
17042TIP3    H172541   0.743   0.199   0.792 -1.2868  1.1375 -1.4836
17042TIP3    H272542   0.628   0.104   0.816  1.0184 -1.2787  0.7367
17043TIP3   OH272543   1.534   0.369  15.612  0.3340  0.3581  0.3626
17043TIP3    H172544   1.485   0.326  15.682 -1.9022  1.2530 -0.5730
17043TIP3    H272545   1.513   0.462  15.622 -1.4934  0.3622 -2.4569
17044TIP3   OH272546   0.972   5.273   4.388  0.2352  0.0262  0.5152
17044TIP3    H172547   0.921   5.354   4.383  0.2726 -0.0365 -1.3092
17044TIP3    H272548   1.048   5.296   4.441  0.2311  1.1848  0.0402
17045TIP3   OH272549   4.751   0.359  15.281  0.3258  0.5731 -0.5892
17045TIP3    H172550   4.669   0.321  15.249  2.2194 -2.2708 -2.5645
17045TIP3    H272551   4.799   0.382  15.202  1.8879  1.1367  0.4837
17046TIP3   OH272552   6.393   0.381   4.168  0.0997 -0.8360  0.1170
17046TIP3    H172553   6.447   0.459   4.155 -2.0170  0.4113 -1.9185
17046TIP3    H272554   6.390   0.339   4.082 -2.0003 -0.9107  0.1701
17047TIP3   OH272555   1.526   6.238   6.123 -0.2793  0.4396 -0.4381
17047TIP3    H172556   1.440   6.195   6.116 -0.5792  0.8185  0.7289
17047TIP3    H272557   1.587   6.166   6.140 -0.2835  0.1166 -1.6937
17048TIP3   OH272558   0.064   6.759  14.349  0.1753 -0.7312  0.7389
17048TIP3    H172559  -0.002   6.691  14.359  1.0966 -1.7620  0.0202
17048TIP3    H272560   0.147   6.715  14.366  0.7089  0.5252  1.5777
17049TIP3   OH272561   3.274   0.064  11.163 -0.1165 -0.3844 -0.1897
17049TIP3    H172562   3.368   0.082  11.159 -0.0373 -0.6380  0.3717
17049TIP3    H272563   3.254   0.015  11.083  0.5125 -1.5915  0.3736
17050TIP3   OH272564   3.816   2.435   3.674  0.3452 -0.0499  0.6679
17050TIP3    H172565   3.907   2.457   3.655  0.2121  1.2126  1.3963
17050TIP3    H272566   3.820   2.378   3.750  0.5122  0.2188  0.8597
17051TIP3   OH272567   1.068   5.332  11.950 -0.2508  0.0218  0.1631
17051TIP3    H172568   1.158   5.306  11.930 -0.1050  0.5654  0.0990
17051TIP3    H272569   1.025   5.251  11.975  0.3537 -0.1843  0.5558
17052TIP3   OH272570   6.477   3.743   4.522 -0.4590  0.2987  0.0584
17052TIP3    H172571   6.510   3.657   4.549  0.6095  1.0798  1.3610
17052TIP3    H272572   6.495   3.748   4.428 -0.1451 -0.7151  0.0538
17053TIP3   OH272573   6.163   0.708  16.877  0.4577  0.4970  0.1661
17053TIP3    H172574   6.116   0.677  16.799 -2.9621 -0.7073  2.4411
17053TIP3    H272575   6.207   0.788  16.849  1.6106 -1.2543 -3.5914
17054TIP3   OH272576   6.240   3.521  16.536  0.0936  0.1107  0.0310
17054TIP3    H172577   6.263   3.461  16.607  0.3005  1.2808  0.9907
17054TIP3    H272578   6.179   3.472  16.482  0.8657 -1.2342  0.3410
17055TIP3   OH272579   6.543   4.118   5.033  0.2328  0.1888 -0.4989
17055TIP3    H172580   6.609   4.070   4.982  0.5261  0.0225  0.0187
17055TIP3    H272581   6.461   4.105   4.986  0.3411 -0.6777 -0.4752
17056TIP3   OH272582   1.398   4.578   4.914 -0.0043 -0.0500 -0.2607
17056TIP3    H172583   1.396   4.620   5.000  1.2346  0.0742 -0.2759
17056TIP3    H272584   1.491   4.572   4.893 -0.2879 -0.3572 -1.4624
17057TIP3   OH272585   4.185   1.992  13.169  0.0136  0.4235  0.0717
17057TIP3    H172586   4.098   2.019  13.197  0.5334 -0.1153  2.3748
17057TIP3    H272587   4.245   2.046  13.220  1.0447  0.3469 -1.0167
17058TIP3   OH272588   2.112   0.258  14.153  0.2225  0.4755  0.3039
17058TIP3    H172589   2.116   0.328  14.088 -0.2404  0.0395 -0.1992
17058TIP3    H272590   2.155   0.184  14.110  1.6235  0.7322  1.2086
17059TIP3   OH272591   3.737   5.845   5.308 -0.0713 -0.6716 -0.0282
17059TIP3    H172592   3.769   5.755   5.314 -1.2246 -1.0645  0.5867
17059TIP3    H272593   3.674   5.852   5.380 -0.5576  0.3908 -0.5466
17060TIP3   OH272594   5.731   2.124   2.806  0.4688  0.5751  0.0285
17060TIP3    H172595   5.715   2.217   2.787  1.4175  1.4352  2.8873
17060TIP3    H272596   5.662   2.078   2.760 -0.6592  2.7941 -0.6481
17061TIP3   OH272597   6.685   2.407   2.686 -0.0838  0.3445 -0.5564
17061TIP3    H172598   6.678   2.502   2.688  1.2400  0.4636  1.4149
17061TIP3    H272599   6.779   2.390   2.681 -0.3520 -0.8969 -2.2550
17062TIP3   OH272600   1.827   4.035   6.001 -0.5126  0.0143  0.6522
17062TIP3    H172601   1.748   4.073   6.041 -2.2115 -2.5870 -0.0065
17062TIP3    H272602   1.880   4.007   6.075 -1.4346 -0.5419  1.1188
17063TIP3   OH272603   6.633   0.534  15.745  0.0716 -0.2467 -0.0272
17063TIP3    H172604   6.725   0.534  15.772 -0.0650 -1.0422  0.4749
17063TIP3    H272605   6.583   0.541  15.827 -0.3226  0.0324 -0.2844
17064TIP3   OH272606   2.318   0.212   4.450  0.5215  0.4267 -0.0698
17064TIP3    H172607   2.285   0.214   4.360 -0.0319 -0.3763  0.1031
17064TIP3    H272608   2.241   0.190   4.503  0.9554  0.3652  0.5419
17065TIP3   OH272609   1.747   0.436   4.624 -0.1778  0.0623  0.0495
17065TIP3    H172610   1.748   0.453   4.530 -0.6422 -0.4230 -0.0499
17065TIP3    H272611   1.827   0.387   4.641  0.3692  0.9469  0.0697
17066TIP3   OH272612   0.560   2.452   1.343 -0.8201  0.5798 -0.5681
17066TIP3    H172613   0.535   2.463   1.251 -1.4232 -1.3913 -0.6890
17066TIP3    H272614   0.655   2.440   1.341 -0.8252  0.5910 -0.9358
17067TIP3   OH272615   0.243   6.419   5.035  0.5268  0.4019 -0.3716
17067TIP3    H172616   0.229   6.416   5.129  0.4651 -0.7214 -0.4080
17067TIP3    H272617   0.312   6.354   5.019 -0.6302 -0.6458 -1.2890
17068TIP3   OH272618   3.865   6.683   3.944 -0.6688  0.0331  0.4095
17068TIP3    H172619   3.923   6.610   3.923 -1.1144 -0.5742  1.2422
17068TIP3    H272620   3.852   6.728   3.861 -0.0424 -0.5837 -0.0297
17069TIP3   OH272621   0.519   6.113   4.787  0.3659 -0.5993 -0.1084
17069TIP3    H172622   0.603   6.079   4.819  0.5820  0.1121  0.1011
17069TIP3    H272623   0.523   6.102   4.692  0.9497 -0.0271 -0.1574
17070TIP3   OH272624   5.850   1.735  16.961  0.5775 -0.2289  0.0522
17070TIP3    H172625   5.762   1.763  16.985  0.4407 -0.4946 -0.1310
17070TIP3    H272626   5.894   1.816  16.935  0.6934  0.0448  1.0534
17071TIP3   OH272627   1.563   6.312  13.996 -0.7454 -0.0426  0.3777
17071TIP3    H172628   1.522   6.330  13.912 -0.2328  0.3753  0.2105
17071TIP3    H272629   1.588   6.220  13.992  0.2973  0.2511 -0.3900
17072TIP3   OH272630   2.680   6.172   0.750  0.8030 -0.0117 -0.6314
17072TIP3    H172631   2.739   6.223   0.805  0.4926 -0.4146  0.0894
17072TIP3    H272632   2.592   6.202   0.774  0.6076 -0.9408 -0.1237
17073TIP3   OH272633   1.188   3.068  12.954 -0.0812  0.5375 -0.5058
17073TIP3    H172634   1.268   3.051  12.904  0.2326 -0.7184  0.3714
17073TIP3    H272635   1.219   3.095  13.040 -0.4366 -2.8781  0.8804
17074TIP3   OH272636   5.048   6.095  13.694 -0.5897  0.1332  0.1339
17074TIP3    H172637   5.108   6.027  13.725  0.0034  0.6259  0.0830
17074TIP3    H272638   5.083   6.177  13.729 -0.8815  0.4978 -0.3990
17075TIP3   OH272639   5.793   3.307  12.835  0.1716 -0.4965  1.1075
17075TIP3    H172640   5.714   3.252  12.832  0.1867 -0.4837 -0.4035
17075TIP3    H272641   5.776   3.369  12.906 -1.1132 -0.5912  0.9163
17076TIP3   OH272642   5.065   6.480  12.887  0.3142  0.2320 -0.0246
17076TIP3    H172643   5.094   6.448  12.801 -3.5998 -2.8365 -0.5170
17076TIP3    H272644   4.997   6.544  12.867 -0.1404  0.0082  0.7691
17077TIP3   OH272645   0.636   4.338  13.980  0.5808  0.3297  0.1816
17077TIP3    H172646   0.727   4.350  13.953  0.4945 -0.6749 -0.5690
17077TIP3    H272647   0.593   4.420  13.957  1.0675  0.4228 -0.3987
17078TIP3   OH272648   0.677   5.844   4.316 -0.0262  0.1700  0.8260
17078TIP3    H172649   0.746   5.858   4.380  0.8432 -1.9415  0.4095
17078TIP3    H272650   0.596   5.840   4.368  0.4999 -0.1767  1.6232
17079TIP3   OH272651   3.656   3.355   0.039  0.6702  0.2789  0.9085
17079TIP3    H172652   3.716   3.318  -0.026  0.0584  0.0753  0.4427
17079TIP3    H272653   3.692   3.441   0.059  0.6037  0.5495 -0.0806
17080TIP3   OH272654   4.208   4.191  14.542 -0.0503 -0.1676  0.0682
17080TIP3    H172655   4.141   4.125  14.557 -1.0727  0.7684 -0.2486
17080TIP3    H272656   4.193   4.256  14.611 -1.6170  1.6918 -1.9004
17081TIP3   OH272657   6.761   0.681  11.441 -0.1937  0.0482  0.3047
17081TIP3    H172658   6.776   0.761  11.390 -0.6618 -1.3921 -2.2461
17081TIP3    H272659   6.762   0.711  11.532 -0.9881  3.0588 -0.5531
17082TIP3   OH272660   3.410   0.577  16.791  0.1128 -0.2957  0.0898
17082TIP3    H172661   3.344   0.634  16.830 -1.3804 -1.0710 -1.2239
17082TIP3    H272662   3.361   0.509  16.746  1.7958 -0.6843 -1.2844
17083TIP3   OH272663   5.098   5.927  11.493 -0.8993  0.0233 -0.0135
17083TIP3    H172664   5.021   5.900  11.542 -0.4103 -1.1054  0.1644
17083TIP3    H272665   5.117   5.853  11.435  1.6019 -0.9298  1.8208
17084TIP3   OH272666   5.323   0.212   5.761  0.0782 -0.0037  0.1631
17084TIP3    H172667   5.348   0.138   5.817 -1.4874 -0.5711  0.1512
17084TIP3    H272668   5.370   0.197   5.679  0.2698 -0.6482  0.3830
17085TIP3   OH272669   4.635   2.152   0.649  0.1697 -0.1349 -0.1576
17085TIP3    H172670   4.615   2.241   0.676 -1.9150 -1.0590  1.7086
17085TIP3    H272671   4.609   2.098   0.724  1.7641 -2.2924 -1.0518
17086TIP3   OH272672   6.377   1.206   0.938  0.0284 -0.7181  0.4543
17086TIP3    H172673   6.452   1.162   0.977  0.5162 -1.2437 -1.0446
17086TIP3    H272674   6.407   1.236   0.852 -0.6031  1.6431  0.9606
17087TIP3   OH272675   2.698   2.739   4.293  1.0114  0.3342 -0.0350
17087TIP3    H172676   2.705   2.829   4.325 -1.1950  0.7380 -0.5444
17087TIP3    H272677   2.742   2.741   4.208 -1.4532  1.7445 -1.3997
17088TIP3   OH272678   5.246   0.598   2.977 -0.7576  0.2224 -0.0278
17088TIP3    H172679   5.311   0.656   3.017 -0.3501  0.9537 -1.6584
17088TIP3    H272680   5.174   0.655   2.952  0.2021  0.3439 -2.8417
17089TIP3   OH272681   1.695   4.612   3.458  0.4157 -0.1058 -0.0590
17089TIP3    H172682   1.638   4.643   3.528 -0.4927  0.4667 -1.0200
17089TIP3    H272683   1.751   4.686   3.438  1.3284 -0.5736  0.6836
17090TIP3   OH272684   2.983   0.983   0.131 -0.0660 -0.0003  0.4283
17090TIP3    H172685   3.002   1.042   0.204  1.4047  0.4098 -0.2465
17090TIP3    H272686   2.988   1.038   0.053 -0.5816 -0.6459 -0.0766
17091TIP3   OH272687   6.060   4.888   0.792  0.7401  0.7264 -0.3333
17091TIP3    H172688   6.086   4.851   0.876 -1.6155  0.0101  0.1602
17091TIP3    H272689   6.057   4.813   0.732 -3.6719 -0.0710  0.5748
17092TIP3   OH272690   1.549   4.716   2.790  0.5837 -0.7446 -0.8122
17092TIP3    H172691   1.527   4.805   2.818  0.7139 -1.1201  0.5772
17092TIP3    H272692   1.644   4.717   2.781  0.7077 -1.0196  0.3139
17093TIP3   OH272693   6.385   4.437  17.269 -0.0381 -0.3691 -0.0278
17093TIP3    H172694   6.321   4.425  17.339 -0.2192  0.2575 -0.0829
17093TIP3    H272695   6.463   4.391  17.300 -0.1409 -0.1558  0.5516
17094TIP3   OH272696   2.102   1.519  14.123  0.0719 -0.0678 -0.6882
17094TIP3    H172697   2.121   1.600  14.170  1.1578 -0.3395 -0.6259
17094TIP3    H272698   2.007   1.516  14.118 -0.0217  0.5895  0.3831
17095TIP3   OH272699   6.046   5.208  16.768 -0.4520 -0.2958  0.1010
17095TIP3    H172700   6.013   5.124  16.735  0.7859 -0.5908 -0.4288
17095TIP3    H272701   6.139   5.194  16.781 -0.6399  0.2359  2.4709
17096TIP3   OH272702   3.702   6.694  14.943 -0.2304 -0.5650 -0.6077
17096TIP3    H172703   3.655   6.762  14.895  2.4697 -0.0815 -2.8234
17096TIP3    H272704   3.708   6.727  15.032 -2.7984 -0.0771 -0.5172
17097TIP3   OH272705   2.720   0.666   0.403  0.2244 -0.4515  0.0057
17097TIP3    H172706   2.641   0.665   0.457 -0.2144 -0.4334 -0.6228
17097TIP3    H272707   2.717   0.750   0.357  0.0924 -0.8574 -0.7577
17098TIP3   OH272708   3.537   4.916   5.975 -0.1012  0.2058  0.3325
17098TIP3    H172709   3.462   4.882   6.023  1.1750  0.6460  2.7558
17098TIP3    H272710   3.519   4.892   5.884 -2.1071 -1.6130  1.1163
17099TIP3   OH272711   5.922   1.197  13.590 -0.4972 -0.3518 -0.7098
17099TIP3    H172712   5.988   1.174  13.526 -0.1648  1.1249 -0.9337
17099TIP3    H272713   5.914   1.120  13.646  0.3313 -1.0795 -1.5706
17100TIP3   OH272714   0.124   6.127   6.326  0.7555 -0.0788 -0.0510
17100TIP3    H172715   0.101   6.037   6.302  2.4288 -0.6360  0.2578
17100TIP3    H272716   0.199   6.117   6.385  1.3269  1.5455 -0.4510
17101TIP3   OH272717   1.888   3.257  12.533  0.4128 -0.4135  0.4522
17101TIP3    H172718   1.919   3.238  12.622 -0.3207 -0.5478  0.6829
17101TIP3    H272719   1.967   3.284  12.486  0.9978 -1.3146  0.8709
17102TIP3   OH272720   6.423   5.190  13.600 -0.0306 -0.3230 -0.3252
17102TIP3    H172721   6.461   5.266  13.556  1.1641 -1.8876 -2.1964
17102TIP3    H272722   6.377   5.143  13.531 -0.7182 -1.3197  0.7714
17103TIP3   OH272723   2.366   6.723   2.123  0.6476  0.1512  0.2408
17103TIP3    H172724   2.303   6.791   2.100  0.4475  0.7416  2.3131
17103TIP3    H272725   2.327   6.678   2.198  1.3288 -1.4803 -0.3400
17104TIP3   OH272726   5.963   2.120   6.552 -0.4476  0.2662  0.3060
17104TIP3    H172727   5.874   2.085   6.549  0.2202 -1.6292  1.0997
17104TIP3    H272728   6.006   2.081   6.475  0.1780 -0.3295  0.9416
17105TIP3   OH272729   3.128   4.515  13.653 -0.6083  0.3117  0.1052
17105TIP3    H172730   3.100   4.499  13.743 -0.2010  2.3828  0.6606
17105TIP3    H272731   3.055   4.484  13.599 -1.5179  0.4359  1.2308
17106TIP3   OH272732   4.571   5.963   6.370  0.1850 -0.1743 -0.2370
17106TIP3    H172733   4.490   5.917   6.348 -0.8377  0.6573  1.5920
17106TIP3    H272734   4.613   5.909   6.437  1.1994 -0.6177 -1.1937
17107TIP3   OH272735   4.074   6.597  14.556  0.1072  0.3206 -0.2001
17107TIP3    H172736   4.162   6.560  14.563 -0.2317 -0.4899 -0.1335
17107TIP3    H272737   4.083   6.667  14.491  1.2495  1.6652  1.3075
17108TIP3   OH272738   4.129   6.551   1.063 -0.3085 -0.5762  0.5364
17108TIP3    H172739   4.102   6.461   1.048 -0.5787 -0.8105  2.2722
17108TIP3    H272740   4.131   6.590   0.975 -3.1662 -1.4359 -0.0163
17109TIP3   OH272741   2.084   2.815   0.884 -0.7173  0.0595 -0.5843
17109TIP3    H172742   2.109   2.740   0.938 -1.5746  2.2100  3.1597
17109TIP3    H272743   2.166   2.844   0.844  0.2087 -1.0013  0.4650
17110TIP3   OH272744   1.265   3.219   1.753  0.8684 -0.0022  0.1769
17110TIP3    H172745   1.223   3.256   1.676 -0.0986 -0.9454  0.2271
17110TIP3    H272746   1.194   3.209   1.817  1.1119 -1.7061  0.2345
17111TIP3   OH272747   6.561   4.715   6.465 -0.1467 -0.5805  0.0609
17111TIP3    H172748   6.644   4.672   6.484  1.7050  3.2484  1.5770
17111TIP3    H272749   6.585   4.795   6.419 -3.0616  0.5038  0.2094
17112TIP3   OH272750   4.522   6.089  11.332 -0.0014 -0.0154  0.4701
17112TIP3    H172751   4.473   6.007  11.323 -0.9136  0.5149  0.4924
17112TIP3    H272752   4.488   6.145  11.262  2.2780 -0.4302 -1.0799
17113TIP3   OH272753   1.569   0.922  11.326 -0.2203  0.0027  0.4580
17113TIP3    H172754   1.572   0.885  11.237  0.0693 -0.0755  0.4983
17113TIP3    H272755   1.626   0.999  11.321 -2.6455  1.8639 -0.2566
17114TIP3   OH272756   6.622   2.146  16.608  0.1176  0.1881 -0.2881
17114TIP3    H172757   6.534   2.122  16.636 -0.0941  0.9483 -0.2908
17114TIP3    H272758   6.659   2.065  16.574  0.2407 -0.6979  1.7879
17115TIP3   OH272759   2.145   1.657   1.413 -0.8951  0.0801  0.2517
17115TIP3    H172760   2.065   1.690   1.372  0.4043  0.8925 -1.8377
17115TIP3    H272761   2.155   1.708   1.493 -1.7981  0.8720 -0.1333
17116TIP3   OH272762   3.290   5.570  13.265  0.1619  0.0989  0.2274
17116TIP3    H172763   3.271   5.615  13.183  0.9219  0.8742  0.4616
17116TIP3    H272764   3.209   5.576  13.315 -0.2794 -0.2938 -0.4162
17117TIP3   OH272765   0.332   2.319  14.106  0.2039 -0.4532 -0.7156
17117TIP3    H172766   0.254   2.375  14.100 -0.4569 -1.3880 -0.9827
17117TIP3    H272767   0.356   2.301  14.015  0.2221 -0.8635 -0.6317
17118TIP3   OH272768   5.654   3.346   3.441  0.1856 -0.0120 -0.3392
17118TIP3    H172769   5.700   3.352   3.357  2.8405 -0.2839  0.9720
17118TIP3    H272770   5.580   3.288   3.424  0.6765 -0.0822 -2.4897
17119TIP3   OH272771   0.258   0.877  11.667 -0.1797  0.2582 -0.5047
17119TIP3    H172772   0.164   0.893  11.663 -0.5720 -1.8024 -0.5265
17119TIP3    H272773   0.291   0.898  11.579 -1.1334 -1.6509 -1.3828
17120TIP3   OH272774   4.036   0.508  13.853  0.0787 -0.0145  0.5150
17120TIP3    H172775   3.969   0.573  13.876 -0.2496  0.6863 -2.1579
17120TIP3    H272776   3.993   0.450  13.790  1.6954 -0.1527 -0.5018
17121TIP3   OH272777   0.797   1.448   1.485  0.1628  0.0144 -0.9082
17121TIP3    H172778   0.808   1.360   1.450  0.7256 -0.2262 -0.1558
17121TIP3    H272779   0.801   1.506   1.409 -3.9692 -0.7879 -1.9882
17122TIP3   OH272780   3.662   3.569  16.960  0.6414  0.9137  0.0444
17122TIP3    H172781   3.623   3.630  16.898  0.3584  0.3546 -0.3367
17122TIP3    H272782   3.606   3.574  17.037  0.9111  1.5032  0.2103
17123TIP3   OH272783   1.625   1.639  16.892  0.1201  0.0291 -0.0434
17123TIP3    H172784   1.553   1.697  16.867 -0.5330 -1.1916 -1.1387
17123TIP3    H272785   1.699   1.697  16.909 -0.7814  1.2325 -0.0845
17124TIP3   OH272786   3.934   5.896  14.359 -0.1239 -0.0054 -0.0347
17124TIP3    H172787   3.940   5.802  14.373  1.6186  0.2682  1.2780
17124TIP3    H272788   3.993   5.914  14.286  1.1513  0.3073  1.0430
17125TIP3   OH272789   3.622   5.064  12.418 -0.6089 -0.1712  0.3957
17125TIP3    H172790   3.690   5.060  12.486  1.1542 -2.8683 -1.3166
17125TIP3    H272791   3.655   5.128  12.355 -0.7740  0.1858  0.6746
17126TIP3   OH272792   4.384   6.686  13.214 -0.0034 -0.7948 -0.1437
17126TIP3    H172793   4.344   6.735  13.286  0.4918  1.1986 -1.1337
17126TIP3    H272794   4.412   6.754  13.152  0.3596 -2.3878 -1.8156
17127TIP3   OH272795   1.598   4.539   5.400  0.5226  0.0887  0.1850
17127TIP3    H172796   1.509   4.509   5.380  0.7030 -1.8511  2.0457
17127TIP3    H272797   1.655   4.477   5.355  0.9258  0.1916  0.5543
17128TIP3   OH272798   3.773   1.319  12.631  0.1864  0.1464 -0.0666
17128TIP3    H172799   3.794   1.411  12.614  2.1130 -0.4064 -0.9552
17128TIP3    H272800   3.848   1.271  12.597 -1.5598 -1.9037 -1.2439
17129TIP3   OH272801   0.399   1.836   3.319 -0.6525 -0.6930 -0.0473
17129TIP3    H172802   0.332   1.844   3.387 -1.2664 -2.4275 -0.3955
17129TIP3    H272803   0.431   1.746   3.327  1.7790  0.1106  0.2021
17130TIP3   OH272804   0.129   2.727   3.808 -0.6828  0.2093 -0.7651
17130TIP3    H172805   0.159   2.813   3.777  0.7775  0.0273  0.0606
17130TIP3    H272806   0.069   2.697   3.740 -2.0291  2.3080 -0.6062
17131TIP3   OH272807   0.602   3.292  12.555 -0.0163  0.0942  0.1274
17131TIP3    H172808   0.535   3.268  12.490  0.0303  1.2494 -0.3686
17131TIP3    H272809   0.581   3.238  12.631  1.1491 -2.8270 -1.4773
17132TIP3   OH272810   4.985   0.236  15.665 -0.6371 -0.1710  0.0305
17132TIP3    H172811   4.966   0.231  15.571 -0.4868  1.1651 -0.0891
17132TIP3    H272812   4.903   0.265  15.705 -0.4054  0.2739  0.1855
17133TIP3   OH272813   6.210   5.429  12.448 -0.2870  0.8000 -0.2704
17133TIP3    H172814   6.132   5.393  12.492  0.6434  0.7335  1.4025
17133TIP3    H272815   6.198   5.405  12.356 -1.2646 -1.0245  0.2680
17134TIP3   OH272816   6.227   0.253  16.891  0.0737 -0.2943  0.4693
17134TIP3    H172817   6.309   0.205  16.882 -0.3685 -0.8050 -1.2437
17134TIP3    H272818   6.179   0.233  16.810 -0.5591  2.2337  0.1464
17135TIP3   OH272819   5.833   5.429  15.158 -0.2347  0.2478 -0.0659
17135TIP3    H172820   5.929   5.423  15.156 -0.2247  0.0878  0.5669
17135TIP3    H272821   5.803   5.340  15.174 -0.5116  0.2268 -0.6866
17136TIP3   OH272822   3.265   0.890  16.263 -0.6834 -0.1274  0.4408
17136TIP3    H172823   3.265   0.794  16.263  1.0171 -0.2149 -2.1496
17136TIP3    H272824   3.250   0.915  16.172  2.2474  1.9595  0.3893
17137TIP3   OH272825   1.766   2.125   2.164 -0.3909 -0.6366  0.5103
17137TIP3    H172826   1.692   2.093   2.113 -0.4563 -1.5366  1.1602
17137TIP3    H272827   1.726   2.182   2.230 -0.4015 -0.3101  0.2265
17138TIP3   OH272828   0.007   3.103  14.470  0.0678  0.4755 -0.0615
17138TIP3    H172829   0.100   3.111  14.445  0.5386  1.3139  1.8087
17138TIP3    H272830   0.002   3.020  14.517  0.3182  1.3095  1.5040
17139TIP3   OH272831   1.407   4.895   5.874 -0.2420 -0.2831  0.1115
17139TIP3    H172832   1.351   4.819   5.856 -0.7820  0.1082  0.0816
17139TIP3    H272833   1.449   4.913   5.790 -1.5342  0.5645 -0.3870
17140TIP3   OH272834   5.771   1.584  11.406  0.6988  0.0848 -0.5302
17140TIP3    H172835   5.837   1.607  11.472  1.1036  2.6434 -1.7083
17140TIP3    H272836   5.689   1.619  11.439  0.3590 -1.0010 -0.1783
17141TIP3   OH272837   3.108   2.881   5.036  0.3887  0.0858 -0.4643
17141TIP3    H172838   3.188   2.935   5.037  0.8655 -0.5366 -2.1524
17141TIP3    H272839   3.103   2.847   5.125  2.5043 -0.5203 -0.5088
17142TIP3   OH272840   5.088   6.295  16.442 -0.6274 -0.2140  0.3633
17142TIP3    H172841   5.051   6.209  16.419  0.0265 -0.6889  1.0570
17142TIP3    H272842   5.022   6.335  16.499  0.1175 -1.2774  2.0287
17143TIP3   OH272843   0.857   6.022  14.392 -0.3483  0.3235  0.0883
17143TIP3    H172844   0.823   6.110  14.407 -1.6165 -0.2472  0.6386
17143TIP3    H272845   0.868   6.016  14.297 -0.4654  0.9837  0.0294
17144TIP3   OH272846   5.860   5.791   0.464  0.0882  0.3568 -0.0299
17144TIP3    H172847   5.925   5.776   0.396  1.2450 -1.5019  1.3852
17144TIP3    H272848   5.776   5.786   0.417  0.8743  0.6484 -1.5466
17145TIP3   OH272849   4.556   6.367   3.207 -0.0627  0.1900  0.0216
17145TIP3    H172850   4.486   6.424   3.239 -1.5372 -1.6631  0.3046
17145TIP3    H272851   4.547   6.370   3.111  0.5813  1.2482 -0.0158
17146TIP3   OH272852   2.966   5.846   0.226  0.3616  0.2900 -0.3321
17146TIP3    H172853   3.025   5.773   0.249 -0.5991 -0.1611  0.8426
17146TIP3    H272854   2.984   5.863   0.134  1.1684 -0.9239 -0.4291
17147TIP3   OH272855   0.960   4.417   1.756 -0.3478  0.0991 -0.1449
17147TIP3    H172856   0.924   4.462   1.679  0.1905  0.4643 -0.1904
17147TIP3    H272857   1.015   4.483   1.798  0.0686 -0.3764  0.0546
17148TIP3   OH272858   5.509   6.532  16.799 -0.1757 -0.4102 -0.4017
17148TIP3    H172859   5.562   6.461  16.762  1.0676  0.0214  0.5091
17148TIP3    H272860   5.528   6.530  16.893 -1.7134 -0.1749 -0.0594
17149TIP3   OH272861   4.349   0.028   3.923 -0.4089  0.4262 -0.0328
17149TIP3    H172862   4.430   0.051   3.878  0.6576  1.1567  2.1063
17149TIP3    H272863   4.369  -0.055   3.967 -1.9851 -1.1745 -2.1821
17150TIP3   OH272864   0.264   1.906  13.688  0.1065 -0.2489 -0.1446
17150TIP3    H172865   0.226   1.949  13.611 -0.2858 -1.8150 -0.8616
17150TIP3    H272866   0.216   1.943  13.762 -1.6763 -0.9599 -0.9041
17151TIP3   OH272867   2.698   2.956   2.561  0.0079 -0.2205  0.4594
17151TIP3    H172868   2.634   3.025   2.544  1.6015  1.2221  0.0922
17151TIP3    H272869   2.701   2.949   2.657 -0.5915 -0.2163  0.4829
17152TIP3   OH272870   2.413   6.041  15.696  0.0405  0.2240 -0.4577
17152TIP3    H172871   2.498   6.002  15.714 -1.1239 -1.6159  1.6473
17152TIP3    H272872   2.385   6.078  15.780 -2.1360 -1.2192 -0.4697
17153TIP3   OH272873   0.254   2.103   0.389 -0.0431  0.1449 -0.2009
17153TIP3    H172874   0.315   2.047   0.438  0.4476 -0.6105 -1.6158
17153TIP3    H272875   0.167   2.068   0.410 -0.0058  0.9950  1.5371
17154TIP3   OH272876   0.387   1.558  15.349  0.6233 -0.2253  0.0254
17154TIP3    H172877   0.345   1.581  15.432  0.0018 -0.5513 -0.1911
17154TIP3    H272878   0.478   1.586  15.359  0.2388  0.9603  0.3123
17155TIP3   OH272879   3.492   5.039   1.163  0.4419 -0.2254 -0.4259
17155TIP3    H172880   3.444   5.119   1.144 -0.6265 -0.0618  2.3915
17155TIP3    H272881   3.584   5.065   1.160  0.1286  1.0283  0.0084
17156TIP3   OH272882   6.679   1.113   4.761 -0.2595 -0.2037  0.3031
17156TIP3    H172883   6.753   1.118   4.821  1.8351 -2.6879 -1.8010
17156TIP3    H272884   6.654   1.021   4.761 -0.1323 -0.3392 -2.5267
17157TIP3   OH272885   0.276   5.728  15.236 -0.4273  0.0311  0.3177
17157TIP3    H172886   0.370   5.742  15.224 -0.6306  1.9657  0.5632
17157TIP3    H272887   0.269   5.683  15.320  0.3099 -1.3135 -0.3015
17158TIP3   OH272888   2.414   2.938   5.375  0.3665  0.1898  0.0426
17158TIP3    H172889   2.479   3.003   5.401  1.4829 -0.2181 -1.5940
17158TIP3    H272890   2.435   2.861   5.428 -1.1906  1.1730  2.2648
17159TIP3   OH272891   0.396   4.826  12.309  0.3360  0.4405  0.8358
17159TIP3    H172892   0.488   4.840  12.332  0.8505 -0.2763 -0.6716
17159TIP3    H272893   0.396   4.747  12.256 -0.8703  1.5946 -0.9941
17160TIP3   OH272894   0.423   5.273  13.932 -0.5416  0.1635 -0.2269
17160TIP3    H172895   0.408   5.270  13.838  0.0360 -0.4940 -0.3078
17160TIP3    H272896   0.385   5.191  13.965 -0.7791  0.4104  0.1163
17161TIP3   OH272897   0.296   2.584   6.729 -0.0191  0.5565  0.1917
17161TIP3    H172898   0.370   2.572   6.790 -1.5823 -4.9106  1.5205
17161TIP3    H272899   0.261   2.670   6.752  2.6399  1.0229  3.3586
17162TIP3   OH272900   2.878   6.304  16.817 -0.2323  0.0677  0.3981
17162TIP3    H172901   2.970   6.284  16.829 -0.0358 -0.4078 -1.4974
17162TIP3    H272902   2.858   6.271  16.729 -1.7863  1.6220  0.1100
17163TIP3   OH272903   6.320   1.543  16.338  0.0678  0.2480  0.2922
17163TIP3    H172904   6.414   1.552  16.322  0.3709 -2.1189  0.3605
17163TIP3    H272905   6.303   1.596  16.416  1.5941 -0.1707  0.9370
17164TIP3   OH272906   0.855   5.039  14.565  0.6885 -0.2059 -0.0978
17164TIP3    H172907   0.763   5.064  14.558  1.1504  1.7104  0.0858
17164TIP3    H272908   0.855   4.945  14.548 -1.4963 -0.5927  1.5514
17165TIP3   OH272909   5.019   5.238  13.264  0.4821 -0.1815  0.2134
17165TIP3    H172910   4.931   5.239  13.226  0.6509 -0.0848 -0.1847
17165TIP3    H272911   5.026   5.321  13.310 -0.0449 -0.6790  1.2198
17166TIP3   OH272912   3.376   3.470  12.107  0.4202 -0.2260 -0.5319
17166TIP3    H172913   3.291   3.452  12.067  0.7228  0.6728 -1.6176
17166TIP3    H272914   3.440   3.440  12.042  0.9363 -0.0123 -0.1277
17167TIP3   OH272915   4.866   0.246  12.969  0.0162  0.1913 -0.0351
17167TIP3    H172916   4.922   0.186  13.018  0.8185  0.7018 -0.2968
17167TIP3    H272917   4.829   0.304  13.035 -0.4527 -0.3338  0.1741
17168TIP3   OH272918   6.334   4.898   3.128  0.5589 -0.1182 -0.3794
17168TIP3    H172919   6.306   4.848   3.205 -1.1801 -1.1941 -1.6355
17168TIP3    H272920   6.414   4.943   3.157 -0.3048 -0.0508  2.2040
17169TIP3   OH272921   0.360   6.689   1.424  0.0557  0.6629  0.4921
17169TIP3    H172922   0.275   6.677   1.380  0.0747 -0.3600  0.7150
17169TIP3    H272923   0.411   6.741   1.362 -0.0262 -0.4917 -0.5995
17170TIP3   OH272924   3.373   6.165   2.247 -0.1573  0.0818 -0.0089
17170TIP3    H172925   3.367   6.080   2.202  0.5465 -0.0887  0.1983
17170TIP3    H272926   3.422   6.145   2.327  0.1585  0.7158 -0.0425
17171TIP3   OH272927   6.394   6.486   2.135 -0.1381 -0.3625 -0.3855
17171TIP3    H172928   6.446   6.406   2.125 -1.8255 -1.8077  1.5300
17171TIP3    H272929   6.450   6.544   2.186 -0.3612 -2.0027  1.8902
17172TIP3   OH272930   1.586   6.603  14.762  0.0500 -0.3600 -0.1048
17172TIP3    H172931   1.678   6.582  14.742 -0.0900 -0.5230 -0.5856
17172TIP3    H272932   1.545   6.518  14.777 -0.6802 -0.5515 -2.7316
17173TIP3   OH272933   1.019   5.145   5.594 -0.0050 -0.7772  0.8479
17173TIP3    H172934   1.091   5.094   5.630 -0.9876 -2.5049  0.4697
17173TIP3    H272935   1.000   5.211   5.661  3.2230  1.1406  0.1021
17174TIP3   OH272936   5.204   0.050  13.606 -0.1753  0.0420 -0.0179
17174TIP3    H172937   5.154   0.111  13.661 -1.0504  0.3324 -1.1028
17174TIP3    H272938   5.292   0.052  13.642 -1.0287 -0.9352  2.3467
17175TIP3   OH272939   6.678   0.306  15.931 -0.0328  0.6998  0.1625
17175TIP3    H172940   6.686   0.328  16.024 -0.4058  0.5415  0.2326
17175TIP3    H272941   6.768   0.309  15.898  0.3586 -1.0151  0.9309
17176TIP3   OH272942   1.161   6.306  12.510 -0.0426 -0.1291  0.0179
17176TIP3    H172943   1.093   6.370  12.530 -0.4079 -0.8571  1.2109
17176TIP3    H272944   1.145   6.234  12.571  1.9569 -0.2206  0.4955
17177TIP3   OH272945   0.432   1.987   4.168 -0.4255 -0.0062 -0.2073
17177TIP3    H172946   0.466   1.949   4.249  0.9232  0.4154 -0.5500
17177TIP3    H272947   0.404   2.075   4.193 -1.9132 -0.5684  0.2098
17178TIP3   OH272948   4.275   0.912  11.717 -0.1858 -0.2155 -0.5674
17178TIP3    H172949   4.359   0.869  11.733 -0.0110 -0.4152 -1.8828
17178TIP3    H272950   4.213   0.840  11.705 -0.9902 -0.1074  2.1867
17179TIP3   OH272951   5.641   1.558   6.144 -0.1183 -0.0983  0.0130
17179TIP3    H172952   5.557   1.597   6.165 -0.6474 -1.4618  0.5443
17179TIP3    H272953   5.705   1.626   6.166 -1.0658  0.9634 -0.4246
17180TIP3   OH272954   4.516   0.603  16.556  0.1499  0.3705 -0.3248
17180TIP3    H172955   4.584   0.670  16.545 -0.6816  1.3067  0.0487
17180TIP3    H272956   4.512   0.589  16.651 -0.3870  0.5645 -0.3144
17181TIP3   OH272957   5.005   0.072   0.604 -0.2421 -0.2384  0.3757
17181TIP3    H172958   5.015   0.114   0.690 -0.8865  0.1716  0.2563
17181TIP3    H272959   4.925   0.021   0.612 -0.2235 -0.3186  0.0597
17182TIP3   OH272960   3.695   3.825  12.647  0.1367 -0.2758 -0.0772
17182TIP3    H172961   3.696   3.891  12.717  2.0009 -2.7456  2.4507
17182TIP3    H272962   3.769   3.848  12.592 -0.8221  1.1917 -0.8311
17183TIP3   OH272963   4.848   6.149   2.330  0.2118 -0.1056 -0.6812
17183TIP3    H172964   4.873   6.205   2.256  1.8972  0.5484  0.3303
17183TIP3    H272965   4.842   6.208   2.405  0.2594 -1.0006  0.0451
17184TIP3   OH272966   2.159   5.438   3.879  0.4080 -0.4505 -0.5017
17184TIP3    H172967   2.197   5.526   3.880  1.3976 -0.8516 -1.0256
17184TIP3    H272968   2.190   5.398   3.960 -1.8891  0.3805  0.9102
17185TIP3   OH272969   1.802   2.382   6.130 -0.3908  0.1593 -0.4808
17185TIP3    H172970   1.837   2.323   6.197 -0.0944 -0.3834 -1.1032
17185TIP3    H272971   1.824   2.470   6.161 -0.5187 -0.0664  0.2756
17186TIP3   OH272972   2.466   2.070  15.781  0.1859 -0.3473 -0.2392
17186TIP3    H172973   2.496   2.156  15.752  0.4516 -0.2534  0.3171
17186TIP3    H272974   2.544   2.014  15.774 -0.1427 -0.7055 -1.2243
17187TIP3   OH272975   4.741   0.280   3.867 -0.2132 -0.5827  0.0216
17187TIP3    H172976   4.831   0.290   3.837 -0.5210 -0.5602 -0.9220
17187TIP3    H272977   4.695   0.357   3.834 -0.6852 -0.8222  0.0987
17188TIP3   OH272978   0.390   4.768   4.417  0.0177 -0.2645 -0.4860
17188TIP3    H172979   0.298   4.770   4.392 -0.3210 -0.2134  0.7142
17188TIP3    H272980   0.421   4.857   4.405 -0.8006  0.3520  1.5778
17189TIP3   OH272981   1.252   0.992   2.272 -0.3971 -0.1030 -0.3854
17189TIP3    H172982   1.174   1.010   2.325  0.1684  1.2225  0.0306
17189TIP3    H272983   1.273   1.076   2.231  0.3196 -0.6498 -1.1820
17190TIP3   OH272984   1.757   0.757  14.757 -0.3071 -0.0969 -0.0313
17190TIP3    H172985   1.758   0.732  14.665 -0.4535  1.4310 -0.4773
17190TIP3    H272986   1.805   0.840  14.760 -1.0618  0.3272  1.1212
17191TIP3   OH272987   6.671   4.331  16.699 -0.0646 -0.4391  0.0100
17191TIP3    H172988   6.678   4.391  16.773 -0.7453  1.5275 -1.4217
17191TIP3    H272989   6.670   4.388  16.622  1.4813 -2.4300 -1.5980
17192TIP3   OH272990   5.826   6.748   2.033  0.5098 -0.1150 -0.8891
17192TIP3    H172991   5.881   6.691   2.086  2.2596  1.8324 -0.4954
17192TIP3    H272992   5.820   6.704   1.948 -1.1364 -2.5595  0.3444
17193TIP3   OH272993   3.521   0.130   2.148 -0.3852 -1.0519  0.0730
17193TIP3    H172994   3.493   0.210   2.104  1.3768 -1.0392 -1.1447
17193TIP3    H272995   3.470   0.127   2.229 -1.4580  0.5775 -0.5088
17194TIP3   OH272996   0.825   5.240  14.202  0.0545 -0.2233  0.6769
17194TIP3    H172997   0.751   5.286  14.163  0.9368  0.6877  0.0449
17194TIP3    H272998   0.865   5.192  14.129  0.8394  0.3143  0.7436
17195TIP3   OH272999   4.260   4.188  15.955  0.1996 -0.6112  0.1103
17195TIP3    H173000   4.191   4.126  15.934 -0.9839  0.3273  1.0741
17195TIP3    H273001   4.312   4.145  16.023  0.1002 -1.0283 -0.0805
17196TIP3   OH273002   2.008   0.837   5.877 -0.1153  0.2371 -0.0360
17196TIP3    H173003   2.032   0.858   5.967  1.0758  1.6085 -0.6305
17196TIP3    H273004   2.067   0.891   5.823  1.1547 -2.5853 -1.6898
17197TIP3   OH273005   0.550   6.696   1.612  0.2314  0.3204  0.2858
17197TIP3    H173006   0.523   6.641   1.686  1.5587 -0.4999  0.2018
17197TIP3    H273007   0.475   6.695   1.553 -0.9516  1.1894  1.7048
17198TIP3   OH273008   3.992   0.802   4.752 -0.1847 -0.1818  0.0652
17198TIP3    H173009   3.959   0.836   4.669  0.0310 -1.6103 -0.6255
17198TIP3    H273010   3.993   0.707   4.741  3.1451 -0.3041  0.4138
17199TIP3   OH273011   2.598   0.415   2.884  0.3217  0.5319 -0.0100
17199TIP3    H173012   2.617   0.474   2.812 -1.2323  1.8458  0.5887
17199TIP3    H273013   2.533   0.354   2.849 -0.1025  0.8939  0.1365
17200TIP3   OH273014   3.663   2.990   0.545  0.5959  0.1930  0.1971
17200TIP3    H173015   3.616   3.006   0.463  0.5091  1.4455  0.4698
17200TIP3    H273016   3.597   2.955   0.604  0.7876 -1.2805 -0.4256
17201TIP3   OH273017   5.079   3.258  16.437  0.3757  0.5361 -0.0541
17201TIP3    H173018   5.170   3.228  16.437  0.3779  0.4758 -1.3961
17201TIP3    H273019   5.085   3.353  16.443  0.5230  0.5223  0.0202
17202TIP3   OH273020   3.540   3.338   3.168 -0.0618 -0.0439 -0.5118
17202TIP3    H173021   3.567   3.370   3.082 -2.9857  0.5507 -1.3134
17202TIP3    H273022   3.462   3.389   3.190 -0.7462 -1.7620  1.4233
17203TIP3   OH273023   5.253   1.500   2.129 -0.0864  0.6527 -0.0817
17203TIP3    H173024   5.262   1.536   2.041  1.0224 -1.0443 -0.7155
17203TIP3    H273025   5.178   1.441   2.123 -0.1509  0.7094  0.1652
17204TIP3   OH273026   2.431   6.490  14.496  0.2361  0.3133  0.6805
17204TIP3    H173027   2.521   6.466  14.519 -0.1008  0.7452  2.6601
17204TIP3    H273028   2.379   6.414  14.523 -0.2116  0.9529  1.7051
17205TIP3   OH273029   5.927   4.848  17.097  0.1685 -0.5230 -0.2767
17205TIP3    H173030   5.935   4.937  17.133  0.9427 -0.6169 -0.2016
17205TIP3    H273031   5.839   4.846  17.059 -0.6075 -0.3594  1.4339
17206TIP3   OH273032   2.001   4.779  15.410 -0.3671  0.0871  0.7322
17206TIP3    H173033   2.088   4.818  15.421  0.0898 -0.3866 -0.8281
17206TIP3    H273034   2.000   4.705  15.470  0.9756 -0.8969 -0.3708
17207TIP3   OH273035   0.764   0.427  14.221 -0.2104  0.1980  0.6784
17207TIP3    H173036   0.748   0.360  14.287 -3.9418  1.3273  1.1764
17207TIP3    H273037   0.783   0.379  14.141  1.0343 -1.2948  1.8306
17208TIP3   OH273038   6.355   3.183  13.619 -0.3493  0.3579 -0.1946
17208TIP3    H173039   6.375   3.276  13.625 -1.0400  0.5441 -0.6629
17208TIP3    H273040   6.429   3.140  13.662  1.0843  1.0113 -1.8668
17209TIP3   OH273041   2.067   0.860   2.069 -0.0582  0.5292 -0.4563
17209TIP3    H173042   2.132   0.851   2.000  0.1206 -0.4820 -0.1667
17209TIP3    H273043   1.983   0.858   2.024  0.0420 -0.5402 -0.6256
17210TIP3   OH273044   0.031   0.860  11.963 -0.1394 -0.7464 -0.9365
17210TIP3    H173045  -0.043   0.841  12.021 -0.3905  1.0101 -0.6281
17210TIP3    H273046   0.104   0.812  12.000 -0.4575 -0.1937  0.4618
17211TIP3   OH273047   6.033   5.332   2.666  0.3693  0.1046 -0.0162
17211TIP3    H173048   6.047   5.245   2.630 -1.8917 -1.0283  1.6503
17211TIP3    H273049   5.973   5.374   2.605  0.2586 -0.0650 -0.0234
17212TIP3   OH273050   5.251   1.789   0.802  0.0766  0.2315  0.3814
17212TIP3    H173051   5.171   1.788   0.749  0.0714  0.4670  0.3830
17212TIP3    H273052   5.246   1.710   0.856  0.0897 -0.0191  0.0182
17213TIP3   OH273053   1.135   6.279   4.427  0.7927 -0.6895 -0.2578
17213TIP3    H173054   1.227   6.274   4.400  1.1658  1.6532  0.4122
17213TIP3    H273055   1.086   6.256   4.348  1.9266  2.3016 -2.0135
17214TIP3   OH273056   4.756   2.592  15.024  0.2864 -0.0375 -0.0746
17214TIP3    H173057   4.811   2.610  15.100  2.6775  1.0197 -1.8858
17214TIP3    H273058   4.782   2.659  14.960 -0.6445 -1.6364 -2.2595
17215TIP3   OH273059   4.794   3.688   2.852  0.0697 -0.3332  0.0450
17215TIP3    H173060   4.761   3.638   2.927 -1.1667 -1.9398 -1.4822
17215TIP3    H273061   4.745   3.770   2.855  0.0228 -0.3877  0.9802
17216TIP3   OH273062   0.207   6.134  11.698  0.4589 -0.0373 -0.4087
17216TIP3    H173063   0.258   6.156  11.620  1.0787  0.7767  0.2092
17216TIP3    H273064   0.183   6.219  11.736  1.8712 -0.3747  1.3630
17217TIP3   OH273065   2.477   1.465   6.775  0.6703 -0.3684 -0.0398
17217TIP3    H173066   2.497   1.374   6.797 -0.7929 -0.5888  0.4482
17217TIP3    H273067   2.561   1.510   6.784  1.0545 -1.3147  1.6171
17218TIP3   OH273068   3.333   6.733   1.842  0.3419  0.3364 -0.4369
17218TIP3    H173069   3.290   6.653   1.813 -1.4413  0.2192  2.2316
17218TIP3    H273070   3.418   6.704   1.876 -0.5704 -0.5725  1.1544
17219TIP3   OH273071   4.876   3.032  14.802 -0.2716  0.0595 -0.3254
17219TIP3    H173072   4.927   3.053  14.881 -1.8578  2.7253  0.1264
17219TIP3    H273073   4.860   2.938  14.808  2.8038 -0.5066  0.5371
17220TIP3   OH273074   2.236   3.781   5.577  0.3165  0.0555  0.6011
17220TIP3    H173075   2.279   3.758   5.495  0.7694 -2.8639  1.5499
17220TIP3    H273076   2.186   3.703   5.601 -1.1659  1.4447  2.2547
17221TIP3   OH273077   0.203   3.258   3.685  0.7443  0.2225  0.0360
17221TIP3    H173078   0.111   3.284   3.680  0.6219  0.0028  0.9032
17221TIP3    H273079   0.203   3.166   3.656  0.7365  0.3169 -0.2625
17222TIP3   OH273080   0.831   2.129   2.925 -0.1600  0.7360 -0.2038
17222TIP3    H173081   0.758   2.075   2.895 -0.2198  0.0840  1.0287
17222TIP3    H273082   0.910   2.084   2.893 -0.2251  0.1175  0.4746
17223TIP3   OH273083   1.370   3.771   5.004  0.1930  0.5307  0.1324
17223TIP3    H173084   1.362   3.683   5.040  0.1526  0.8482  0.9431
17223TIP3    H273085   1.460   3.797   5.022  0.1187  0.7650  0.1818
17224TIP3   OH273086   4.810   5.488  11.646  0.3162 -0.3876  0.3167
17224TIP3    H173087   4.746   5.478  11.716  2.3877 -0.2799  2.3516
17224TIP3    H273088   4.820   5.400  11.609  1.0914 -1.0393  1.9852
17225TIP3   OH273089   3.257   2.999  15.069 -0.4703  0.0007  0.0825
17225TIP3    H173090   3.334   3.040  15.028 -0.7380  2.2886  1.7096
17225TIP3    H273091   3.269   2.905  15.052  0.9397  0.5381 -2.5726
17226TIP3   OH273092   3.161   1.519   0.476  0.0611 -0.2206  0.2213
17226TIP3    H173093   3.244   1.548   0.439  0.3994 -1.5868 -0.1722
17226TIP3    H273094   3.098   1.587   0.453  0.6856 -0.0632 -1.0998
17227TIP3   OH273095   3.053   4.052   2.188  0.6953 -0.1788  1.0134
17227TIP3    H173096   3.024   3.967   2.156  1.3591 -0.1991  0.4321
17227TIP3    H273097   2.982   4.112   2.167  0.8839 -0.3022 -0.0003
17228TIP3   OH273098   5.889   2.034   4.307  0.4211 -0.1081  0.5015
17228TIP3    H173099   5.900   2.121   4.269  2.0172 -0.4348  0.1334
17228TIP3    H273100   5.974   1.992   4.295 -0.5333 -2.0118 -0.0811
17229TIP3   OH273101   0.536   2.772   2.594 -0.7683  0.4914 -0.1351
17229TIP3    H173102   0.590   2.756   2.517  0.5599 -1.5165  1.1218
17229TIP3    H273103   0.523   2.686   2.633  0.1867  1.5701  2.8868
17230TIP3   OH273104   5.054   5.090   6.253 -0.0891 -0.1148 -0.0202
17230TIP3    H173105   5.115   5.155   6.290  0.0601  1.4217 -2.6811
17230TIP3    H273106   4.970   5.110   6.293 -0.0897  1.9694 -0.9189
17231TIP3   OH273107   5.756   1.295   1.190 -0.3747 -0.3668 -0.4585
17231TIP3    H173108   5.850   1.309   1.187 -0.1540 -1.5915  0.2946
17231TIP3    H273109   5.724   1.332   1.108  0.8604 -0.6907 -1.1037
17232TIP3   OH273110   5.052   5.247  13.646 -0.0840  0.5248 -0.0850
17232TIP3    H173111   5.029   5.180  13.582  0.8155 -1.3045  1.4198
17232TIP3    H273112   5.148   5.247  13.647 -0.0488 -0.4540  2.1592
17233TIP3   OH273113   4.787   5.995   3.925 -0.0417 -0.4005  0.0504
17233TIP3    H173114   4.755   5.943   3.998 -0.5295  1.0014  0.8686
17233TIP3    H273115   4.722   6.065   3.914  0.9213  0.4344 -0.5730
17234TIP3   OH273116   0.283   5.198   3.406 -0.0922  0.2417  0.2483
17234TIP3    H173117   0.307   5.146   3.329 -0.4450  0.0356  0.2763
17234TIP3    H273118   0.221   5.263   3.372 -2.5783 -1.6741  0.8425
17235TIP3   OH273119   2.631   3.503   4.031 -0.0670  0.0690 -0.1363
17235TIP3    H173120   2.686   3.435   4.070 -1.6344 -0.4618  1.3195
17235TIP3    H273121   2.682   3.584   4.041  2.1601 -0.8805 -2.5905
17236TIP3   OH273122   4.479   0.075  16.927  1.1486  0.1290  0.0031
17236TIP3    H173123   4.535   0.126  16.869 -0.2209  1.2448 -0.3906
17236TIP3    H273124   4.394   0.073  16.883  0.5566 -0.5399  1.1278
17237TIP3   OH273125   4.004   1.683  17.056  0.4488 -0.1134  0.0213
17237TIP3    H173126   4.048   1.679  17.141  0.5849  0.4962 -0.0145
17237TIP3    H273127   3.956   1.601  17.050 -1.7811  0.9304  1.8890
17238TIP3   OH273128   2.210   2.976  13.401  0.0933  0.2515 -0.4627
17238TIP3    H173129   2.185   3.039  13.468 -0.3500  0.4946 -0.8495
17238TIP3    H273130   2.302   2.957  13.419  0.1310  0.7321 -0.1227
17239TIP3   OH273131   4.020   3.475   0.576  0.1662 -0.3741 -0.0859
17239TIP3    H173132   3.972   3.509   0.651  1.4648  2.7576 -0.5227
17239TIP3    H273133   4.111   3.498   0.593  0.7333 -1.1369 -1.8315
17240TIP3   OH273134   5.533   2.042  17.360  0.1326  0.1704  0.0683
17240TIP3    H173135   5.507   1.958  17.321  2.0653 -0.6050  0.3646
17240TIP3    H273136   5.575   2.018  17.443  1.5314  1.3458 -0.2718
17241TIP3   OH273137   1.037   4.525   0.564 -0.4149  0.4581 -0.4306
17241TIP3    H173138   1.118   4.518   0.514  0.5748  2.6359  0.7522
17241TIP3    H273139   1.021   4.619   0.573 -1.6834  0.1307  1.5059
17242TIP3   OH273140   4.606   4.190  10.998 -0.4609 -0.0237 -0.1870
17242TIP3    H173141   4.670   4.260  11.012  0.7074 -1.1901  0.6088
17242TIP3    H273142   4.603   4.178  10.903  2.3227 -1.4938 -0.1819
17243TIP3   OH273143   6.556   0.645  17.094 -0.3695  0.1559  0.5521
17243TIP3    H173144   6.643   0.620  17.062 -0.7587  0.4025 -0.7434
17243TIP3    H273145   6.565   0.645  17.189  0.3337 -2.3585  0.5447
17244TIP3   OH273146   0.364   4.002  12.211  0.1406  0.7263 -0.0606
17244TIP3    H173147   0.456   3.977  12.205 -0.1543 -0.8290  1.2386
17244TIP3    H273148   0.357   4.045  12.297 -0.4775  0.1593  0.1796
17245TIP3   OH273149   2.262   5.405   5.802 -0.2295 -0.6381 -0.2231
17245TIP3    H173150   2.332   5.457   5.841 -0.2309 -1.2442  0.6276
17245TIP3    H273151   2.304   5.324   5.775 -0.3170 -0.3986 -1.1069
17246TIP3   OH273152   0.455   5.227   0.638  0.4822 -0.2410 -0.2889
17246TIP3    H173153   0.471   5.138   0.605  1.6427 -0.1551  0.0024
17246TIP3    H273154   0.450   5.217   0.733 -0.1636 -0.0979 -0.3042
17247TIP3   OH273155   3.265   6.464  12.714 -0.2147 -0.5395  0.0517
17247TIP3    H173156   3.203   6.518  12.666  0.5155 -0.4570 -0.8276
17247TIP3    H273157   3.294   6.520  12.786 -1.2267 -0.6227  0.5460
17248TIP3   OH273158   1.847   0.898   2.676  0.1526 -0.2337  0.3388
17248TIP3    H173159   1.942   0.894   2.684  0.2309 -0.9502 -0.7544
17248TIP3    H273160   1.832   0.925   2.585 -0.6876  0.0781  0.5610
17249TIP3   OH273161   4.687   4.986   0.968  0.1591 -0.1210 -0.4513
17249TIP3    H173162   4.694   5.055   1.034  1.8662 -0.9332  0.2768
17249TIP3    H273163   4.594   4.983   0.946 -0.4441  0.3003  1.7967
17250TIP3   OH273164   0.320   1.215   2.827 -0.0750 -0.1610  0.1667
17250TIP3    H173165   0.392   1.156   2.850 -0.4815 -0.7922 -0.1294
17250TIP3    H273166   0.273   1.168   2.758 -0.4200  0.5112 -0.0574
17251TIP3   OH273167   2.991   0.105   4.512 -0.1380  0.0323  0.1856
17251TIP3    H173168   3.012   0.167   4.442  0.1652 -0.6281 -0.3106
17251TIP3    H273169   3.073   0.060   4.530 -0.2690  0.0302  0.8134
17252TIP3   OH273170   3.667   1.376   0.778  0.0962  0.2245 -0.2619
17252TIP3    H173171   3.657   1.284   0.805  2.5148  0.4032  1.5843
17252TIP3    H273172   3.727   1.372   0.704 -0.6899  0.2775 -0.9186
17253TIP3   OH273173   2.090   3.078  16.049  0.0989  0.5392 -0.6378
17253TIP3    H173174   2.110   3.022  16.124  0.1680  0.1061 -0.9768
17253TIP3    H273175   2.147   3.153  16.059 -0.2755  0.7376  0.0358
17254TIP3   OH273176   4.886   1.343  13.544  0.4395 -0.3598 -0.4195
17254TIP3    H173177   4.871   1.304  13.630  2.7383 -2.1970 -0.7559
17254TIP3    H273178   4.934   1.424  13.562  0.4495 -0.4630  0.0285
17255TIP3   OH273179   4.446   3.611  16.372 -0.4962 -0.2134 -0.1467
17255TIP3    H173180   4.431   3.587  16.464 -1.6774 -0.0826 -0.2821
17255TIP3    H273181   4.455   3.528  16.327  3.0643 -0.3179  0.4593
17256TIP3   OH273182   2.072   6.243   1.770 -0.5106 -0.1667 -0.2047
17256TIP3    H173183   2.107   6.213   1.854 -1.8116  1.3529  0.9342
17256TIP3    H273184   1.983   6.273   1.790 -0.6802  0.6637 -2.0255
17257TIP3   OH273185   3.022   0.065  11.287  0.3331  0.0862 -0.1014
17257TIP3    H173186   3.103   0.088  11.242 -0.6920 -0.0813 -2.1628
17257TIP3    H273187   2.975   0.009  11.225 -1.2380 -0.0575  1.1449
17258TIP3   OH273188   1.317   5.092  11.382  0.3325  0.0972  0.3009
17258TIP3    H173189   1.392   5.140  11.347  0.6374  0.5404  1.5414
17258TIP3    H273190   1.352   5.044  11.457 -0.5564  0.0684  0.7109
17259TIP3   OH273191   2.530   6.328  14.042  0.0074 -0.4293  0.9529
17259TIP3    H173192   2.603   6.389  14.046  0.5098 -0.9494  0.0417
17259TIP3    H273193   2.541   6.272  14.119  1.2013 -1.1822  0.2643
17260TIP3   OH273194   0.622   6.542  17.329 -0.3173 -0.5080 -0.0921
17260TIP3    H173195   0.613   6.629  17.369  0.3365 -0.4037 -0.1571
17260TIP3    H273196   0.680   6.494  17.388 -1.6537 -1.3223  0.5908
17261TIP3   OH273197   3.996   0.558   3.734  0.1231  0.1095  0.2253
17261TIP3    H173198   3.940   0.628   3.767  0.3059 -0.7082  2.4424
17261TIP3    H273199   3.997   0.493   3.804 -0.4945 -2.4254 -1.9364
17262TIP3   OH273200   2.703   2.939  17.305  0.3462  0.6605  0.8708
17262TIP3    H173201   2.718   2.996  17.381 -0.4680  0.4073  1.2417
17262TIP3    H273202   2.765   2.867  17.316 -1.2602 -0.5531  2.5481
17263TIP3   OH273203   5.682   2.342   2.216  0.6516  0.0573 -0.2304
17263TIP3    H173204   5.648   2.431   2.208  0.5193 -0.0157 -0.5151
17263TIP3    H273205   5.682   2.324   2.310 -1.8583 -0.6110 -0.2789
17264TIP3   OH273206   3.466   6.497   4.399 -0.2322  0.0865 -0.5373
17264TIP3    H173207   3.474   6.592   4.397  0.9077  0.0503  0.6174
17264TIP3    H273208   3.502   6.472   4.484  0.1267 -1.4233 -1.0955
17265TIP3   OH273209   2.308   1.863  14.975  0.4940 -0.0538  0.2162
17265TIP3    H173210   2.341   1.876  14.886 -1.5707 -0.1099 -0.6205
17265TIP3    H273211   2.300   1.768  14.984  1.4714 -0.1011  0.8087
17266TIP3   OH273212   2.919   5.803  16.212 -0.7190 -0.0490  0.0048
17266TIP3    H173213   2.904   5.783  16.120  2.1645 -1.0741 -0.3621
17266TIP3    H273214   2.984   5.873  16.212 -1.6193  0.8390  1.3017
17267TIP3   OH273215   4.698   0.030   2.739  0.2114  0.2655 -0.1658
17267TIP3    H173216   4.655   0.012   2.656 -0.2907 -0.7153  0.2828
17267TIP3    H273217   4.786   0.059   2.715  0.8009 -2.0071 -1.0210
17268TIP3   OH273218   4.377   5.375  16.265 -0.3423  0.4426 -0.3521
17268TIP3    H173219   4.431   5.298  16.284  2.0515  1.3289 -2.8379
17268TIP3    H273220   4.301   5.340  16.219  0.8008 -0.4894 -1.6157
17269TIP3   OH273221   5.730   5.667  15.888  0.2217 -0.6707 -0.0316
17269TIP3    H173222   5.810   5.717  15.871 -1.3316  2.3224  0.8071
17269TIP3    H273223   5.724   5.665  15.984  0.5792 -3.2241  0.0042
17270TIP3   OH273224   3.475   0.901  15.405  0.5514 -0.0585  0.6089
17270TIP3    H173225   3.438   0.846  15.335  1.1273  0.2796  0.0280
17270TIP3    H273226   3.560   0.861  15.424  0.4571 -0.0632  1.0171
17271TIP3   OH273227   6.041   4.928   5.951 -0.4289 -0.6234 -0.0421
17271TIP3    H173228   6.014   4.861   6.014 -1.6093  0.3261  0.4949
17271TIP3    H273229   6.136   4.922   5.948 -0.3786 -0.8817  1.5957
17272TIP3   OH273230   4.808   0.840  17.175 -0.6651  0.1846  0.2604
17272TIP3    H173231   4.890   0.791  17.177 -0.4414  0.4789 -0.9240
17272TIP3    H273232   4.776   0.829  17.086 -2.3438 -0.5944  0.9336
17273TIP3   OH273233   3.343   4.582   1.489 -0.6503  0.1084  0.3714
17273TIP3    H173234   3.394   4.575   1.408 -1.1887 -0.5928  0.0903
17273TIP3    H273235   3.383   4.519   1.548  0.1129  1.0220  0.8790
17274TIP3   OH273236   0.474   4.469  15.019  0.0052 -0.4267  0.0355
17274TIP3    H173237   0.393   4.515  15.041  0.3779 -0.7293  2.2929
17274TIP3    H273238   0.532   4.487  15.092  1.4375 -1.5270 -0.7797
17275TIP3   OH273239   4.531   4.508  13.425  0.0684 -0.3790  0.4627
17275TIP3    H173240   4.526   4.549  13.512  0.1234  0.1545  0.2188
17275TIP3    H273241   4.475   4.563  13.370  0.2727 -0.5397  0.0932
17276TIP3   OH273242   3.472   2.447  15.356 -0.9466 -0.4010  0.1993
17276TIP3    H173243   3.418   2.368  15.361 -2.1946  0.3967 -0.3029
17276TIP3    H273244   3.441   2.503  15.427  1.5029 -1.2386  2.0798
17277TIP3   OH273245   6.203   1.369   2.885 -0.0275  0.9492  0.0213
17277TIP3    H173246   6.182   1.458   2.855  1.1500  1.3426  0.2888
17277TIP3    H273247   6.257   1.383   2.964  1.1321  0.0339 -0.5809
17278TIP3   OH273248   2.384   0.110  16.847  0.1510 -0.0275  0.0232
17278TIP3    H173249   2.424   0.134  16.764 -1.9671 -0.4370 -1.1736
17278TIP3    H273250   2.455   0.119  16.911  1.8758  0.1265 -1.8214
17279TIP3   OH273251   2.344   4.299   0.904 -0.0652  0.0930  0.4210
17279TIP3    H173252   2.276   4.362   0.930 -0.8450 -0.4557 -0.2415
17279TIP3    H273253   2.362   4.250   0.983 -0.1836  0.4783  0.6925
17280TIP3   OH273254   1.396   6.255  17.198  0.2666  0.0965 -0.1943
17280TIP3    H173255   1.371   6.307  17.274  1.9840  0.3604  0.2308
17280TIP3    H273256   1.365   6.306  17.123  1.6729  1.6743  0.2192
17281TIP3   OH273257   6.676   2.597   1.766 -0.1419  0.9907  0.8384
17281TIP3    H173258   6.708   2.677   1.807  0.5550 -0.0654  2.4805
17281TIP3    H273259   6.623   2.555   1.834  0.3398 -0.4204  0.3733
17282TIP3   OH273260   2.718   6.494   5.810  0.5685 -0.1405  0.3511
17282TIP3    H173261   2.721   6.483   5.715  2.1506 -0.8718  0.4606
17282TIP3    H273262   2.808   6.481   5.839  0.2475  0.8263  1.8879
17283TIP3   OH273263   0.407   2.185  16.517 -0.5513 -0.4004  0.0092
17283TIP3    H173264   0.426   2.092  16.526 -1.8132 -0.6277  0.4391
17283TIP3    H273265   0.454   2.226  16.590  0.1256 -0.6639 -0.2668
17284TIP3   OH273266   2.372   0.826  11.865 -0.3960 -0.0392 -1.2003
17284TIP3    H173267   2.390   0.758  11.929 -2.9599 -0.3787 -0.7261
17284TIP3    H273268   2.323   0.893  11.913  1.4122  1.8416 -1.8269
17285TIP3   OH273269   1.562   6.129   0.012 -0.1887  0.2851 -0.6377
17285TIP3    H173270   1.577   6.212   0.058 -2.4445  0.0237  0.7019
17285TIP3    H273271   1.498   6.152  -0.056 -0.9969 -0.3811 -0.1125
17286TIP3   OH273272   0.951   1.117   4.061  0.2183 -0.4267  0.1191
17286TIP3    H173273   0.935   1.147   4.151 -1.1529  0.0355 -0.2536
17286TIP3    H273274   1.045   1.100   4.058  0.5553  1.0309  1.2116
17287TIP3   OH273275   0.134   2.876   2.877  0.0416 -0.3725 -0.0487
17287TIP3    H173276   0.122   2.917   2.963  0.5388  1.5319 -0.8392
17287TIP3    H273277   0.180   2.942   2.825 -3.8446  0.2650 -3.0985
17288TIP3   OH273278   2.559   1.003   1.959  0.2774  0.4719 -0.5331
17288TIP3    H173279   2.504   1.064   1.910 -0.0850  1.8525  1.4566
17288TIP3    H273280   2.638   1.053   1.979  1.5937 -0.9602 -1.9724
17289TIP3   OH273281   6.067   4.737   1.615  0.5429 -0.0246 -0.1849
17289TIP3    H173282   6.119   4.799   1.563  0.3429 -1.4887 -2.2556
17289TIP3    H273283   6.059   4.660   1.559  0.8086 -1.9835  2.3056
17290TIP3   OH273284   3.620   0.219   5.957 -0.0087  0.2060 -0.1800
17290TIP3    H173285   3.556   0.161   5.999  0.5173 -0.4405 -0.2708
17290TIP3    H273286   3.610   0.302   6.004 -0.6422 -0.0012  0.0673
17291TIP3   OH273287   0.608   2.858   3.434  0.0223 -0.4949 -0.1548
17291TIP3    H173288   0.670   2.897   3.496 -0.6835 -1.6061  1.3087
17291TIP3    H273289   0.658   2.790   3.389  0.2581 -0.4140 -0.0153
17292TIP3   OH273290   1.446   6.161  12.178 -0.3766  0.7684 -0.3096
17292TIP3    H173291   1.515   6.094  12.179  0.4899  1.6154 -0.9105
17292TIP3    H273292   1.366   6.113  12.159  0.1918 -0.1296 -0.5152
17293TIP3   OH273293   5.615   1.155  16.523  0.6376  0.1132  0.1653
17293TIP3    H173294   5.651   1.138  16.435  3.3326  0.5006  1.0962
17293TIP3    H273295   5.573   1.072  16.547  0.7375 -0.3291 -1.0714
17294TIP3   OH273296   2.428   2.278  12.822 -0.1645 -0.0325  0.3786
17294TIP3    H173297   2.500   2.215  12.813 -0.5086 -0.4541  0.5562
17294TIP3    H273298   2.459   2.355  12.774  0.6812  0.0370  1.0076
17295TIP3   OH273299   4.558   6.671   5.506  0.2037  0.0963  0.4096
17295TIP3    H173300   4.469   6.678   5.538  0.1986  0.2778  0.3578
17295TIP3    H273301   4.558   6.590   5.454  0.2512 -0.2748  0.9741
17296TIP3   OH273302   1.850   1.782   3.983  0.0023  0.2378 -0.5844
17296TIP3    H173303   1.815   1.724   3.916 -0.3103 -0.2009 -0.0509
17296TIP3    H273304   1.826   1.741   4.066  1.0432  0.3718 -0.1997
17297TIP3   OH273305   4.399   1.495  14.721 -0.0753 -0.6229 -0.6934
17297TIP3    H173306   4.415   1.551  14.797 -3.6629  1.1989 -1.0539
17297TIP3    H273307   4.462   1.423  14.730 -0.3126 -0.5364  3.9914
17298TIP3   OH273308   0.559   5.716  11.014 -0.0897 -0.2729  0.4036
17298TIP3    H173309   0.501   5.675  10.950  1.0317 -1.7218  0.2423
17298TIP3    H273310   0.557   5.809  10.993 -1.2187 -0.4819 -0.5130
17299TIP3   OH273311   6.246   3.835  13.166  0.2977 -0.0555  0.5907
17299TIP3    H173312   6.337   3.822  13.140  0.6962 -1.9083  2.5688
17299TIP3    H273313   6.238   3.929  13.183  1.1529  0.4952 -1.7660
17300TIP3   OH273314   1.065   3.556  14.125  0.1966 -0.2202 -0.1933
17300TIP3    H173315   1.021   3.470  14.127 -0.0527 -0.1304 -1.2564
17300TIP3    H273316   1.006   3.611  14.075  0.3705  0.5854  0.4728
17301TIP3   OH273317   0.300   5.757  12.200 -0.3868 -0.3595  0.1030
17301TIP3    H173318   0.303   5.851  12.221 -0.2025 -0.2439 -0.4260
17301TIP3    H273319   0.308   5.713  12.285  2.1580  0.0751  0.1461
17302TIP3   OH273320   6.702   2.874  16.775 -0.5561  0.3397 -0.0796
17302TIP3    H173321   6.730   2.818  16.848 -2.2928 -1.1625 -0.4809
17302TIP3    H273322   6.616   2.905  16.801 -0.2972  1.5313 -0.5989
17303TIP3   OH273323   3.465   2.453   4.137  0.4205  0.0190  0.4530
17303TIP3    H173324   3.401   2.388   4.107  1.9185 -0.5335 -1.7700
17303TIP3    H273325   3.449   2.460   4.231 -3.5516  0.6806 -0.1041
17304TIP3   OH273326   5.495   4.436   6.335 -0.1541 -0.3416  0.2009
17304TIP3    H173327   5.590   4.447   6.341  0.0685 -0.8385 -1.7133
17304TIP3    H273328   5.460   4.525   6.331  0.4617 -0.1267 -1.3505
17305TIP3   OH273329   5.714   6.652   2.776  0.0443 -0.0959 -0.5965
17305TIP3    H173330   5.678   6.595   2.844 -1.5800  0.8153 -0.6213
17305TIP3    H273331   5.761   6.594   2.717 -0.0669 -1.1485  0.3213
17306TIP3   OH273332   0.562   1.759  16.308  0.5867 -0.5208 -0.4750
17306TIP3    H173333   0.539   1.728  16.221  0.4850 -0.8241 -0.3396
17306TIP3    H273334   0.630   1.825  16.292 -0.7009  0.7429 -0.9070
17307TIP3   OH273335   0.282   0.266   2.024  0.5296  0.1094 -0.2478
17307TIP3    H173336   0.253   0.287   1.935  1.3598  1.1228 -0.2923
17307TIP3    H273337   0.259   0.174   2.035  0.1362  0.0508 -1.4027
17308TIP3   OH273338   6.636   6.649   2.212 -0.1294  0.3943 -1.1019
17308TIP3    H173339   6.728   6.676   2.221  0.1350 -1.0176  1.1316
17308TIP3    H273340   6.639   6.577   2.148  0.5528 -0.5396 -0.0511
17309TIP3   OH273341   6.021   5.066   6.630 -0.1851 -0.0640 -0.4064
17309TIP3    H173342   5.955   5.006   6.664  0.3059 -0.2186  0.2962
17309TIP3    H273343   5.986   5.153   6.649 -0.6189 -0.1257 -0.8911
17310TIP3   OH273344   2.910   3.454   6.092 -0.2430  0.5061 -0.2596
17310TIP3    H173345   2.919   3.410   6.177  2.9887  1.4541  0.0140
17310TIP3    H273346   2.937   3.388   6.028 -0.6959  0.4182 -0.3602
17311TIP3   OH273347   0.120   4.566  15.551  0.5044  0.4850  0.3685
17311TIP3    H173348   0.027   4.561  15.571  0.4267  1.8760  0.4273
17311TIP3    H273349   0.134   4.496  15.487 -1.2552  2.1798 -2.0764
17312TIP3   OH273350   2.832   1.145  14.017  0.5947  0.6085  0.1909
17312TIP3    H173351   2.778   1.224  14.013  0.5088  0.4959 -1.5619
17312TIP3    H273352   2.917   1.172  13.983 -0.1713 -0.5562 -3.0176
17313TIP3   OH273353   4.843   0.498   0.177 -0.2699 -0.1708  0.3206
17313TIP3    H173354   4.803   0.547   0.249 -0.5736 -1.2066  0.8823
17313TIP3    H273355   4.935   0.489   0.201 -0.9363 -3.3127  2.3033
17314TIP3   OH273356   3.473   4.029   2.929 -0.4005 -0.4481  0.5820
17314TIP3    H173357   3.474   4.107   2.874  1.4784  0.0983  1.3280
17314TIP3    H273358   3.446   4.060   3.015 -0.2355 -0.7437  0.7421
17315TIP3   OH273359   0.423   1.098   1.044  0.0883 -0.5900 -0.1170
17315TIP3    H173360   0.397   1.173   1.097  1.6518  0.4017 -0.6790
17315TIP3    H273361   0.514   1.115   1.021 -0.0635 -1.7530 -1.8080
17316TIP3   OH273362   4.189   2.007   1.956 -0.2530 -0.1691 -0.1300
17316TIP3    H173363   4.175   1.934   2.016 -1.2426 -0.1244 -0.2953
17316TIP3    H273364   4.152   2.083   2.002 -1.9702 -0.3168 -1.2129
17317TIP3   OH273365   6.368   0.175   2.583 -0.0764  0.8294 -0.4338
17317TIP3    H173366   6.439   0.200   2.523  0.2510 -0.9816 -0.8814
17317TIP3    H273367   6.291   0.219   2.549  0.5161  1.5150 -0.9274
17318TIP3   OH273368   4.105   1.535  14.077 -0.4682 -0.0135  0.1428
17318TIP3    H173369   4.069   1.616  14.113  0.1948  0.0876  0.6030
17318TIP3    H273370   4.059   1.523  13.995  0.4454  1.6268 -0.6742
17319TIP3   OH273371   3.686   5.929  12.378 -0.4276 -0.2007 -0.1956
17319TIP3    H173372   3.715   5.975  12.299 -0.2948 -0.6850 -0.4366
17319TIP3    H273373   3.729   5.843  12.372  0.7249  0.2484  1.1254
17320TIP3   OH273374   3.635   0.976  11.095 -0.7034 -0.0114 -0.3218
17320TIP3    H173375   3.618   0.950  11.004  0.0246  1.3431 -0.8879
17320TIP3    H273376   3.551   1.011  11.126 -0.9544 -0.4730 -0.4717
17321TIP3   OH273377   5.815   5.411   4.710  0.1240  0.3015 -0.0857
17321TIP3    H173378   5.733   5.365   4.722  0.0580 -0.5408 -2.9881
17321TIP3    H273379   5.882   5.348   4.737 -0.0903  0.7094  1.5260
17322TIP3   OH273380   1.312   6.354  11.801 -0.0212  0.1757  0.1930
17322TIP3    H173381   1.364   6.434  11.791  1.3813 -0.7521 -0.2486
17322TIP3    H273382   1.326   6.329  11.892 -1.0000  0.7671  0.5223
17323TIP3   OH273383   4.559   5.623  13.494 -0.6228 -0.4125 -0.5094
17323TIP3    H173384   4.520   5.655  13.412  0.2739 -0.1369 -0.8430
17323TIP3    H273385   4.602   5.541  13.468  0.1373 -0.0441 -0.4499
17324TIP3   OH273386   5.356   4.788  14.470  0.3897 -0.1489 -0.1867
17324TIP3    H173387   5.318   4.781  14.382 -0.5119  0.8438  0.1045
17324TIP3    H273388   5.294   4.744  14.527 -0.4890  1.6465  0.3185
17325TIP3   OH273389   2.780   1.529  15.079  0.4692 -0.6626  0.1884
17325TIP3    H173390   2.708   1.554  15.137 -0.0156 -0.3686 -0.5182
17325TIP3    H273391   2.738   1.477  15.010  0.7237  0.5415 -0.9063
17326TIP3   OH273392   6.737   6.102   3.126  0.3373 -0.1874 -0.3478
17326TIP3    H173393   6.789   6.122   3.204 -1.2026 -1.0390  0.9681
17326TIP3    H273394   6.793   6.044   3.075  0.9090 -0.6579  0.7648
17327TIP3   OH273395   0.103   3.456   2.366  0.1883  0.5048 -0.1455
17327TIP3    H173396   0.148   3.443   2.283  1.7377  0.7118  0.6170
17327TIP3    H273397   0.073   3.547   2.363  0.6341  0.6472 -0.2971
17328TIP3   OH273398   5.484   5.424  15.110  0.1160 -0.2164  1.0836
17328TIP3    H173399   5.396   5.393  15.086  0.6256  0.0492 -1.4171
17328TIP3    H273400   5.531   5.345  15.136 -0.4747 -0.5514  1.1617
17329TIP3   OH273401   2.625   5.063   0.454 -0.5190 -0.8413 -0.2226
17329TIP3    H173402   2.708   5.015   0.452 -1.1335 -1.9438  0.1265
17329TIP3    H273403   2.578   5.032   0.376 -0.4864  0.0130 -0.5925
17330TIP3   OH273404   5.964   4.339   5.606  0.0959  0.3516 -0.5248
17330TIP3    H173405   6.035   4.278   5.586  0.3275  0.2915  0.4165
17330TIP3    H273406   5.962   4.343   5.702 -1.9426 -0.5651 -0.4700
17331TIP3   OH273407   0.491   1.872   4.424  0.0900 -0.1374 -0.6590
17331TIP3    H173408   0.444   1.949   4.455 -0.5207 -0.8764  0.2943
17331TIP3    H273409   0.458   1.800   4.478  2.2119 -0.7187 -0.0565
17332TIP3   OH273410   2.195   1.011  16.758  0.5059  0.0753  0.4223
17332TIP3    H173411   2.224   1.018  16.849 -1.3804 -1.4705  1.2101
17332TIP3    H273412   2.275   0.990  16.709  1.2735 -0.8495  1.9840
17333TIP3   OH273413   4.838   3.096  12.446 -0.0436  0.1734  0.9974
17333TIP3    H173414   4.814   3.046  12.524 -0.6548 -1.3829 -0.1355
17333TIP3    H273415   4.928   3.125  12.462 -0.4442  0.6137  2.6129
17334TIP3   OH273416   3.626   0.036  14.414  0.1171 -0.4048  0.0231
17334TIP3    H173417   3.622  -0.056  14.441  0.1968  0.4114  3.2401
17334TIP3    H273418   3.536   0.068  14.422  0.1130 -0.1448 -0.9386
17335TIP3   OH273419   4.435   5.825  11.771  0.2493  0.7388  0.5399
17335TIP3    H173420   4.436   5.752  11.833  0.0831 -0.1944 -0.5430
17335TIP3    H273421   4.373   5.799  11.703 -1.5919  2.8717  1.2732
17336TIP3   OH273422   6.293   1.710   5.734 -0.1872 -0.3703 -0.1890
17336TIP3    H173423   6.379   1.670   5.741 -0.4895 -1.1301 -0.6933
17336TIP3    H273424   6.309   1.804   5.740  0.6456 -0.5178 -0.0483
17337TIP3   OH273425   3.296   1.918  12.532  0.4270  0.2210 -0.5055
17337TIP3    H173426   3.249   1.869  12.464 -0.8888 -0.1106  0.5851
17337TIP3    H273427   3.360   1.856  12.567  1.4133  0.5306 -1.7025
17338TIP3   OH273428   5.543   4.809  16.353 -0.1965  0.4450 -0.0452
17338TIP3    H173429   5.580   4.857  16.279  1.7812  0.4483  0.8786
17338TIP3    H273430   5.617   4.761  16.390 -1.3738 -0.4542  1.2610
17339TIP3   OH273431   5.644   6.740   2.482 -0.3605 -0.5309 -0.8153
17339TIP3    H173432   5.603   6.656   2.502 -0.0374 -1.0384 -2.1737
17339TIP3    H273433   5.651   6.742   2.387  4.0468 -1.1982 -0.7576
17340TIP3   OH273434   4.002   1.463   3.769  0.1825 -0.4654  0.0749
17340TIP3    H173435   4.009   1.405   3.845  0.0362 -1.5462 -0.7125
17340TIP3    H273436   3.947   1.414   3.707  1.5974 -0.3138 -1.3529
17341TIP3   OH273437   6.623   1.022  17.011 -0.7252  0.9668  0.1335
17341TIP3    H173438   6.711   0.995  16.988 -0.9963  0.4480 -0.3168
17341TIP3    H273439   6.620   1.116  16.990 -0.4421  0.8728 -0.3224
17342TIP3   OH273440   1.798   5.611  14.245 -0.0801 -0.4636 -0.0995
17342TIP3    H173441   1.799   5.516  14.249 -1.4509 -0.4724  0.5576
17342TIP3    H273442   1.759   5.639  14.328 -0.3492  0.6357 -0.5680
17343TIP3   OH273443   4.416   1.961  17.036 -0.1549  0.2585  0.1101
17343TIP3    H173444   4.383   1.887  16.984  1.2330  0.5364 -1.2305
17343TIP3    H273445   4.391   2.038  16.986  1.4079  0.5195 -0.3072
17344TIP3   OH273446   0.089   0.190  13.801  0.0280  0.3131  0.5781
17344TIP3    H173447   0.042   0.274  13.799 -0.8928 -0.0934  2.7650
17344TIP3    H273448   0.020   0.124  13.798  0.7261 -0.3984 -0.7117
17345TIP3   OH273449   3.660   3.146  10.989  0.1213  0.3408 -0.1614
17345TIP3    H173450   3.722   3.219  10.985  0.8187 -0.2357 -0.1070
17345TIP3    H273451   3.711   3.070  10.961 -1.0693  0.1765 -2.0687
17346TIP3   OH273452   1.362   4.917  16.153 -0.2676  0.5575 -0.4779
17346TIP3    H173453   1.289   4.940  16.096 -0.8480 -0.3180 -0.1285
17346TIP3    H273454   1.437   4.908  16.094 -0.8072 -0.1242 -1.0869
17347TIP3   OH273455   5.648   6.071   0.760  0.4771 -0.0727  0.0626
17347TIP3    H173456   5.632   6.036   0.848  1.1593 -1.3695 -0.3093
17347TIP3    H273457   5.689   6.156   0.776 -1.4864  0.7661  0.9911
17348TIP3   OH273458   0.836   3.921   5.197 -0.0655 -0.2399  0.2580
17348TIP3    H173459   0.751   3.933   5.156  0.5382  1.7870 -0.4937
17348TIP3    H273460   0.885   3.867   5.135 -0.2629 -0.0071 -0.1039
17349TIP3   OH273461   5.867   4.909  15.306 -1.4904 -0.2193 -0.2129
17349TIP3    H173462   5.919   4.952  15.238 -3.1292 -1.4023 -2.3321
17349TIP3    H273463   5.928   4.897  15.379  0.4908  0.6585 -1.6498
17350TIP3   OH273464   6.223   0.268   4.361  0.0402  0.6166 -0.6996
17350TIP3    H173465   6.296   0.282   4.301  0.9173  0.6840  0.3401
17350TIP3    H273466   6.264   0.231   4.440 -1.1237  0.1396 -0.2940
17351TIP3   OH273467   2.637   1.067  13.316  0.5677 -0.2057  0.3995
17351TIP3    H173468   2.718   1.024  13.342 -0.0852 -0.9784  1.2054
17351TIP3    H273469   2.567   1.011  13.350 -0.3149  0.0308 -0.9514
17352TIP3   OH273470   3.438   5.643  16.933  0.5330  0.8074 -0.2816
17352TIP3    H173471   3.450   5.686  16.849  0.5145  1.5917  0.1157
17352TIP3    H273472   3.500   5.685  16.992  1.6714 -0.8014 -0.2695
17353TIP3   OH273473   4.160   4.570  12.358 -0.9534 -0.5364  0.5933
17353TIP3    H173474   4.125   4.494  12.311  1.9838 -1.2028 -0.7637
17353TIP3    H273475   4.168   4.540  12.449 -0.0001 -1.8293  0.1087
17354TIP3   OH273476   4.260   6.000   6.097  0.3579 -0.4257  0.4541
17354TIP3    H173477   4.324   6.021   6.029 -1.3877  1.6086 -0.6792
17354TIP3    H273478   4.231   5.911   6.076  2.0868 -1.0225  0.4469
17355TIP3   OH273479   0.637   3.242   1.369 -0.5526  0.7180  0.3526
17355TIP3    H173480   0.622   3.160   1.323 -0.6409  0.3836  0.9650
17355TIP3    H273481   0.616   3.310   1.305  2.0988  0.3314 -1.0620
17356TIP3   OH273482   3.694   6.699   5.471  0.5689  0.0722  0.1983
17356TIP3    H173483   3.785   6.676   5.485  0.2491 -0.6371  1.1772
17356TIP3    H273484   3.646   6.655   5.541 -0.6571 -0.4309 -0.9052
17357TIP3   OH273485   5.742   4.935   6.299 -0.4478 -0.1454  0.0063
17357TIP3    H173486   5.671   4.928   6.364 -0.6753 -0.9876 -0.3204
17357TIP3    H273487   5.787   4.851   6.304 -0.9337 -0.5142 -1.4533
17358TIP3   OH273488   4.008   6.177  14.764  0.7152 -0.5469  0.0693
17358TIP3    H173489   3.956   6.123  14.822 -0.8249  0.0219 -0.7269
17358TIP3    H273490   4.043   6.116  14.699  1.3226 -0.9760  0.7858
17359TIP3   OH273491   2.185   0.888   6.324  0.2263  0.0377  0.3376
17359TIP3    H173492   2.214   0.876   6.414  0.8414 -1.5075 -0.0481
17359TIP3    H273493   2.217   0.975   6.300 -0.2004  0.5961  1.6864
17360TIP3   OH273494   4.561   3.615   0.922 -0.2885 -0.0395 -0.3257
17360TIP3    H173495   4.590   3.564   0.846 -0.1918  1.2891 -1.2327
17360TIP3    H273496   4.611   3.697   0.915 -0.9178  0.4429  0.6914
17361TIP3   OH273497   2.117   2.217  15.338  0.2845 -0.7250  0.7520
17361TIP3    H173498   2.162   2.186  15.259  0.7776 -2.8516  1.8082
17361TIP3    H273499   2.027   2.234  15.309  1.5007  3.4942 -1.3744
17362TIP3   OH273500   0.561   5.950  16.550  0.1546  0.0895 -0.8318
17362TIP3    H173501   0.632   5.989  16.602 -1.0218 -0.7601  1.5924
17362TIP3    H273502   0.507   6.024  16.523 -0.5221  0.4704  1.3258
17363TIP3   OH273503   0.057   4.904  14.074  0.7027 -0.3505 -0.3999
17363TIP3    H173504   0.105   4.916  14.156 -0.3950  0.1147  0.1913
17363TIP3    H273505   0.070   4.812  14.052  0.6494 -0.5975  0.5360
17364TIP3   OH273506   5.184   5.437  15.619 -0.2261  0.3111  0.1990
17364TIP3    H173507   5.245   5.509  15.635  0.9697 -0.8829  1.3216
17364TIP3    H273508   5.241   5.363  15.599 -1.3986 -0.4610 -0.3321
17365TIP3   OH273509   4.483   4.433  12.299 -0.2760  0.2434 -0.5828
17365TIP3    H173510   4.486   4.375  12.223  2.8090 -2.0496  1.0803
17365TIP3    H273511   4.519   4.516  12.268 -2.6893  0.7274 -2.4442
17366TIP3   OH273512   0.733   5.359  13.874 -0.2667  0.3608  0.4412
17366TIP3    H173513   0.808   5.325  13.827 -2.4204 -2.2945 -1.3612
17366TIP3    H273514   0.661   5.357  13.811 -2.6631 -0.6206  2.9714
17367TIP3   OH273515   5.239   5.876  14.226  0.2989 -0.5101  0.0327
17367TIP3    H173516   5.283   5.917  14.151 -0.3116 -1.1572 -0.6942
17367TIP3    H273517   5.152   5.913  14.227  0.5626  0.1099  0.9386
17368TIP3   OH273518   1.932   4.497   1.905  0.0496  0.5048  0.5387
17368TIP3    H173519   1.962   4.535   1.988  0.3583  1.7134 -0.1015
17368TIP3    H273520   2.011   4.458   1.867  0.5432  2.3119 -0.4119
17369TIP3   OH273521   6.513   0.834  15.009  0.1571  0.1949 -0.1801
17369TIP3    H173522   6.436   0.836  15.066 -0.1296 -0.5775 -0.5250
17369TIP3    H273523   6.486   0.781  14.934  0.5369  1.1946 -1.0361
17370TIP3   OH273524   0.359   6.250  14.180  0.1106  1.0627  0.3114
17370TIP3    H173525   0.343   6.163  14.217  2.1321  0.5207  0.0009
17370TIP3    H273526   0.440   6.280  14.221 -0.0520  2.4003 -0.2931
17371TIP3   OH273527   4.082   0.808   4.327  0.6274 -0.0950 -0.2584
17371TIP3    H173528   4.029   0.811   4.407  2.9606  0.2641  1.3784
17371TIP3    H273529   4.065   0.891   4.283 -0.3558 -0.1140  0.0602
17372TIP3   OH273530   6.535   0.861  11.633  0.0944  0.6899  0.0050
17372TIP3    H173531   6.477   0.889  11.562  0.4150  0.8402 -0.2024
17372TIP3    H273532   6.478   0.857  11.710 -0.3860 -0.0596 -0.3792
17373TIP3   OH273533   0.154   5.248   4.691 -0.2012 -0.4159  0.1496
17373TIP3    H173534   0.060   5.232   4.682 -0.5798  0.6327  1.7429
17373TIP3    H273535   0.160   5.317   4.757  1.6623  0.2545 -0.6536
17374TIP3   OH273536   3.641   1.620   1.498  0.0812  0.5411  0.0238
17374TIP3    H173537   3.678   1.548   1.549  0.6335  1.6031  1.1800
17374TIP3    H273538   3.565   1.649   1.549  0.0831  1.0192 -0.2420
17375TIP3   OH273539   4.994   1.116  13.738 -0.2097 -0.2947 -0.1687
17375TIP3    H173540   4.961   1.134  13.650 -0.3955  2.4822  0.3746
17375TIP3    H273541   4.921   1.136  13.797 -0.3527 -2.8801  0.6682
17376TIP3   OH273542   6.695   0.902  16.424  0.0002 -0.2208  0.8230
17376TIP3    H173543   6.735   0.828  16.379  0.9667  0.9751 -0.4027
17376TIP3    H273544   6.705   0.975  16.363 -1.4498  0.7991  1.7357
17377TIP3   OH273545   3.724   1.057  12.156  0.5839 -0.0594  0.0985
17377TIP3    H173546   3.761   0.998  12.222  0.5968  0.4710  0.5799
17377TIP3    H273547   3.643   1.016  12.129  0.0031  0.2629  1.2916
17378TIP3   OH273548   2.741   4.203  12.349 -0.4926  0.2540 -0.2277
17378TIP3    H173549   2.792   4.282  12.369  2.1907 -1.3178 -0.3893
17378TIP3    H273550   2.697   4.223  12.267  1.3235  1.1253 -1.0478
17379TIP3   OH273551   6.170   1.116   3.217 -0.5381 -0.5003 -0.1012
17379TIP3    H173552   6.156   1.204   3.253 -2.5408 -0.9865  0.4501
17379TIP3    H273553   6.183   1.061   3.294  0.3921 -0.7482 -0.4272
17380TIP3   OH273554   6.360   2.150  11.242  0.0808  0.1867  0.0172
17380TIP3    H173555   6.334   2.064  11.209 -0.0750 -0.5622  1.9459
17380TIP3    H273556   6.292   2.210  11.210 -0.1918 -0.5283 -0.7693
17381TIP3   OH273557   3.050   2.348  11.588  0.4866 -0.3934 -0.8445
17381TIP3    H173558   3.143   2.371  11.592  0.8335 -1.6920 -0.7521
17381TIP3    H273559   3.013   2.410  11.526  0.7012  2.2668  1.5047
17382TIP3   OH273560   2.037   4.484   6.699 -0.3428 -0.1496 -0.4602
17382TIP3    H173561   2.060   4.485   6.792 -0.7224  1.5271 -0.3381
17382TIP3    H273562   2.020   4.576   6.679 -0.6219 -0.5402 -2.1076
17383TIP3   OH273563   2.575   0.738  14.215 -0.0747  0.5762 -0.0937
17383TIP3    H173564   2.501   0.687  14.182  0.2832  1.5237 -2.5508
17383TIP3    H273565   2.536   0.809  14.265 -0.7854  0.6571 -0.7579
17384TIP3   OH273566   3.217   4.980  13.641  0.3126  0.0408  0.7916
17384TIP3    H173567   3.254   4.949  13.724  0.8875  0.2310  0.6131
17384TIP3    H273568   3.188   4.900  13.597 -0.8366  0.0082  1.5539
17385TIP3   OH273569   2.837   5.336   1.785 -0.7678  0.6511 -0.0539
17385TIP3    H173570   2.912   5.359   1.731  0.2911 -0.5302  0.8410
17385TIP3    H273571   2.778   5.289   1.726 -0.7265  1.4291 -0.7222
17386TIP3   OH273572   3.540   2.839  13.613  0.3707 -0.2713  0.9305
17386TIP3    H173573   3.562   2.749  13.591  0.2334 -0.2970  0.8998
17386TIP3    H273574   3.496   2.873  13.535 -0.9288 -0.6352  1.4716
17387TIP3   OH273575   3.277   5.302   6.203 -0.1959 -0.1240  0.2830
17387TIP3    H173576   3.351   5.241   6.203  0.9145  1.1729  0.0432
17387TIP3    H273577   3.234   5.287   6.118  0.3989 -0.1900 -0.0112
17388TIP3   OH273578   4.005   6.370   4.655  0.1943 -0.7615  0.2859
17388TIP3    H173579   4.068   6.424   4.704  1.4462 -1.2504 -0.7163
17388TIP3    H273580   3.925   6.374   4.706  0.6993  0.8195  1.0276
17389TIP3   OH273581   1.263   4.596   6.435 -0.2803  0.0101  0.1825
17389TIP3    H173582   1.291   4.684   6.410  1.5602 -0.1997  1.3286
17389TIP3    H273583   1.209   4.609   6.513 -1.7792  0.2503 -0.8530
17390TIP3   OH273584   3.093   6.634   3.007 -0.1855  0.3765  0.1633
17390TIP3    H173585   3.076   6.653   3.099  0.0722  0.0098  0.2902
17390TIP3    H273586   3.006   6.628   2.967 -0.2774  2.3122  0.0031
17391TIP3   OH273587   0.829   3.297   5.904  0.0861 -0.7440  0.4018
17391TIP3    H173588   0.902   3.359   5.904  0.7817 -1.5361  1.2865
17391TIP3    H273589   0.776   3.322   5.828  2.8189 -1.9858 -2.1041
17392TIP3   OH273590   0.951   3.863  12.022 -0.6228 -0.0251 -0.0185
17392TIP3    H173591   0.972   3.770  12.018  0.0737  0.1494 -0.7147
17392TIP3    H273592   0.988   3.899  11.941 -1.0457  0.8245  0.1561
17393TIP3   OH273593   2.304   4.794   1.507  0.1808  0.3914  0.2173
17393TIP3    H173594   2.245   4.869   1.504 -0.8373 -0.4245 -0.6655
17393TIP3    H273595   2.385   4.829   1.545 -0.3032  1.9124 -0.0847
17394TIP3   OH273596   2.461   0.987   4.736  0.0090 -0.1865 -0.2223
17394TIP3    H173597   2.544   0.995   4.687 -0.2896 -1.1028 -0.8975
17394TIP3    H273598   2.405   1.056   4.699  1.1334  1.8964  1.7080
17395TIP3   OH273599   2.842   4.916  15.118 -0.5543  0.2353 -0.0021
17395TIP3    H173600   2.765   4.967  15.143 -0.2424  1.6393 -1.6916
17395TIP3    H273601   2.878   4.883  15.201 -2.2738  0.5554  0.9077
17396TIP3   OH273602   4.046   2.937  13.558  0.4611  0.0631  0.6914
17396TIP3    H173603   3.987   2.950  13.483 -0.0819  0.5040  1.1814
17396TIP3    H273604   3.995   2.965  13.634  0.2457 -2.3379  1.5181
17397TIP3   OH273605   2.261   0.566  10.989  0.4470  0.2611 -0.1600
17397TIP3    H173606   2.269   0.489  10.933 -2.0471  1.3145 -2.1899
17397TIP3    H273607   2.310   0.634  10.943  0.0554  0.6374 -0.0273
17398TIP3   OH273608   6.758   4.080   1.267  0.2062  0.2733 -0.3118
17398TIP3    H173609   6.801   4.023   1.330 -0.7849  0.4747  0.5776
17398TIP3    H273610   6.709   4.020   1.211  0.2039  0.1673 -0.1975
17399TIP3   OH273611   4.887   2.288   0.248  0.0445  0.2069  0.0875
17399TIP3    H173612   4.881   2.195   0.269 -0.1548  0.2837  0.3901
17399TIP3    H273613   4.842   2.297   0.164 -0.8473  0.1859  0.5479
17400TIP3   OH273614   4.854   5.167   6.420  0.7460  0.1219  0.0711
17400TIP3    H173615   4.918   5.194   6.486  0.7836  0.1800  0.0119
17400TIP3    H273616   4.770   5.197   6.455  0.5643 -1.2307  0.8353
17401TIP3   OH273617   4.069   3.400   0.025 -0.2934 -0.0464  0.4468
17401TIP3    H173618   4.062   3.338   0.098  0.1471  1.7652  2.1416
17401TIP3    H273619   4.009   3.471   0.049  1.0649  1.3462 -0.1195
17402TIP3   OH273620   1.507   3.818   2.921 -0.1005 -0.3668  0.1690
17402TIP3    H173621   1.575   3.865   2.873 -0.3031 -1.0295 -0.7999
17402TIP3    H273622   1.555   3.757   2.978  0.1775  1.2783  1.7836
17403TIP3   OH273623   2.730   0.114   5.654  0.1063  0.1811  0.9788
17403TIP3    H173624   2.773   0.192   5.618  1.9174 -0.8931  0.6553
17403TIP3    H273625   2.745   0.047   5.587 -1.4758 -0.4565  1.2268
17404TIP3   OH273626   0.905   5.144  13.531 -0.4683 -1.0209 -0.1636
17404TIP3    H173627   0.969   5.109  13.469 -0.8599 -2.0748 -0.0040
17404TIP3    H273628   0.956   5.174  13.605  0.1081  1.2102 -1.3689
17405TIP3   OH273629   5.473   0.063   3.306 -0.3773  0.0258  0.2519
17405TIP3    H173630   5.534  -0.011   3.308 -2.8580 -2.1822  1.1081
17405TIP3    H273631   5.471   0.090   3.214  0.3232 -1.2564 -0.1609
17406TIP3   OH273632   2.160   6.096  15.317 -0.0297  0.2874  0.5797
17406TIP3    H173633   2.184   6.177  15.361  1.1060  0.9513 -1.1646
17406TIP3    H273634   2.191   6.027  15.375  2.0116  1.1314  0.5566
17407TIP3   OH273635   2.863   0.416   5.564 -0.0836  0.2744 -0.5134
17407TIP3    H173636   2.807   0.458   5.630  0.8713  1.3223 -0.3330
17407TIP3    H273637   2.856   0.472   5.487  1.1098  0.7253 -0.3124
17408TIP3   OH273638   6.616   4.610   3.159 -0.0424  0.6414  0.2631
17408TIP3    H173639   6.609   4.701   3.187  0.0654  0.4338  0.9808
17408TIP3    H273640   6.555   4.563   3.217 -1.3832  0.4875 -1.2009
17409TIP3   OH273641   3.548   6.222  11.912  0.5769  0.1907 -0.5615
17409TIP3    H173642   3.506   6.260  11.989 -0.2483  2.1339 -1.8919
17409TIP3    H273643   3.499   6.141  11.895 -0.9607  1.1048 -0.5854
17410TIP3   OH273644   6.621   6.433  13.150  0.4659 -0.7155 -0.1952
17410TIP3    H173645   6.607   6.522  13.119  2.1317 -0.4623 -0.3338
17410TIP3    H273646   6.716   6.420  13.142  0.2396 -2.5419 -0.3025
17411TIP3   OH273647   1.651   0.480   1.017 -0.3595 -0.0408  0.2353
17411TIP3    H173648   1.719   0.430   0.971 -1.6454 -2.7323  1.0282
17411TIP3    H273649   1.658   0.568   0.981  1.7648 -0.8582 -1.6409
17412TIP3   OH273650   3.523   1.470  17.019  0.1212 -0.5658 -0.5567
17412TIP3    H173651   3.436   1.505  16.999 -0.5838 -0.5595  2.0424
17412TIP3    H273652   3.521   1.380  16.987 -0.9171 -0.6074 -0.4298
17413TIP3   OH273653   4.593   1.769   3.294  0.3557 -0.4342  0.2062
17413TIP3    H173654   4.504   1.743   3.268 -0.1857  0.7617  0.7595
17413TIP3    H273655   4.649   1.738   3.223 -0.4638 -1.4697 -0.0122
17414TIP3   OH273656   6.428   4.709   5.140 -0.1022  0.2902  0.5404
17414TIP3    H173657   6.442   4.683   5.049 -2.1735 -0.8976  0.4823
17414TIP3    H273658   6.397   4.630   5.183 -2.2867  1.5572  1.4786
17415TIP3   OH273659   1.547   0.352  10.647  0.5653 -0.1706 -0.0569
17415TIP3    H173660   1.638   0.323  10.655  0.8163  0.7583  0.6694
17415TIP3    H273661   1.514   0.356  10.737  0.7001  2.1440 -0.0385
17416TIP3   OH273662   4.580   6.135  14.523  0.7805 -0.0229 -0.4194
17416TIP3    H173663   4.529   6.142  14.603 -1.0211  1.2069 -1.5878
17416TIP3    H273664   4.517   6.103  14.458  1.8865  0.0904 -1.5787
17417TIP3   OH273665   4.604   3.730  11.789  0.5730  0.2952 -0.3461
17417TIP3    H173666   4.585   3.822  11.807  1.2560  0.4283 -0.2984
17417TIP3    H273667   4.610   3.690  11.876 -0.2525  0.0880 -0.3731
17418TIP3   OH273668   5.972   1.274   0.125  0.6211  0.4419  0.8892
17418TIP3    H173669   6.014   1.228   0.198  0.5065  0.7869  1.1723
17418TIP3    H273670   6.043   1.292   0.064  0.4467 -1.5392 -0.0076
17419TIP3   OH273671   0.439   6.318  10.598 -0.3620  0.3466  0.5600
17419TIP3    H173672   0.505   6.383  10.574 -1.6835  1.3754 -0.4750
17419TIP3    H273673   0.489   6.249  10.642  1.3727  1.1468 -0.0240
17420TIP3   OH273674   1.931   0.997  14.721 -0.4403  0.4342 -0.1575
17420TIP3    H173675   1.859   1.061  14.712 -0.9001 -0.0743 -0.1329
17420TIP3    H273676   1.958   1.006  14.813 -0.8937  0.1848  0.0023
17421TIP3   OH273677   1.188   6.680  17.180 -0.1050  0.4099  0.4303
17421TIP3    H173678   1.199   6.641  17.093 -0.5574  0.2862  0.4305
17421TIP3    H273679   1.094   6.696  17.188 -0.7148 -3.1966  2.4326
17422TIP3   OH273680   6.031   2.602   5.952  0.1371  0.3682  0.8564
17422TIP3    H173681   6.078   2.581   6.033  0.7808 -1.6725  0.0126
17422TIP3    H273682   5.939   2.591   5.974  0.2061  1.3890  1.7135
17423TIP3   OH273683   3.652   4.022  12.820  0.3748  0.4850  0.0552
17423TIP3    H173684   3.607   4.102  12.793 -0.4636 -0.2412 -0.7698
17423TIP3    H273685   3.645   4.022  12.915 -0.2465  1.0371  0.0210
17424TIP3   OH273686   2.069   4.779   5.251 -0.0168 -0.3013 -0.7233
17424TIP3    H173687   2.087   4.689   5.276  1.2748 -0.5255 -2.3694
17424TIP3    H273688   2.037   4.774   5.161  1.7905  1.0088 -1.4876
17425TIP3   OH273689   5.637   6.573  14.099  0.0723  0.8380  0.4165
17425TIP3    H173690   5.624   6.606  14.010  0.1394 -1.6175 -0.5824
17425TIP3    H273691   5.623   6.478  14.092  1.3682  0.3948  2.7723
17426TIP3   OH273692   1.299   4.417   2.300 -0.0937 -0.5765  0.2833
17426TIP3    H173693   1.269   4.360   2.229 -1.5078  0.1131  0.2904
17426TIP3    H273694   1.223   4.472   2.321  0.6445  0.0121  1.5643
17427TIP3   OH273695   4.653   6.599  13.346  0.2775 -0.0486  0.5049
17427TIP3    H173696   4.584   6.548  13.305 -0.1812  1.5322 -0.8085
17427TIP3    H273697   4.649   6.684  13.302  2.1326  0.5499  1.3933
17428TIP3   OH273698   4.084   1.836   1.425  0.0211  0.3718  0.0066
17428TIP3    H173699   4.091   1.928   1.451 -0.4709  0.4612 -0.1799
17428TIP3    H273700   3.992   1.823   1.404  0.0389 -0.2313  0.2720
17429TIP3   OH273701   1.515   1.163  12.706 -0.4023 -0.1838  0.1677
17429TIP3    H173702   1.597   1.115  12.719 -0.3913 -0.4262 -0.7346
17429TIP3    H273703   1.521   1.196  12.617 -0.5261  1.2859  0.6770
17430TIP3   OH273704   0.891   4.686   5.711 -0.2209 -0.6782  0.4532
17430TIP3    H173705   0.802   4.650   5.715 -0.1826 -0.8798 -0.2410
17430TIP3    H273706   0.918   4.670   5.620  0.1958  0.1648  0.4197
17431TIP3   OH273707   6.689   4.958   0.434  0.6549 -0.0232 -0.2763
17431TIP3    H173708   6.784   4.951   0.442  0.6597  0.2776 -0.0420
17431TIP3    H273709   6.658   4.868   0.429  1.0699 -0.1199 -1.8403
17432TIP3   OH273710   6.430   1.913   5.002  0.6964 -0.5651  0.0118
17432TIP3    H173711   6.410   1.967   5.079  0.1751  0.4841 -0.8380
17432TIP3    H273712   6.355   1.854   4.995 -0.4284  0.9218 -1.0354
17433TIP3   OH273713   1.613   2.898   3.913 -0.0860 -0.0406 -0.3288
17433TIP3    H173714   1.524   2.864   3.914 -1.0199  2.1963  0.1102
17433TIP3    H273715   1.613   2.960   3.840  0.7686  0.7717  0.3353
17434TIP3   OH273716   1.662   4.340  16.544 -0.0215 -0.4183  0.1743
17434TIP3    H173717   1.648   4.247  16.523 -0.7373 -0.7614  1.9424
17434TIP3    H273718   1.668   4.342  16.639 -0.5879  1.4405  0.2127
17435TIP3   OH273719   0.905   6.693   0.817  0.6817 -0.3530  0.6717
17435TIP3    H173720   0.953   6.748   0.879  2.5308  0.9257 -1.6909
17435TIP3    H273721   0.829   6.746   0.793  0.1965 -0.6659  1.4844
17436TIP3   OH273722   3.564   4.592  16.094  0.1252  0.1371 -0.6760
17436TIP3    H173723   3.628   4.607  16.025 -0.3088  1.3822 -0.8416
17436TIP3    H273724   3.516   4.675  16.100 -1.4337 -0.7370 -0.5213
17437TIP3   OH273725   4.601   2.728  12.254  1.1239  0.3500 -0.3410
17437TIP3    H173726   4.609   2.697  12.164  0.8477  0.5037 -0.4196
17437TIP3    H273727   4.547   2.662  12.298  3.3499 -1.0888  0.3831
17438TIP3   OH273728   3.886   5.700   2.237 -0.1029  0.1794 -0.1825
17438TIP3    H173729   3.820   5.670   2.300 -0.1060  0.4283 -0.0659
17438TIP3    H273730   3.837   5.751   2.173 -0.0153  0.4140 -0.0629
17439TIP3   OH273731   6.007   5.547   4.105 -0.0986  0.2299 -0.0999
17439TIP3    H173732   5.958   5.561   4.023  0.4417  0.7731 -0.3348
17439TIP3    H273733   5.939   5.541   4.172 -0.5073  0.7853 -0.4476
17440TIP3   OH273734   2.431   5.342  11.040  0.2764  0.1821  0.2953
17440TIP3    H173735   2.454   5.286  10.966 -0.6883  0.6371 -0.3660
17440TIP3    H273736   2.341   5.368  11.023  0.7444  2.0557  0.5201
17441TIP3   OH273737   4.233   0.770  12.355  1.4354  1.0587  0.1391
17441TIP3    H173738   4.208   0.859  12.332 -0.7820  0.3989 -0.3007
17441TIP3    H273739   4.171   0.744  12.423  0.9261 -0.6681 -0.9103
17442TIP3   OH273740   4.825   6.142  11.658  0.5716 -0.3941 -0.3711
17442TIP3    H173741   4.808   6.109  11.569  1.8263 -1.2907 -0.3132
17442TIP3    H273742   4.911   6.184  11.652 -0.6309  2.2806 -0.2440
17443TIP3   OH273743   5.553   5.992  12.576  0.3882 -0.0272  0.0701
17443TIP3    H173744   5.645   5.966  12.571  0.4038  0.2313 -1.4352
17443TIP3    H273745   5.550   6.080  12.538 -0.6166 -0.4650 -0.9348
17444TIP3   OH273746   0.371   5.690  12.464 -0.4139  0.1813 -0.1842
17444TIP3    H173747   0.358   5.783  12.448  2.4110  0.7818  0.4813
17444TIP3    H273748   0.335   5.676  12.552  0.2954  0.9444  0.2327
17445TIP3   OH273749   1.081   0.591   2.653 -0.0971  0.6773 -0.1746
17445TIP3    H173750   1.036   0.665   2.695 -1.7727  1.0668 -2.4646
17445TIP3    H273751   1.091   0.527   2.724  0.5395  2.6648  1.6632
17446TIP3   OH273752   2.073   2.413  14.025  0.0437 -0.2856 -0.4373
17446TIP3    H173753   2.060   2.394  13.932 -0.5955 -1.7382 -0.0701
17446TIP3    H273754   2.168   2.420  14.034  0.1656 -1.0529 -1.0259
17447TIP3   OH273755   1.893   0.614  13.907 -0.0948 -0.5212  0.2435
17447TIP3    H173756   1.911   0.674  13.979 -0.1260 -1.2976  0.9102
17447TIP3    H273757   1.818   0.654  13.862  0.5037  0.4502  0.0661
17448TIP3   OH273758   5.321   5.599   1.053 -0.9927  0.4942 -0.0418
17448TIP3    H173759   5.324   5.542   0.976  0.6396  0.7302 -0.1715
17448TIP3    H273760   5.228   5.620   1.062 -1.2271  0.4830 -1.9565
17449TIP3   OH273761   3.426   2.516   4.396  0.0312  0.3463 -0.0823
17449TIP3    H173762   3.430   2.607   4.425 -0.8935  0.7054 -1.0161
17449TIP3    H273763   3.383   2.469   4.468 -0.5965  0.8851 -0.0991
17450TIP3   OH273764   5.030   2.821   0.956  0.5043 -0.0822  0.0978
17450TIP3    H173765   4.964   2.887   0.932  0.4801 -0.2222 -0.2225
17450TIP3    H273766   4.991   2.737   0.933  1.1298 -0.1140 -0.8999
17451TIP3   OH273767   0.852   3.867  15.310 -0.1719 -0.4107  0.0644
17451TIP3    H173768   0.844   3.866  15.214  0.4444  1.1361 -0.0362
17451TIP3    H273769   0.867   3.958  15.332 -2.1808 -0.4201  1.8446
17452TIP3   OH273770   0.385   2.239  10.573  0.1641 -0.7727 -0.0166
17452TIP3    H173771   0.357   2.319  10.529  2.2177  0.5491  0.9562
17452TIP3    H273772   0.312   2.218  10.632 -0.4835  0.2646 -0.4275
17453TIP3   OH273773   5.004   6.186  14.013  0.0275  0.1111 -0.8755
17453TIP3    H173774   4.950   6.124  13.964 -1.1834  0.2065  0.2900
17453TIP3    H273775   4.977   6.272  13.980 -0.1216  0.1329 -0.6967
17454TIP3   OH273776   3.360   0.635  11.033 -0.1444  0.3356  0.1052
17454TIP3    H173777   3.331   0.688  10.959 -0.5239  0.0432  0.0385
17454TIP3    H273778   3.445   0.600  11.006  0.6610  1.8060  0.6047
17455TIP3   OH273779   3.120   1.319  15.659 -0.4109 -0.3108  0.0334
17455TIP3    H173780   3.083   1.264  15.590  2.2402 -0.7172 -1.1744
17455TIP3    H273781   3.157   1.394  15.613  0.8699 -0.2645  1.0860
17456TIP3   OH273782   0.389   0.696   2.001  0.1249 -0.3465 -0.2155
17456TIP3    H173783   0.383   0.659   1.913  0.9292  0.1595 -0.4926
17456TIP3    H273784   0.332   0.774   1.998 -0.3694 -0.6947 -0.0813
17457TIP3   OH273785   3.436   5.288  13.977  0.4852  0.0067  0.6509
17457TIP3    H173786   3.352   5.261  14.015  0.9742 -0.4593  1.4187
17457TIP3    H273787   3.491   5.307  14.053  1.2932 -0.3669  0.1668
17458TIP3   OH273788   1.364   0.727   0.940 -0.2511 -0.2053  0.5227
17458TIP3    H173789   1.292   0.788   0.926 -0.9355 -1.2492 -0.7609
17458TIP3    H273790   1.344   0.684   1.023  1.3953  2.7795  2.6521
17459TIP3   OH273791   1.430   4.402   1.740 -0.2355  0.2024  0.6536
17459TIP3    H173792   1.524   4.418   1.747 -0.2910  1.3835 -0.8675
17459TIP3    H273793   1.392   4.446   1.816  0.3291  0.7181  0.6431
17460TIP3   OH273794   2.983   6.182  11.841  0.5394  0.0400  0.0213
17460TIP3    H173795   3.064   6.176  11.791 -0.0443  0.7418 -1.0428
17460TIP3    H273796   2.938   6.099  11.825  0.8582 -0.1942  0.3104
17461TIP3   OH273797   2.508   5.057  12.876  0.6601 -0.2174 -0.3140
17461TIP3    H173798   2.492   5.092  12.964  2.6584  0.4119 -0.1469
17461TIP3    H273799   2.599   5.028  12.879  0.5947 -0.6765 -2.0396
17462TIP3   OH273800   1.858   4.222   5.760 -0.1168 -0.3499  0.1556
17462TIP3    H173801   1.875   4.290   5.825  0.4206 -1.3518  1.1006
17462TIP3    H273802   1.839   4.143   5.811  0.0148 -1.0914 -0.8972
17463TIP3   OH273803   4.037   2.207  11.896 -0.9991  0.0301 -0.0875
17463TIP3    H173804   4.040   2.140  11.827  0.6476 -0.0886  0.0679
17463TIP3    H273805   4.086   2.169  11.968  0.9085  1.7889 -0.3798
17464TIP3   OH273806   1.117   5.351   3.332 -0.0416 -0.5736 -0.2052
17464TIP3    H173807   1.202   5.387   3.355 -1.6596  2.2535  2.0044
17464TIP3    H273808   1.089   5.403   3.257 -0.5772 -0.1612  0.2709
17465TIP3   OH273809   0.708   0.242  12.315 -0.2499 -0.3698 -0.3352
17465TIP3    H173810   0.617   0.212  12.320 -1.0714  2.0383  1.3462
17465TIP3    H273811   0.707   0.326  12.361  2.7047  0.0822 -0.9372
17466TIP3   OH273812   2.193   6.593   2.357 -0.0461  0.1900 -0.0603
17466TIP3    H173813   2.161   6.675   2.393  0.0041  1.4567 -2.6986
17466TIP3    H273814   2.264   6.567   2.416 -1.7345  0.6025  2.2960
17467TIP3   OH273815   1.733   6.716   1.378  0.0039 -0.2420  0.4231
17467TIP3    H173816   1.660   6.677   1.330 -0.8354  1.9789 -0.2459
17467TIP3    H273817   1.805   6.654   1.367 -1.4199 -1.9134  0.0698
17468TIP3   OH273818   0.872   5.460   3.818 -0.0139 -0.4975 -0.1205
17468TIP3    H173819   0.853   5.399   3.747  0.3677  0.0047 -0.6605
17468TIP3    H273820   0.790   5.467   3.867  0.5306 -3.2662  1.3887
17469TIP3   OH273821   0.269   4.036  11.923 -0.1352  0.1303  0.0935
17469TIP3    H173822   0.298   3.957  11.876 -1.1473 -0.5447  0.5640
17469TIP3    H273823   0.262   4.007  12.014 -3.8220 -0.2561 -0.1724
17470TIP3   OH273824   5.235   1.774   3.794 -0.1820  0.1899 -0.0305
17470TIP3    H173825   5.163   1.807   3.741 -0.1849  2.0994  1.0697
17470TIP3    H273826   5.264   1.695   3.749 -1.9086  0.2609 -1.3673
17471TIP3   OH273827   6.502   3.609   1.823  0.2075 -0.4701  0.6672
17471TIP3    H173828   6.500   3.513   1.824 -1.1054 -0.5155 -1.5657
17471TIP3    H273829   6.594   3.631   1.840  0.3874 -2.0618  2.0094
17472TIP3   OH273830   3.664   6.135   1.697 -0.4144  0.0122  0.0271
17472TIP3    H173831   3.674   6.089   1.614  0.2298 -0.4815  0.3714
17472TIP3    H273832   3.574   6.169   1.695  0.3231  2.0803 -1.9032
17473TIP3   OH273833   2.345   1.887  16.820 -0.1286  0.1486 -0.1402
17473TIP3    H173834   2.326   1.800  16.784 -1.7293 -1.2380  3.5338
17473TIP3    H273835   2.428   1.876  16.866  0.4279  1.0231 -0.9201
17474TIP3   OH273836   5.250   3.520   4.601  0.6512  0.2394 -0.2896
17474TIP3    H173837   5.258   3.591   4.538  1.0328  0.2622 -0.2175
17474TIP3    H273838   5.255   3.563   4.686  0.7690  0.1384 -0.2460
17475TIP3   OH273839   6.140   2.734  16.872  0.6597 -0.2045  0.1511
17475TIP3    H173840   6.144   2.656  16.926 -0.5307 -0.3429  0.0675
17475TIP3    H273841   6.131   2.806  16.934  0.5464 -0.2478  0.1851
17476TIP3   OH273842   2.361   0.454  14.276 -0.0896 -0.2757 -0.5058
17476TIP3    H173843   2.344   0.507  14.199 -0.7804  3.0020  1.7062
17476TIP3    H273844   2.456   0.442  14.276  0.1072  1.1387 -0.9868
17477TIP3   OH273845   4.559   2.223  13.840  0.2663  0.3050 -0.2391
17477TIP3    H173846   4.620   2.201  13.770 -0.8226 -0.3073 -1.0195
17477TIP3    H273847   4.567   2.152  13.903  1.4661  1.0080  0.4285
17478TIP3   OH273848   5.350   6.418   4.300  0.2343 -0.0630 -0.3569
17478TIP3    H173849   5.353   6.511   4.277  0.6378 -0.1639 -0.7178
17478TIP3    H273850   5.438   6.398   4.333 -0.4415  0.2009  1.8077
17479TIP3   OH273851   1.664   4.680  14.433 -0.1023 -0.2008 -0.0754
17479TIP3    H173852   1.730   4.748  14.448  0.9396 -1.4658  1.3167
17479TIP3    H273853   1.618   4.673  14.516 -2.1151  0.7170 -1.0430
17480TIP3   OH273854   6.401   3.097  12.158  0.5159  0.3559 -0.3859
17480TIP3    H173855   6.339   3.107  12.086  0.5092 -1.7107 -0.7280
17480TIP3    H273856   6.482   3.137  12.126  0.2880  0.1489 -1.2523
17481TIP3   OH273857   0.349   2.171   3.357  0.1938  0.0278 -0.3652
17481TIP3    H173858   0.277   2.150   3.298 -0.4676  1.0348  0.0436
17481TIP3    H273859   0.428   2.155   3.306 -0.3548  3.0027 -2.3966
17482TIP3   OH273860   0.892   5.478   1.364  0.5625 -0.5038 -1.0529
17482TIP3    H173861   0.872   5.504   1.274 -0.9689 -1.9097 -1.1794
17482TIP3    H273862   0.918   5.386   1.356 -0.8101 -1.0157  0.0463
17483TIP3   OH273863   3.152   3.844   4.524  0.7442  0.3599  0.3779
17483TIP3    H173864   3.075   3.849   4.467  0.6377  0.2773  0.5122
17483TIP3    H273865   3.163   3.934   4.557  1.3731  0.6130 -0.5051
17484TIP3   OH273866   5.958   0.179   3.396  0.0808  0.3652 -0.2934
17484TIP3    H173867   5.931   0.093   3.428 -0.6672  0.8461  0.3876
17484TIP3    H273868   5.998   0.222   3.473  0.5564  0.5885 -0.6556
17485TIP3   OH273869   1.259   6.601  15.318 -0.1258  0.0258  0.3408
17485TIP3    H173870   1.296   6.584  15.404  0.2314  1.7150  0.5461
17485TIP3    H273871   1.327   6.649  15.271 -1.2441  1.3577  0.0006
17486TIP3   OH273872   6.286   2.448  12.263  0.2382 -0.3710  0.2704
17486TIP3    H173873   6.379   2.466  12.268 -0.0778  1.4423  0.3640
17486TIP3    H273874   6.263   2.464  12.171  0.0844 -1.2604  0.1412
17487TIP3   OH273875   3.129   5.592  12.590  0.5798  0.2394  0.1257
17487TIP3    H173876   3.140   5.669  12.534 -3.9630  2.5143  1.8289
17487TIP3    H273877   3.172   5.616  12.672  2.2971 -0.6994 -0.4485
17488TIP3   OH273878   4.666   3.675   1.210 -0.6052  0.6005 -0.5069
17488TIP3    H173879   4.591   3.731   1.190 -2.2712 -1.7650 -1.2060
17488TIP3    H273880   4.663   3.664   1.305 -1.0948  0.6095 -0.5178
17489TIP3   OH273881   0.786   5.641  15.752  0.4457  0.1896  0.2299
17489TIP3    H173882   0.719   5.577  15.730  1.4313 -1.1703  1.0249
17489TIP3    H273883   0.861   5.617  15.698  0.5615  1.2028 -0.0752
17490TIP3   OH273884   2.511   6.026   5.184  0.9213 -0.2849  0.1820
17490TIP3    H173885   2.560   6.063   5.111  1.2772 -0.9182  0.0984
17490TIP3    H273886   2.422   6.015   5.150  0.4626  1.6663  0.5946
17491TIP3   OH273887   2.963   1.561  16.418  0.3850  0.1124 -0.0445
17491TIP3    H173888   3.013   1.616  16.478  0.0869  0.1798  0.1447
17491TIP3    H273889   3.027   1.499  16.382  0.4077 -0.5213  1.0261
17492TIP3   OH273890   4.170   3.402   2.222  0.2643 -0.7002 -0.7069
17492TIP3    H173891   4.168   3.308   2.242 -0.1846 -0.4959  0.2875
17492TIP3    H273892   4.263   3.424   2.214  0.3985 -1.0649 -0.1397
17493TIP3   OH273893   0.439   0.939  13.745 -0.3078  0.4744  0.3157
17493TIP3    H173894   0.471   0.849  13.737  2.0326  1.3068 -0.4265
17493TIP3    H273895   0.516   0.993  13.729 -2.0713  2.6726 -1.2558
17494TIP3   OH273896   4.405   5.045   0.954  0.0181  0.0278  0.4427
17494TIP3    H173897   4.323   5.012   0.919  0.5719 -0.3373 -0.5576
17494TIP3    H273898   4.402   5.140   0.937 -0.6571  0.1916  1.4097
17495TIP3   OH273899   5.946   0.181   1.204  0.1655  0.3396 -0.3209
17495TIP3    H173900   5.946   0.222   1.117  1.0718 -1.9615 -1.4876
17495TIP3    H273901   5.956   0.088   1.186 -2.0379 -0.4885  2.1745
17496TIP3   OH273902   0.370   5.013   5.790  0.2726 -0.1292 -0.2109
17496TIP3    H173903   0.444   4.987   5.845 -0.1508 -0.1883  0.3366
17496TIP3    H273904   0.378   4.957   5.713 -0.2990 -1.5093  0.6965
17497TIP3   OH273905   3.827   1.186   2.440  0.3110  0.1239  0.1372
17497TIP3    H173906   3.797   1.267   2.398  1.2813  0.1543 -0.5425
17497TIP3    H273907   3.875   1.139   2.371  1.1466 -0.2583  0.9493
17498TIP3   OH273908   6.171   1.061  11.561 -0.4092 -0.5504 -0.4979
17498TIP3    H173909   6.141   1.012  11.637  0.8273  1.8438  1.7251
17498TIP3    H273910   6.240   1.006  11.523 -0.9691 -1.7641  0.1800
17499TIP3   OH273911   1.329   2.315   4.771  0.8074  0.1476  0.0500
17499TIP3    H173912   1.265   2.386   4.777  1.0956  0.3151  1.6244
17499TIP3    H273913   1.408   2.351   4.812  0.5273 -1.5214  2.1953
17500TIP3   OH273914   1.787   4.891   3.015  0.1215 -0.4671 -0.1127
17500TIP3    H173915   1.830   4.976   3.022 -0.5201 -0.1467  0.0562
17500TIP3    H273916   1.831   4.847   2.942  3.5283 -1.8202  2.4931
17501TIP3   OH273917   2.659   2.631  11.111  0.2507 -0.9611 -0.1311
17501TIP3    H173918   2.630   2.722  11.102 -0.5305 -1.3279 -1.8596
17501TIP3    H273919   2.617   2.586  11.038  0.8113 -2.6759  0.5599
17502TIP3   OH273920   3.528   2.847  11.649  0.3087 -0.4494  0.0786
17502TIP3    H173921   3.465   2.788  11.690  0.6328 -1.4113 -0.7470
17502TIP3    H273922   3.491   2.864  11.562  0.3343  0.3889  0.2256
17503TIP3   OH273923   4.972   6.324  15.709  0.3392  0.6205  0.2739
17503TIP3    H173924   5.053   6.297  15.665  0.6821  1.8215  0.1174
17503TIP3    H273925   4.954   6.255  15.772  1.6869  0.5081  0.5558
17504TIP3   OH273926   5.465   2.405  16.727 -0.2542 -0.1987 -0.1456
17504TIP3    H173927   5.448   2.483  16.675 -0.0978  0.0388  0.1625
17504TIP3    H273928   5.434   2.333  16.671 -1.3358  0.1480 -0.0215
17505TIP3   OH273929   4.450   4.249   0.145  0.2198  0.2134  0.3531
17505TIP3    H173930   4.445   4.293   0.059  0.0828 -0.2064  0.1441
17505TIP3    H273931   4.522   4.293   0.190 -2.3921  3.5007  1.7569
17506TIP3   OH273932   0.798   0.524  17.269 -0.1341 -0.3222 -0.6070
17506TIP3    H173933   0.810   0.500  17.177  0.5803  2.4676 -1.3542
17506TIP3    H273934   0.726   0.587  17.268  0.4082  0.3499  0.5993
17507TIP3   OH273935   1.111   4.178  11.402 -0.4380  0.2232  0.7099
17507TIP3    H173936   1.024   4.218  11.415  0.1280  1.3310  1.2819
17507TIP3    H273937   1.098   4.115  11.332 -1.7762  0.1618  0.9761
17508TIP3   OH273938   0.873   5.947  14.112 -0.3162 -0.0910  0.0285
17508TIP3    H173939   0.858   6.034  14.075  0.8243 -0.4506 -1.3896
17508TIP3    H273940   0.799   5.895  14.082 -1.0744  0.4050  0.9960
17509TIP3   OH273941   6.513   3.472  15.157 -0.0427 -0.1521  0.5003
17509TIP3    H173942   6.586   3.411  15.162  0.9005  0.9349  0.6432
17509TIP3    H273943   6.436   3.421  15.183  0.3344 -1.8028 -1.4212
17510TIP3   OH273944   3.261   5.406  15.210  0.4970 -0.0808 -0.8152
17510TIP3    H173945   3.292   5.359  15.288  2.6857 -1.0725 -2.1773
17510TIP3    H273946   3.197   5.347  15.171 -0.1642  0.1546 -0.1211
17511TIP3   OH273947   3.190   6.331   4.405 -0.8190 -0.3383  0.2871
17511TIP3    H173948   3.182   6.385   4.327 -0.5648 -0.6787  0.0264
17511TIP3    H273949   3.158   6.387   4.476 -1.8781 -0.3286 -0.1729
17512TIP3   OH273950   2.653   2.527  14.723 -0.3936 -0.4609 -0.3402
17512TIP3    H173951   2.588   2.512  14.792 -0.6347  3.0719  0.4030
17512TIP3    H273952   2.689   2.613  14.743 -0.4936  0.8116 -4.6410
17513TIP3   OH273953   1.824   3.401  16.951  0.4015  0.0118  0.1258
17513TIP3    H173954   1.837   3.348  17.030  0.4264 -2.7955 -1.5973
17513TIP3    H273955   1.890   3.368  16.890 -2.0983 -0.8102 -2.3506
17514TIP3   OH273956   1.321   6.201  15.563  0.0393 -0.5321 -0.1553
17514TIP3    H173957   1.356   6.232  15.480 -1.7270  0.1084 -0.7066
17514TIP3    H273958   1.355   6.262  15.628  0.5469 -0.3883 -0.5446
17515TIP3   OH273959   4.742   5.232   0.821 -0.6169  0.2392 -0.1526
17515TIP3    H173960   4.721   5.141   0.843 -1.7661  0.8751  1.5370
17515TIP3    H273961   4.813   5.255   0.881  0.1202  0.2912 -1.0173
17516TIP3   OH273962   0.921   0.565   2.234 -0.1686  0.3503 -0.2147
17516TIP3    H173963   0.912   0.652   2.273  0.4747  0.0421  0.6902
17516TIP3    H273964   0.967   0.580   2.152  0.2323  0.8438  0.0893
17517TIP3   OH273965   6.179   2.810   5.050 -0.1118 -0.2058 -0.1815
17517TIP3    H173966   6.198   2.788   5.141 -0.3794 -1.1148 -0.3386
17517TIP3    H273967   6.085   2.828   5.048  0.3886  3.1408  0.3634
17518TIP3   OH273968   4.018   2.977  11.935 -0.3354 -0.1963 -0.6049
17518TIP3    H173969   4.014   2.987  11.840 -2.1426 -0.2734 -0.5852
17518TIP3    H273970   4.002   3.064  11.970 -1.6556 -0.4982 -0.4011
17519TIP3   OH273971   0.672   4.658   2.076  0.0542 -0.0748  0.4461
17519TIP3    H173972   0.670   4.736   2.021 -0.5073 -0.6786 -0.4166
17519TIP3    H273973   0.690   4.691   2.164  0.8122  0.9225 -0.0650
17520TIP3   OH273974   2.711   2.140   5.566  0.3391 -0.1647 -0.2568
17520TIP3    H173975   2.675   2.123   5.479 -0.9529  0.7562  0.0667
17520TIP3    H273976   2.796   2.180   5.550 -0.5468  1.4558 -1.1613
17521TIP3   OH273977   1.838   0.726   1.183 -0.6905  0.4927 -0.2020
17521TIP3    H173978   1.750   0.759   1.203  0.0805  2.6483 -0.0732
17521TIP3    H273979   1.850   0.744   1.090 -1.3041 -2.2052 -0.8731
17522TIP3   OH273980   5.033   3.673   3.743 -0.3351  0.0615  0.6066
17522TIP3    H173981   4.982   3.633   3.673 -2.0678  1.0138  1.2694
17522TIP3    H273982   5.112   3.705   3.699 -0.9549 -0.1771 -0.7473
17523TIP3   OH273983   6.462   4.228  16.350  0.3876  0.4004 -0.2351
17523TIP3    H173984   6.517   4.246  16.274  0.7788  1.4588  0.2892
17523TIP3    H273985   6.518   4.175  16.408  0.0810 -0.4276 -0.6796
17524TIP3   OH273986   1.831   1.472  14.073 -0.4691  0.0398 -0.0283
17524TIP3    H173987   1.781   1.482  13.992 -1.1866  2.6281  0.6444
17524TIP3    H273988   1.784   1.405  14.122 -1.1893 -0.1212 -0.8989
17525TIP3   OH273989   5.068   3.145   0.721 -0.1730  0.4152  0.3034
17525TIP3    H173990   5.033   3.233   0.703  0.1621  0.7129  1.0738
17525TIP3    H273991   5.162   3.153   0.706 -0.1477  0.1673  0.3230
17526TIP3   OH273992   0.200   4.126   6.002  0.1394 -0.1802 -0.3704
17526TIP3    H173993   0.289   4.136   5.969  0.0813  1.0094 -0.2211
17526TIP3    H273994   0.194   4.035   6.031  2.0889  0.3252  1.8840
17527TIP3   OH273995   4.679   2.028   4.803  0.5047  0.1414 -0.0395
17527TIP3    H173996   4.683   1.973   4.882 -0.4405  1.1490  0.7489
17527TIP3    H273997   4.769   2.031   4.772  0.6350 -1.5643  0.0800
17528TIP3   OH273998   3.537   5.051  14.294 -0.6508  0.2741 -0.3165
17528TIP3    H173999   3.614   5.000  14.270 -0.4852  0.1705  0.4020
17528TIP3    H274000   3.529   5.039  14.389 -0.7146  1.4234 -0.1584
17529TIP3   OH274001   2.572   5.883  14.820 -0.2303  0.3979  0.2119
17529TIP3    H174002   2.536   5.934  14.892  2.2393  1.8507  0.5355
17529TIP3    H274003   2.641   5.938  14.783  0.8098 -1.6661 -1.1350
17530TIP3   OH274004   3.047   5.619  13.723  0.6998  0.0560 -0.0444
17530TIP3    H174005   3.089   5.611  13.809 -0.4245  0.0840  0.5274
17530TIP3    H274006   2.992   5.697  13.730 -1.0594 -1.1300 -0.0452
17531TIP3   OH274007   4.413   4.830  15.691  0.2140 -0.0082  0.2170
17531TIP3    H174008   4.503   4.799  15.699  0.0507 -0.4728  0.3270
17531TIP3    H274009   4.362   4.770  15.746 -0.5564 -1.5202 -2.0066
17532TIP3   OH274010   5.209   3.925  12.163  0.4562  0.7056 -0.3169
17532TIP3    H174011   5.293   3.968  12.150  0.9121 -0.0904 -0.1339
17532TIP3    H274012   5.222   3.836  12.129  0.6521 -0.3747  2.3120
17533TIP3   OH274013   0.501   6.418   0.926 -0.2342  0.1282  0.7070
17533TIP3    H174014   0.554   6.475   0.982  0.4372 -0.5798  0.8115
17533TIP3    H274015   0.411   6.445   0.942  0.0333  0.6904  1.2800
17534TIP3   OH274016   3.447   4.127  17.153  0.3736 -0.1299 -0.3785
17534TIP3    H174017   3.501   4.052  17.129  0.6197 -1.2441  3.1353
17534TIP3    H274018   3.499   4.203  17.128  2.4543 -1.1751  0.5599
17535TIP3   OH274019   1.356   3.626  16.757 -0.2449 -0.2830 -0.6037
17535TIP3    H174020   1.369   3.591  16.668  0.0105 -3.0171  0.4174
17535TIP3    H274021   1.443   3.653  16.784 -0.4414  1.2268 -1.4137
17536TIP3   OH274022   4.660   0.761  14.990 -0.1877  0.7961 -0.0248
17536TIP3    H174023   4.670   0.723  14.902 -2.9478  0.0893 -0.1232
17536TIP3    H274024   4.626   0.849  14.974  1.1746  1.4231  0.3470
17537TIP3   OH274025   1.018   2.028  11.144  0.0812 -0.4197  0.5229
17537TIP3    H174026   0.985   1.963  11.081 -0.2108  1.1077 -0.9925
17537TIP3    H274027   1.113   2.026  11.133  0.0346 -0.1993  0.0509
17538TIP3   OH274028   1.081   6.662   5.028  0.5022 -0.0353 -0.0796
17538TIP3    H174029   1.166   6.693   4.995 -0.0535  1.5579 -0.1201
17538TIP3    H274030   1.023   6.667   4.953  0.5485 -2.0382 -0.2956
17539TIP3   OH274031   5.021   4.482  14.859  0.1941  0.2352 -0.4573
17539TIP3    H174032   4.964   4.548  14.898  0.0415  0.3091 -0.8015
17539TIP3    H274033   5.101   4.486  14.910  0.0582  0.4508 -0.2605
17540TIP3   OH274034   1.592   1.831  15.149 -0.3099 -0.7818  0.4124
17540TIP3    H174035   1.675   1.858  15.111 -0.5464 -1.2490 -0.4688
17540TIP3    H274036   1.526   1.880  15.099 -0.5575 -0.1331  1.3451
17541TIP3   OH274037   1.001   0.295   3.718 -0.2927 -0.1132  0.8026
17541TIP3    H174038   0.941   0.340   3.658 -2.2865 -1.9710  1.2890
17541TIP3    H274039   1.006   0.354   3.793  1.2028  1.6226 -0.5771
17542TIP3   OH274040   1.928   2.625   2.697 -0.3725 -0.2780  0.7853
17542TIP3    H174041   1.895   2.680   2.768  0.2367 -0.1032  0.9391
17542TIP3    H274042   1.920   2.535   2.731 -1.1138 -0.2690  0.6391
17543TIP3   OH274043   1.152   0.580   5.583  0.3775  0.1089  0.3857
17543TIP3    H174044   1.094   0.517   5.625 -0.3121  1.2630  1.2071
17543TIP3    H274045   1.095   0.636   5.531  0.8472  0.6993  0.4862
17544TIP3   OH274046   6.752   1.582   5.194 -0.3956 -0.3076 -0.1780
17544TIP3    H174047   6.764   1.514   5.260 -0.1392  0.3561  0.4840
17544TIP3    H274048   6.658   1.601   5.196 -0.0649  1.5846  1.9869
17545TIP3   OH274049   3.806   0.228  16.681  0.3506 -0.2098 -0.1969
17545TIP3    H174050   3.852   0.280  16.747  0.6095 -1.0962  0.3367
17545TIP3    H274051   3.780   0.149  16.728  0.4219 -0.7894 -1.1301
17546TIP3   OH274052   0.445   0.926   0.484  0.1592 -0.4817  0.0408
17546TIP3    H174053   0.442   0.968   0.570  1.4823 -0.1751 -0.0452
17546TIP3    H274054   0.353   0.919   0.458 -0.2053  0.3867  1.0149
17547TIP3   OH274055   2.400   3.088   6.485 -0.4232  0.2824 -0.4791
17547TIP3    H174056   2.334   3.117   6.548  0.4868  1.4912 -0.0476
17547TIP3    H274057   2.390   2.993   6.483 -3.0446  0.4993 -1.4281
17548TIP3   OH274058   1.839   6.495  11.366  0.5947  0.1471  0.0037
17548TIP3    H174059   1.756   6.541  11.356  0.5863 -0.0489 -0.9064
17548TIP3    H274060   1.817   6.417  11.418  0.1583 -0.0214 -0.4212
17549TIP3   OH274061   6.566   5.654   4.435  0.3830  0.3517 -0.3375
17549TIP3    H174062   6.503   5.682   4.501 -0.2698 -0.0887 -0.7633
17549TIP3    H274063   6.580   5.561   4.453  0.5166  0.3275 -0.5627
17550TIP3   OH274064   2.590   6.706  13.347  0.4257 -0.1551 -0.5758
17550TIP3    H174065   2.609   6.751  13.265  0.7496  2.0303  0.6256
17550TIP3    H274066   2.499   6.731  13.367  0.2975 -0.7932 -0.3577
17551TIP3   OH274067   4.695   1.322   1.066 -0.2878  0.5684  0.2010
17551TIP3    H174068   4.638   1.253   1.033 -0.3268  0.2658  0.8778
17551TIP3    H274069   4.746   1.350   0.990  0.7616 -1.1938  0.2060
17552TIP3   OH274070   3.482   1.231  16.831  0.4561 -0.3655  0.5216
17552TIP3    H174071   3.524   1.150  16.800  0.2157  0.4319 -2.1259
17552TIP3    H274072   3.417   1.252  16.763  0.6460  2.1456  1.0264
17553TIP3   OH274073   3.872   4.779  12.063  0.1482  0.5231 -0.1761
17553TIP3    H174074   3.926   4.709  12.100 -1.1097 -0.2311  0.2901
17553TIP3    H274075   3.867   4.844  12.132  0.0914  0.3849 -0.0489
17554TIP3   OH274076   4.887   5.895   1.001  0.4835 -0.0025 -0.5723
17554TIP3    H174077   4.940   5.944   0.939  1.6231  0.0095  0.3818
17554TIP3    H274078   4.895   5.944   1.083 -0.8387 -0.1253 -0.3452
17555TIP3   OH274079   4.743   3.713  16.099  0.1621 -0.6734  0.7588
17555TIP3    H174080   4.735   3.638  16.158  2.0002 -1.1406  0.4982
17555TIP3    H274081   4.718   3.680  16.013 -0.6170 -0.5215  0.9166
17556TIP3   OH274082   5.036   1.110  12.198  0.3674 -1.0535 -0.6460
17556TIP3    H174083   5.066   1.065  12.277  0.4650  1.2030  0.6939
17556TIP3    H274084   5.109   1.167  12.174 -0.5705  0.0697 -0.9116
17557TIP3   OH274085   2.865   6.196  14.486 -0.1735 -0.2993  0.1665
17557TIP3    H174086   2.829   6.200  14.574 -0.6556  0.1301 -0.0437
17557TIP3    H274087   2.897   6.107  14.477 -0.3923 -0.4307  0.6717
17558TIP3   OH274088   4.874   5.309   2.168  0.1055  0.1606 -0.0905
17558TIP3    H174089   4.842   5.251   2.100 -0.2195 -0.8477  0.9003
17558TIP3    H274090   4.827   5.391   2.153 -2.6997 -1.1154  1.0348
17559TIP3   OH274091   2.457   4.244  13.068  0.8166 -0.5618 -0.2846
17559TIP3    H174092   2.407   4.298  13.130  0.8865 -1.6666  0.7741
17559TIP3    H274093   2.400   4.170  13.050  0.3439  0.2546 -2.4426
17560TIP3   OH274094   5.188   5.585   3.407 -0.4295  0.4174  0.0346
17560TIP3    H174095   5.244   5.583   3.329  1.0841  0.8690  1.0696
17560TIP3    H274096   5.153   5.673   3.410  0.7115  0.8669  0.6567
17561TIP3   OH274097   2.391   0.382   5.251  0.0348  0.2770  0.1508
17561TIP3    H174098   2.314   0.381   5.195 -0.2089  0.8713  0.4654
17561TIP3    H274099   2.360   0.420   5.333  1.1101  2.4773 -0.3940
17562TIP3   OH274100   6.586   4.589  13.234 -0.2280  0.1556 -0.9777
17562TIP3    H174101   6.632   4.540  13.166 -0.5483  0.0038 -1.0926
17562TIP3    H274102   6.509   4.534  13.253  1.5182 -1.5206  1.9039
17563TIP3   OH274103   2.179   1.598   2.802 -0.3229  0.5135 -0.2943
17563TIP3    H174104   2.178   1.562   2.713 -3.2256 -1.2625  0.3347
17563TIP3    H274105   2.234   1.537   2.852 -0.1733  0.4865 -0.4892
17564TIP3   OH274106   3.667   1.189   4.104  0.5632 -0.4035 -0.1626
17564TIP3    H174107   3.581   1.167   4.140  0.9081 -1.4030  0.0942
17564TIP3    H274108   3.654   1.189   4.009  0.5105 -1.6556 -0.1718
17565TIP3   OH274109   1.037   2.972   2.799 -0.2672  0.2311 -0.7857
17565TIP3    H174110   1.032   3.032   2.874  0.7687 -0.2541 -0.3026
17565TIP3    H274111   0.955   2.922   2.803  0.8566 -1.6280  1.6546
17566TIP3   OH274112   3.090   3.909   1.907 -0.6030  0.3760 -0.2529
17566TIP3    H174113   3.158   3.973   1.926 -2.4110  1.8215  1.9234
17566TIP3    H274114   3.137   3.834   1.870  1.8633  2.0580 -0.7957
17567TIP3   OH274115   1.115   3.210   6.190 -0.4560 -0.0992  0.1533
17567TIP3    H174116   1.038   3.160   6.162 -1.4947  2.4943 -2.1545
17567TIP3    H274117   1.086   3.302   6.188  2.2854  0.8731  0.6705
17568TIP3   OH274118   2.223   0.915  13.862  0.0074  0.7909  0.0300
17568TIP3    H174119   2.213   0.915  13.957 -0.9241  0.5478 -0.0604
17568TIP3    H274120   2.312   0.882  13.848 -0.4725 -0.9210  0.7643
17569TIP3   OH274121   2.989   2.967   6.698  0.5327 -0.1813  0.4135
17569TIP3    H174122   2.898   2.980   6.673  0.5041  1.7501  1.3208
17569TIP3    H274123   3.011   2.880   6.666 -1.3598 -0.3314 -0.5928
17570TIP3   OH274124   5.965   4.095   4.358 -0.3852  0.6173 -0.3618
17570TIP3    H174125   5.870   4.104   4.362 -0.4279 -0.2816  1.6634
17570TIP3    H274126   5.996   4.123   4.444  1.3929  2.5859 -1.5307
17571TIP3   OH274127   4.322   1.260  12.863 -0.2739  0.1063 -0.2282
17571TIP3    H174128   4.299   1.346  12.827 -2.2288 -0.1910  0.2193
17571TIP3    H274129   4.265   1.199  12.817  2.2080 -1.2265 -1.7146
17572TIP3   OH274130   2.904   2.149   2.355 -0.1028  0.1592 -0.2692
17572TIP3    H174131   2.888   2.242   2.372  0.3299  0.2572 -0.3838
17572TIP3    H274132   2.988   2.147   2.310 -0.8222 -0.1659 -1.6447
17573TIP3   OH274133   5.507   1.034   6.004  0.1306  0.9985  0.1515
17573TIP3    H174134   5.507   0.992   5.918  0.2835  0.7184  0.2897
17573TIP3    H274135   5.521   1.127   5.985  1.1337  0.8108 -0.0600
17574TIP3   OH274136   1.684   3.376   6.271 -0.6204  0.4470 -0.1145
17574TIP3    H174137   1.627   3.413   6.204 -0.6050  0.8102  0.0665
17574TIP3    H274138   1.673   3.282   6.263  0.1378  0.4340 -1.2946
17575TIP3   OH274139   1.721   3.364   1.518 -0.1432  0.5346  0.4403
17575TIP3    H174140   1.652   3.299   1.524  0.2557  0.1073  0.4473
17575TIP3    H274141   1.725   3.388   1.426  0.3337 -0.1419  0.2767
17576TIP3   OH274142   1.969   3.665  13.442  0.1382 -0.3218 -0.3004
17576TIP3    H174143   1.961   3.698  13.532 -1.2247 -1.1087 -0.1179
17576TIP3    H274144   2.064   3.660  13.427  0.3957  1.9443  0.2791
17577TIP3   OH274145   5.478   0.462   3.836  0.1353  0.0601 -0.1866
17577TIP3    H174146   5.517   0.521   3.901 -0.0159 -0.5984  0.5147
17577TIP3    H274147   5.540   0.462   3.763  0.3537  0.7375 -0.0112
17578TIP3   OH274148   1.436   1.336  11.133 -0.5137 -0.4156 -0.1119
17578TIP3    H174149   1.406   1.425  11.152  2.2411  0.7468 -0.6739
17578TIP3    H274150   1.489   1.313  11.209  0.0675 -0.9035 -0.6525
17579TIP3   OH274151   1.079   0.355   3.976  0.3032 -0.0204  0.1244
17579TIP3    H174152   1.067   0.388   4.065  0.0746 -0.0393  0.0991
17579TIP3    H274153   1.166   0.315   3.978  0.3874  0.1671  0.2809
17580TIP3   OH274154   0.575   5.395  14.138 -0.3093  1.0838 -0.2401
17580TIP3    H174155   0.508   5.354  14.083  1.1081 -0.5558 -0.8022
17580TIP3    H274156   0.641   5.425  14.076  0.4794  0.7949  0.4559
17581TIP3   OH274157   3.671   3.025   2.735  0.0141  0.4971 -0.0606
17581TIP3    H174158   3.691   3.093   2.799 -0.7768  0.5490  0.1319
17581TIP3    H274159   3.709   3.058   2.653  2.0407 -0.0876  0.5868
17582TIP3   OH274160   4.231   2.514  12.924  0.7685 -0.1062  0.1646
17582TIP3    H174161   4.210   2.463  13.002  2.4161  0.0255  0.7260
17582TIP3    H274162   4.162   2.492  12.861 -0.3768 -0.4856  1.5238
17583TIP3   OH274163   6.380   0.044   5.531 -0.6535  0.4204 -0.7919
17583TIP3    H174164   6.423   0.061   5.447  0.0686  0.8935 -0.3420
17583TIP3    H274165   6.430  -0.029   5.569 -0.7094  0.4894 -0.5854
17584TIP3   OH274166   0.156   0.532   2.699 -0.4404  0.2944  0.2366
17584TIP3    H174167   0.166   0.483   2.780 -1.9435  1.0045  0.8931
17584TIP3    H274168   0.147   0.465   2.631 -0.8089 -0.3209  0.8816
17585TIP3   OH274169   1.128   0.973   5.016  0.0158  0.0450  0.0375
17585TIP3    H174170   1.199   0.911   5.029  0.0367 -0.0617 -0.5458
17585TIP3    H274171   1.066   0.955   5.087 -0.4481 -1.3145 -0.6852
17586TIP3   OH274172   3.609   3.309   3.739  0.6486 -0.3417  0.1134
17586TIP3    H174173   3.530   3.279   3.694 -0.0122 -1.8006  2.0683
17586TIP3    H274174   3.586   3.305   3.832  2.4132  1.0500  0.6659
17587TIP3   OH274175   2.458   3.962   4.094 -0.1499  0.0549 -0.0726
17587TIP3    H174176   2.403   3.981   4.019 -3.0500 -3.2507  0.9260
17587TIP3    H274177   2.404   3.986   4.170 -0.0125 -2.4602  0.9381
17588TIP3   OH274178   0.834   4.736  15.017 -0.4516 -0.5917  0.0809
17588TIP3    H174179   0.906   4.714  15.076  0.7010 -1.7418 -1.6823
17588TIP3    H274180   0.857   4.822  14.981 -0.5079 -0.4761  0.3192
17589TIP3   OH274181   3.445   4.813  17.338  0.6646 -0.1038  0.0532
17589TIP3    H174182   3.449   4.851  17.426 -1.4552 -1.9788  1.0652
17589TIP3    H274183   3.472   4.722  17.351 -0.5785 -0.6544 -1.0460
17590TIP3   OH274184   3.499   4.271  16.473 -0.3762  0.2795  0.4028
17590TIP3    H174185   3.423   4.277  16.531  0.6830  2.9515  1.6863
17590TIP3    H274186   3.505   4.358  16.433  0.7692 -0.5542 -1.3595
17591TIP3   OH274187   6.379   0.127  12.436 -0.5591 -0.2179 -0.2012
17591TIP3    H174188   6.378   0.095  12.526  1.2616  2.0768  0.7312
17591TIP3    H274189   6.450   0.079  12.394 -0.1051  0.0937  0.1928
17592TIP3   OH274190   0.600   0.407   4.426  0.0137  0.0981  0.5170
17592TIP3    H174191   0.682   0.399   4.475  1.1645 -0.9563 -1.4169
17592TIP3    H274192   0.592   0.501   4.408 -0.1676  0.4336  2.1992
17593TIP3   OH274193   5.323   0.797   1.923 -0.1100 -0.0448  0.3802
17593TIP3    H174194   5.310   0.810   2.018  0.0682  1.1384  0.2656
17593TIP3    H274195   5.262   0.727   1.900  0.1586 -0.6617  1.4480
17594TIP3   OH274196   4.894   5.102   4.397  0.0283  0.2821  0.0231
17594TIP3    H174197   4.959   5.144   4.453  0.5760 -0.7918  0.2201
17594TIP3    H274198   4.810   5.135   4.429  0.4739  2.0223 -0.5195
17595TIP3   OH274199   3.684   1.523   1.233 -0.8355  0.0098 -1.1816
17595TIP3    H174200   3.696   1.557   1.322 -1.6116 -1.0899 -0.6287
17595TIP3    H274201   3.622   1.583   1.192 -0.5423  0.4715 -0.9498
17596TIP3   OH274202   5.349   6.063   5.260 -0.0709  0.0867  0.0264
17596TIP3    H174203   5.373   6.153   5.284  1.2821 -0.5430  1.2169
17596TIP3    H274204   5.254   6.065   5.248 -0.3963  1.2110  2.3213
17597TIP3   OH274205   2.612   4.797  13.345 -0.0349  0.6497  0.1016
17597TIP3    H174206   2.679   4.730  13.354 -0.5874 -0.0782 -1.0334
17597TIP3    H274207   2.655   4.869  13.299 -0.1578 -0.0311 -1.1064
17598TIP3   OH274208   4.659   2.427   4.662  0.3326  0.3284 -0.8031
17598TIP3    H174209   4.737   2.390   4.621 -0.3685 -0.3724 -1.5339
17598TIP3    H274210   4.594   2.357   4.657 -0.4980  1.0761 -0.6686
17599TIP3   OH274211   1.209   6.367   0.688 -0.1959 -0.0036 -0.5985
17599TIP3    H174212   1.303   6.376   0.675  0.6808 -2.2964  2.8417
17599TIP3    H274213   1.185   6.286   0.642  0.6373 -2.0386  2.2808
17600TIP3   OH274214   5.179   4.517   6.366 -0.5260  0.2905 -0.2725
17600TIP3    H174215   5.239   4.540   6.295 -1.1208  1.1255 -0.5292
17600TIP3    H274216   5.134   4.600   6.387 -1.9004 -0.3859 -0.3914
17601TIP3   OH274217   3.073   3.420  13.012 -0.8062  0.4305 -0.0271
17601TIP3    H174218   3.108   3.388  13.095 -2.4493  0.1897  0.6146
17601TIP3    H274219   3.145   3.410  12.950  0.6144  1.0307  1.4472
17602TIP3   OH274220   5.444   5.570   5.622  0.1955  0.2919  0.3807
17602TIP3    H174221   5.473   5.541   5.708  1.1756 -0.5302 -0.2093
17602TIP3    H274222   5.491   5.652   5.607 -0.4843  0.7916  0.8870
17603TIP3   OH274223   6.303   6.014  13.989 -0.6909 -0.3743  0.6116
17603TIP3    H174224   6.219   5.997  13.947 -2.2358  2.0062  2.4597
17603TIP3    H274225   6.331   6.099  13.954 -0.4016  0.0923  1.8965
17604TIP3   OH274226   3.352   3.438   6.205  0.3217  0.3605 -0.1605
17604TIP3    H174227   3.346   3.492   6.126  0.1848  0.2274 -0.2408
17604TIP3    H274228   3.308   3.490   6.273 -1.1299 -0.2866 -0.5715
17605TIP3   OH274229   1.277   0.820  15.690 -0.2651  0.0679  0.2020
17605TIP3    H174230   1.291   0.873  15.769  1.0412 -0.1393  0.1364
17605TIP3    H274231   1.258   0.884  15.621 -0.4549  0.3254  0.4957
17606TIP3   OH274232   1.665   1.469   3.527  0.0090 -0.1617  0.8831
17606TIP3    H174233   1.716   1.524   3.468  0.9701 -1.0565  0.8453
17606TIP3    H274234   1.731   1.419   3.576 -0.7060  1.1620  3.3559
17607TIP3   OH274235   4.900   2.866   0.579 -0.3267 -0.1636  0.0724
17607TIP3    H174236   4.981   2.824   0.551 -0.3291  1.0685 -2.0396
17607TIP3    H274237   4.929   2.945   0.625 -0.3382 -0.3199  0.3513
17608TIP3   OH274238   4.373   0.127   2.329  0.0799 -0.0185 -0.3036
17608TIP3    H174239   4.396   0.208   2.373  1.5374  0.4373 -1.8044
17608TIP3    H274240   4.300   0.092   2.380 -0.3275  2.0145  0.5996
17609TIP3   OH274241   4.592   2.810  13.422  0.0489 -0.3211  0.0565
17609TIP3    H174242   4.660   2.864  13.382  0.5104 -0.3353  0.7944
17609TIP3    H274243   4.524   2.804  13.356  0.3490  0.4950 -0.3439
17610TIP3   OH274244   5.695   2.647  10.403 -0.1257  0.2237  0.5522
17610TIP3    H174245   5.624   2.710  10.411 -1.3969 -1.2757  1.5850
17610TIP3    H274246   5.672   2.576  10.463  1.3583 -1.1335 -0.3888
17611TIP3   OH274247   0.737   5.447   5.057  0.1369 -0.2470 -0.1978
17611TIP3    H174248   0.695   5.521   5.101 -1.2876 -0.6077 -0.8931
17611TIP3    H274249   0.811   5.425   5.113  0.8319  1.9427 -0.1883
17612TIP3   OH274250   3.280   2.356   1.891  0.5278  0.6192 -0.0466
17612TIP3    H174251   3.297   2.297   1.818  1.1369 -0.9305  1.2925
17612TIP3    H274252   3.186   2.349   1.906  0.6900 -0.5253  0.5065
17613TIP3   OH274253   2.079   6.285   5.482  0.1121  0.6673 -0.2437
17613TIP3    H174254   2.025   6.269   5.559  2.2163 -1.5112  0.9428
17613TIP3    H274255   2.019   6.319   5.416 -2.4228 -0.5042  1.3226
17614TIP3   OH274256   1.351   0.495  12.153  0.0575  0.7937  0.4822
17614TIP3    H174257   1.376   0.582  12.123  0.2273  0.5149 -0.2053
17614TIP3    H274258   1.256   0.491  12.138  0.2825  0.3062 -0.9864
17615TIP3   OH274259   5.432   2.431  14.931  0.2460 -0.0326  0.5385
17615TIP3    H174260   5.489   2.490  14.881 -1.3864  0.9571 -0.2419
17615TIP3    H274261   5.432   2.350  14.881 -1.2344  0.8933 -1.1098
17616TIP3   OH274262   3.497   6.268   3.216 -0.3326 -0.4839 -0.6032
17616TIP3    H174263   3.476   6.202   3.150  1.3555 -3.2257  1.4295
17616TIP3    H274264   3.574   6.313   3.181 -0.4839 -0.7077 -1.2429
17617TIP3   OH274265   5.365   2.251   2.608  0.0232 -0.4193  0.1221
17617TIP3    H174266   5.280   2.289   2.628  0.1393  0.4258 -0.8642
17617TIP3    H274267   5.429   2.314   2.643  0.2330 -0.7580  0.3512
17618TIP3   OH274268   0.105   2.304   5.060 -0.1198 -0.5139 -0.4401
17618TIP3    H174269   0.184   2.280   5.108 -0.1825 -0.4669 -0.3133
17618TIP3    H274270   0.092   2.232   4.998  0.4658 -0.1388 -0.9977
17619TIP3   OH274271   2.354   6.166  11.174  0.1310 -0.2843 -0.0701
17619TIP3    H174272   2.367   6.148  11.080 -0.8824 -1.5379  0.0023
17619TIP3    H274273   2.346   6.261  11.179  0.6452 -0.1558 -1.1948
17620TIP3   OH274274   1.138   5.651  17.361 -0.0952  0.0375 -0.4962
17620TIP3    H174275   1.133   5.698  17.444 -0.6608 -0.0004 -0.5024
17620TIP3    H274276   1.047   5.644  17.332 -0.0200 -0.9751 -0.5400
17621TIP3   OH274277   0.328   0.777   2.504 -0.0919 -0.4335  0.1204
17621TIP3    H174278   0.390   0.805   2.436 -0.3456 -1.4005 -0.5291
17621TIP3    H274279   0.377   0.786   2.586  0.8343 -0.9587 -0.3628
17622TIP3   OH274280   0.204   1.756   4.278  0.1525 -0.3288  0.4568
17622TIP3    H174281   0.154   1.805   4.213 -1.3852 -1.0617  1.0360
17622TIP3    H274282   0.221   1.819   4.348  0.1469 -0.0404  0.2004
17623TIP3   OH274283   6.558   1.575   3.852  0.3036 -0.1113 -0.3568
17623TIP3    H174284   6.601   1.633   3.914 -1.7411  1.3261 -0.1862
17623TIP3    H274285   6.573   1.615   3.766 -0.3905  0.2340 -0.3261
17624TIP3   OH274286   3.833   5.101   5.835 -0.1713 -0.2726  0.2933
17624TIP3    H174287   3.827   5.102   5.931 -1.6916 -2.3258  0.2863
17624TIP3    H274288   3.814   5.191   5.809 -1.3315 -0.0147  1.8627
17625TIP3   OH274289   0.354   2.387  12.463 -0.0706 -0.8125  0.1813
17625TIP3    H174290   0.423   2.323  12.444  0.6897 -0.2343  0.9279
17625TIP3    H274291   0.369   2.457  12.400 -0.2061 -0.8566  0.0998
17626TIP3   OH274292   0.214   0.993   2.140 -1.3303 -0.1353 -0.7216
17626TIP3    H174293   0.148   1.043   2.187 -0.7242  1.0934 -1.1291
17626TIP3    H274294   0.189   0.901   2.154 -1.4839  0.1861  1.5087
17627TIP3   OH274295   4.894   1.348  14.070 -0.4248 -0.1681 -0.0556
17627TIP3    H174296   4.809   1.366  14.030 -0.6439  0.8041  0.7850
17627TIP3    H274297   4.958   1.368  14.002 -0.8243  0.5521 -0.2387
17628TIP3   OH274298   3.324   5.380   5.183  0.0510 -0.2578  0.0064
17628TIP3    H174299   3.306   5.292   5.149 -1.4823  0.4221 -1.0921
17628TIP3    H274300   3.408   5.404   5.144 -0.0210 -0.8437 -0.5265
17629TIP3   OH274301   1.335   1.320  14.389 -0.0410 -0.4476  0.5097
17629TIP3    H174302   1.330   1.395  14.448  0.9551 -0.4287  0.5979
17629TIP3    H274303   1.421   1.329  14.348  0.5044 -2.0439  1.2248
17630TIP3   OH274304   6.145   0.609   1.797 -0.3468  0.1641  0.2558
17630TIP3    H174305   6.081   0.679   1.784  0.6192  0.9360 -0.4947
17630TIP3    H274306   6.187   0.631   1.881  1.7541  2.0325 -1.1584
17631TIP3   OH274307   1.783   4.671  11.821 -0.1217  0.6983 -0.4780
17631TIP3    H174308   1.757   4.760  11.797  1.3018  0.6652 -2.3840
17631TIP3    H274309   1.794   4.626  11.738 -1.3371 -1.4713  0.4492
17632TIP3   OH274310   3.493   2.646  13.400  0.2396  0.7308 -0.2956
17632TIP3    H174311   3.426   2.703  13.361 -0.5463  0.6999  0.9323
17632TIP3    H274312   3.443   2.586  13.456  1.2101 -0.0064 -0.2002
17633TIP3   OH274313   4.383   0.200   0.026  0.5309 -0.0884 -0.2018
17633TIP3    H174314   4.358   0.200  -0.067 -0.4029  0.0575  0.0390
17633TIP3    H274315   4.418   0.112   0.041  0.9622 -0.0200 -0.7611
17634TIP3   OH274316   1.565   6.600   4.487  0.9529 -0.2860  0.5160
17634TIP3    H174317   1.545   6.600   4.393  0.6219  0.0459  0.5851
17634TIP3    H274318   1.480   6.599   4.530  0.9975  2.2462  0.8244
17635TIP3   OH274319   4.257   5.662   5.377  0.3322 -0.2537 -0.2284
17635TIP3    H174320   4.180   5.622   5.339 -0.0641  0.3001 -0.0183
17635TIP3    H274321   4.279   5.606   5.452 -1.5465  1.0989  1.4495
17636TIP3   OH274322   0.911   1.186   1.457 -0.3877  0.1999  1.0111
17636TIP3    H174323   0.879   1.098   1.433  1.1348 -0.2798  0.6389
17636TIP3    H274324   0.916   1.184   1.552  0.6524 -0.5256  0.9653
17637TIP3   OH274325   3.643   4.361   2.936  0.2295 -0.2641 -0.1487
17637TIP3    H174326   3.587   4.361   3.014  1.3901 -0.8587  0.7231
17637TIP3    H274327   3.583   4.341   2.864 -1.2318  2.2252  0.2480
17638TIP3   OH274328   3.290   5.214  12.584  0.5417 -0.5610  0.2040
17638TIP3    H174329   3.382   5.186  12.584  1.1931  1.2725 -1.6783
17638TIP3    H274330   3.255   5.178  12.502 -0.5343 -1.4391  1.0179
17639TIP3   OH274331   0.998   0.075   1.026 -0.7611 -0.1891  0.2882
17639TIP3    H174332   0.948   0.116   1.096 -0.2581 -0.7331  0.9861
17639TIP3    H274333   1.043   0.147   0.982 -1.1527  0.1663  0.4711
17640TIP3   OH274334   5.471   0.275  13.248 -0.0423  0.2873 -0.0207
17640TIP3    H174335   5.481   0.225  13.166 -1.4687  1.0052 -0.6758
17640TIP3    H274336   5.535   0.346  13.241 -0.3096  0.4769 -0.6326
17641TIP3   OH274337   5.464   5.340  11.094 -1.0989 -0.0255  0.7314
17641TIP3    H174338   5.533   5.274  11.105 -2.0715 -0.9136  1.6860
17641TIP3    H274339   5.508   5.424  11.111 -0.1191 -0.5259  0.7165
17642TIP3   OH274340   0.590   0.669   4.339 -0.1459  0.8180 -0.0098
17642TIP3    H174341   0.514   0.721   4.365 -1.1640 -1.1327  1.1236
17642TIP3    H274342   0.575   0.651   4.246 -0.9463  0.6558  0.1421
17643TIP3   OH274343   4.124   2.198   3.486 -0.3313 -0.6273 -1.3334
17643TIP3    H174344   4.048   2.148   3.515  0.1804 -0.1757  1.0072
17643TIP3    H274345   4.198   2.140   3.501  0.2291  0.5832  1.0660
17644TIP3   OH274346   4.529   6.413  15.678  0.2288  0.2889  0.0703
17644TIP3    H174347   4.605   6.358  15.657  0.2532 -0.2680  1.4734
17644TIP3    H274348   4.456   6.351  15.681 -0.0175  0.5838  0.1319
17645TIP3   OH274349   1.122   5.811  16.200  0.0326 -0.4477 -0.0765
17645TIP3    H174350   1.190   5.813  16.132 -0.0014  0.7474 -0.0995
17645TIP3    H274351   1.055   5.753  16.165 -1.1112  2.0004 -2.2126
17646TIP3   OH274352   3.681   2.038   2.532 -0.5697  0.0540  0.2941
17646TIP3    H174353   3.630   2.118   2.528  0.1132  0.4961  0.1782
17646TIP3    H274354   3.642   1.981   2.466 -1.8365 -0.1881  1.2183
17647TIP3   OH274355   5.604   2.708   0.590  0.0005 -0.2500 -0.5294
17647TIP3    H174356   5.595   2.803   0.590  1.0359 -0.0852 -2.5022
17647TIP3    H274357   5.563   2.680   0.508  1.4195 -1.2690 -0.9273
17648TIP3   OH274358   4.022   2.176  11.099 -0.4408  1.0633  0.0934
17648TIP3    H174359   3.993   2.147  11.013  1.1793 -1.1049  0.1764
17648TIP3    H274360   4.108   2.215  11.084 -0.0622  0.5035  0.7210
17649TIP3   OH274361   1.640   1.460  15.536  0.8570 -0.4480  0.1399
17649TIP3    H174362   1.648   1.536  15.477 -1.7183  0.5566  0.9768
17649TIP3    H274363   1.595   1.494  15.613 -0.4806 -2.8461  0.4990
17650TIP3   OH274364   2.511   5.451   4.098 -0.2366  0.3273  0.1171
17650TIP3    H174365   2.586   5.392   4.088  1.8695  2.7064  0.6400
17650TIP3    H274366   2.509   5.470   4.192 -0.8802  1.0623 -0.0367
17651TIP3   OH274367   0.420   2.954   4.450  0.3196 -0.1780  0.0288
17651TIP3    H174368   0.377   2.869   4.441  0.2345 -0.0767 -0.5146
17651TIP3    H274369   0.351   3.013   4.478  0.4896 -0.3938  0.9411
17652TIP3   OH274370   0.136   5.453   5.423  0.0171  0.8915 -0.0991
17652TIP3    H174371   0.063   5.445   5.361 -0.4767 -0.9866  0.6449
17652TIP3    H274372   0.141   5.546   5.443 -0.7882  1.3404 -1.7878
17653TIP3   OH274373   2.532   1.382  11.464  0.0674  0.4861  0.3395
17653TIP3    H174374   2.609   1.355  11.514 -0.2846  1.8342  1.7134
17653TIP3    H274375   2.461   1.330  11.501 -0.2619  1.7493  1.6191
17654TIP3   OH274376   2.753   4.640   3.505 -0.3959 -0.0302  0.0465
17654TIP3    H174377   2.700   4.580   3.452  0.9316 -0.3763 -0.9495
17654TIP3    H274378   2.762   4.718   3.450 -0.4587  0.3139  0.5162
17655TIP3   OH274379   1.604   3.992  15.018 -0.2489 -0.3567 -0.1629
17655TIP3    H174380   1.629   4.065  15.075 -0.0574 -1.1115  0.7345
17655TIP3    H274381   1.680   3.980  14.961 -0.0439 -0.2401  0.0806
17656TIP3   OH274382   2.933   2.180  14.195  0.3151 -0.3341  0.1787
17656TIP3    H174383   2.961   2.091  14.174  0.3100 -0.2495 -0.1829
17656TIP3    H274384   3.012   2.233  14.185  0.0619 -0.1118 -0.7397
17657TIP3   OH274385   0.477   6.221   3.921 -1.0802 -0.0761  0.2085
17657TIP3    H174386   0.553   6.204   3.866 -1.3707 -1.3802  0.1835
17657TIP3    H274387   0.482   6.315   3.940 -0.5601  0.2556 -1.3981
17658TIP3   OH274388   1.269   1.262   4.917 -0.3149  0.1696 -0.3370
17658TIP3    H174389   1.267   1.174   4.879 -2.2988  0.3179 -0.6647
17658TIP3    H274390   1.347   1.261   4.973  0.0419 -1.5927 -0.7873
17659TIP3   OH274391   3.428   4.867  14.864  0.1435  0.4139 -0.0433
17659TIP3    H174392   3.485   4.841  14.792 -1.2877 -3.6520  0.0115
17659TIP3    H274393   3.479   4.848  14.943  0.1930  0.7902  0.0169
17660TIP3   OH274394   2.200   1.912  13.052 -0.1669  0.6877 -0.3523
17660TIP3    H174395   2.211   1.966  12.974  0.9548  0.5190 -0.3389
17660TIP3    H274396   2.248   1.959  13.121  2.1610 -0.9925 -0.6892
17661TIP3   OH274397   3.727   3.937  15.986 -0.3846 -0.1028  0.0471
17661TIP3    H174398   3.684   3.994  16.051 -2.1542 -2.6193  1.2826
17661TIP3    H274399   3.773   3.871  16.039 -0.3166 -1.1472 -1.2589
17662TIP3   OH274400   0.056   0.447   1.467  0.7226  0.4892 -0.1301
17662TIP3    H174401   0.071   0.391   1.543 -0.9965  0.5505  0.3022
17662TIP3    H274402   0.009   0.391   1.405 -1.4539  1.4842  0.4960
17663TIP3   OH274403   2.424   0.120  10.696  0.2475 -0.7059 -0.0866
17663TIP3    H174404   2.335   0.143  10.668  0.1572  1.3876  1.6773
17663TIP3    H274405   2.415   0.033  10.735 -1.0253 -0.5545  0.0026
17664TIP3   OH274406   0.966   1.400   5.208  0.0993 -0.3924 -0.1100
17664TIP3    H174407   0.968   1.313   5.168 -0.4203 -0.6475  0.4003
17664TIP3    H274408   0.974   1.384   5.302  0.6591  0.1587 -0.0519
17665TIP3   OH274409   0.208   1.637   5.353 -0.3518 -0.1966 -0.2611
17665TIP3    H174410   0.150   1.593   5.291 -0.0423 -0.1472 -0.5881
17665TIP3    H274411   0.287   1.582   5.356  1.1406  1.6388 -2.6626
17666TIP3   OH274412   1.658   3.804   1.008  0.1075  0.4957  0.1364
17666TIP3    H174413   1.605   3.803   0.928 -0.2202  0.4339  0.3515
17666TIP3    H274414   1.746   3.824   0.978  0.0237  0.2723 -0.2639
17667TIP3   OH274415   5.075   1.895  16.744  0.8707 -0.4232 -0.0030
17667TIP3    H174416   5.161   1.921  16.711 -0.1449  1.0782 -1.6678
17667TIP3    H274417   5.083   1.802  16.765  2.8854 -0.2910 -0.0731
17668TIP3   OH274418   2.068   3.563  15.641  0.0079  0.3830 -0.7387
17668TIP3    H174419   2.105   3.534  15.725  1.3724  2.0378 -0.7081
17668TIP3    H274420   2.130   3.532  15.575 -0.2458  0.4148 -0.9933
17669TIP3   OH274421   3.834   3.410  11.681 -0.0248 -0.3787  0.2540
17669TIP3    H174422   3.758   3.360  11.654  0.7362 -1.2136 -0.3998
17669TIP3    H274423   3.878   3.435  11.599 -0.1307  0.9720  0.5789
17670TIP3   OH274424   6.471   1.604  15.396  0.6053  0.1819  0.2779
17670TIP3    H174425   6.491   1.592  15.303  0.7613  0.2687  0.2991
17670TIP3    H274426   6.546   1.653  15.430  2.1942 -2.6237  1.1565
17671TIP3   OH274427   5.118   1.957   2.559 -0.4819 -0.8383 -0.4105
17671TIP3    H174428   5.127   2.045   2.596 -0.5941 -1.1898  0.4948
17671TIP3    H274429   5.036   1.925   2.597  0.0968 -1.7229  0.1059
17672TIP3   OH274430   2.695   4.448   2.305 -0.6946 -0.5111  0.1682
17672TIP3    H174431   2.760   4.403   2.251 -0.2759 -0.1890  0.4027
17672TIP3    H274432   2.619   4.389   2.304 -0.8089 -0.3736 -1.0180
17673TIP3   OH274433   6.110   5.874   3.328  0.0163  0.0838 -0.0284
17673TIP3    H174434   6.015   5.884   3.337 -0.0429  0.2213 -0.7296
17673TIP3    H274435   6.145   5.961   3.346 -0.0339  0.1602 -0.2983
17674TIP3   OH274436   4.892   5.560   1.953  0.6576 -0.6940 -0.0281
17674TIP3    H174437   4.818   5.498   1.950 -0.1408  0.1370  1.3860
17674TIP3    H274438   4.932   5.554   1.866 -0.9040 -1.3788 -0.7416
17675TIP3   OH274439   4.936   4.921   5.079  0.0426 -0.3732 -0.4486
17675TIP3    H174440   4.857   4.971   5.059  1.0776  1.7367  0.3644
17675TIP3    H274441   4.932   4.907   5.173  0.7289 -0.0245 -0.3591
17676TIP3   OH274442   3.845   1.967  15.705  0.4139 -0.8610  0.1393
17676TIP3    H174443   3.800   1.915  15.772 -1.6123 -0.6036 -0.9286
17676TIP3    H274444   3.816   2.057  15.722  1.0229 -0.5938 -0.2097
17677TIP3   OH274445   2.203   1.163   5.456  0.0911  0.4277 -0.2597
17677TIP3    H174446   2.116   1.179   5.420 -0.4217 -0.8926  0.3413
17677TIP3    H274447   2.211   1.226   5.528 -0.6996  0.0362  0.1853
17678TIP3   OH274448   0.763   2.468  12.537 -0.1298 -0.4487  0.2253
17678TIP3    H174449   0.849   2.501  12.564 -1.3642  1.5325  2.0536
17678TIP3    H274450   0.739   2.522  12.462  0.8096 -2.0607 -1.3172
17679TIP3   OH274451   0.831   5.518  11.586 -0.2192 -0.1672  0.1894
17679TIP3    H174452   0.806   5.605  11.553 -1.3905 -0.3981  0.4403
17679TIP3    H274453   0.757   5.462  11.564 -0.4534 -0.6154  1.9904
17680TIP3   OH274454   1.950   0.930   0.517 -0.2707 -0.1995  0.2490
17680TIP3    H174455   1.901   0.850   0.536  0.9134 -1.4650 -1.7222
17680TIP3    H274456   1.937   0.945   0.424  2.0076  0.1580 -0.0707
17681TIP3   OH274457   4.709   1.798   5.492  0.4253  0.1299  0.9465
17681TIP3    H174458   4.773   1.797   5.422 -0.0961  1.0968  0.4418
17681TIP3    H274459   4.627   1.772   5.450  0.1848  0.3612  1.2684
17682TIP3   OH274460   2.246   5.351   4.120  0.0608  0.0643 -0.1088
17682TIP3    H174461   2.228   5.331   4.212 -0.9214  0.1447 -0.2692
17682TIP3    H274462   2.332   5.391   4.121 -0.4433  1.2039  0.9442
17683TIP3   OH274463   2.789   4.004  12.091  0.5568  0.0876 -0.3936
17683TIP3    H174464   2.712   3.966  12.132  1.3553 -0.4313  0.7039
17683TIP3    H274465   2.817   3.940  12.026  1.4010 -0.8647  0.8550
17684TIP3   OH274466   1.501   4.046  15.362  0.0322  0.1498  0.1511
17684TIP3    H174467   1.594   4.041  15.343  0.3992  3.0490  0.7987
17684TIP3    H274468   1.459   4.027  15.277  1.2699  1.0354 -0.6918
17685TIP3   OH274469   4.795   2.716   3.122 -0.1591  0.5328  0.2852
17685TIP3    H174470   4.718   2.723   3.178 -0.7837  2.2346 -0.7266
17685TIP3    H274471   4.869   2.730   3.181 -0.8110  2.3726  0.7184
17686TIP3   OH274472   5.605   2.601  14.533 -0.2437 -0.4052  0.2228
17686TIP3    H174473   5.543   2.575  14.465  0.3718 -0.1840 -0.4294
17686TIP3    H274474   5.691   2.578  14.498  0.0784 -0.3544  0.9565
17687TIP3   OH274475   6.182   5.911  15.922  0.3542 -0.1250 -0.3830
17687TIP3    H174476   6.271   5.940  15.940 -0.7427  1.9360  2.4512
17687TIP3    H274477   6.151   5.872  16.004 -1.0719 -1.7276 -1.6017
17688TIP3   OH274478   0.648   1.532  17.220  0.0460  0.1525  0.3022
17688TIP3    H174479   0.570   1.585  17.203 -0.3200 -0.4746  0.0275
17688TIP3    H274480   0.721   1.594  17.212 -0.4857  1.0230  1.7898
17689TIP3   OH274481   4.769   5.265  16.119  0.1722 -0.1251 -0.0568
17689TIP3    H174482   4.752   5.341  16.064  0.0937 -0.9863 -1.2661
17689TIP3    H274483   4.861   5.243  16.102  0.1466 -0.4100  0.1612
17690TIP3   OH274484   3.652   1.509  13.486  0.0259  0.4062 -0.2031
17690TIP3    H174485   3.636   1.524  13.579 -2.2245  0.2492 -0.5117
17690TIP3    H274486   3.634   1.416  13.472  1.5044  0.1501 -0.6202
17691TIP3   OH274487   4.491   6.062   1.954 -0.1782 -0.1119  0.0536
17691TIP3    H174488   4.442   5.996   2.004 -2.3725  0.5362 -1.0735
17691TIP3    H274489   4.574   6.020   1.934  0.1326 -0.9974  2.7523
17692TIP3   OH274490   0.470   5.343  16.841 -0.4809  0.1478 -0.2246
17692TIP3    H174491   0.443   5.256  16.873  0.3052  0.1672  0.5438
17692TIP3    H274492   0.538   5.370  16.902 -1.1940  1.6190 -0.0506
17693TIP3   OH274493   3.635   6.186  15.259  0.3045  0.3437 -0.7240
17693TIP3    H174494   3.639   6.199  15.354  2.3051 -0.9927 -0.5604
17693TIP3    H274495   3.717   6.143  15.238  0.8672  2.5149 -3.4126
17694TIP3   OH274496   1.896   5.968   1.542 -0.5320 -0.2111  0.1731
17694TIP3    H174497   1.957   6.030   1.582 -1.2727  0.5414  0.1711
17694TIP3    H274498   1.812   6.014   1.543 -1.6732 -2.1281  2.3938
17695TIP3   OH274499   3.785   4.878   6.109  0.2495  0.1563 -0.4207
17695TIP3    H174500   3.757   4.869   6.200  0.3749  0.0725 -0.3899
17695TIP3    H274501   3.709   4.914   6.064  0.3746  0.7524 -0.1699
17696TIP3   OH274502   5.368   1.818   3.451  0.1679 -0.3640  0.5077
17696TIP3    H174503   5.425   1.749   3.416  0.5823 -1.1852  2.6162
17696TIP3    H274504   5.411   1.846   3.532 -2.1218 -0.6647  1.9228
17697TIP3   OH274505   3.318   1.633   3.742 -0.2622  0.2258  0.2767
17697TIP3    H174506   3.313   1.659   3.834  0.4418 -1.1994  0.7520
17697TIP3    H274507   3.233   1.595   3.722 -0.1860 -0.1097  0.5700
17698TIP3   OH274508   5.306   1.908   4.866  0.0107  0.2410  0.4000
17698TIP3    H174509   5.242   1.958   4.916  0.4657  0.3118  0.9218
17698TIP3    H274510   5.307   1.822   4.906 -0.6541 -0.1520 -0.3984
17699TIP3   OH274511   5.528   6.418   1.043  0.4792 -0.1713 -0.1385
17699TIP3    H174512   5.557   6.470   1.118 -1.9905  2.0147 -0.5817
17699TIP3    H274513   5.459   6.361   1.079  0.1496 -0.0041 -0.4985
17700TIP3   OH274514   5.346   5.599   4.411  0.1761  0.1330 -0.2028
17700TIP3    H174515   5.424   5.564   4.456 -0.5193 -0.7641  0.3327
17700TIP3    H274516   5.295   5.641   4.481 -0.8231 -1.1124 -0.1554
17701TIP3   OH274517   3.582   2.144  11.829  0.0797  0.7010  0.2113
17701TIP3    H174518   3.499   2.130  11.783  0.2439 -3.6887  0.8138
17701TIP3    H274519   3.559   2.198  11.904 -1.6163  1.9398 -1.1108
17702TIP3   OH274520   1.424   2.913  12.283 -0.6510  0.4314  0.1390
17702TIP3    H174521   1.360   2.875  12.222 -1.2785 -0.3238  1.2394
17702TIP3    H274522   1.415   3.008  12.271 -0.0868  0.3027 -1.6025
17703TIP3   OH274523   1.748   1.240  13.836  1.0065  0.2290 -0.7329
17703TIP3    H174524   1.711   1.192  13.762 -1.3102 -0.9673  1.0980
17703TIP3    H274525   1.705   1.326  13.832 -0.0875 -0.2641 -0.1194
17704TIP3   OH274526   0.123   6.354   3.470  0.0635 -0.0490  0.2031
17704TIP3    H174527   0.119   6.280   3.409  0.9258 -1.0088  1.2700
17704TIP3    H274528   0.128   6.314   3.557 -1.3527  1.2767  0.9602
17705TIP3   OH274529   1.449   3.841  15.584 -0.3606 -0.2377  0.4381
17705TIP3    H174530   1.507   3.861  15.511 -2.5471  1.3049 -1.0299
17705TIP3    H274531   1.486   3.890  15.658  2.1214 -2.1555  0.5900
17706TIP3   OH274532   6.243   5.058  11.877 -0.0181 -0.2559 -0.6553
17706TIP3    H174533   6.242   5.101  11.962  0.9189 -0.4204 -0.5533
17706TIP3    H274534   6.155   5.072  11.842 -1.2367 -2.1947  1.3457
17707TIP3   OH274535   4.458   6.363   5.441 -0.4178  0.5080  0.3394
17707TIP3    H174536   4.468   6.314   5.359  0.9082 -0.2964  0.9559
17707TIP3    H274537   4.366   6.351   5.464 -0.4988 -0.3694 -0.3600
17708TIP3   OH274538   0.248   4.881   6.151 -0.4864  0.3351 -0.0512
17708TIP3    H174539   0.217   4.829   6.226  1.6029 -1.5762 -0.3957
17708TIP3    H274540   0.182   4.865   6.083 -0.9815 -0.1486  0.5182
17709TIP3   OH274541   3.676   3.305  11.279 -0.0758  0.5127 -0.1088
17709TIP3    H174542   3.742   3.339  11.220 -0.5904  1.3940 -0.1999
17709TIP3    H274543   3.602   3.365  11.270 -0.7363 -0.2146  0.2903
17710TIP3   OH274544   3.491   4.524  15.162  0.3959 -0.0154 -0.1878
17710TIP3    H174545   3.491   4.469  15.084  0.7874 -1.9304  1.0600
17710TIP3    H274546   3.424   4.590  15.146 -2.9772 -3.1531 -0.3292
17711TIP3   OH274547   5.704   5.463  17.284 -0.6623 -0.2750  0.1103
17711TIP3    H174548   5.686   5.494  17.372  2.3221  1.5759  0.2573
17711TIP3    H274549   5.721   5.544  17.234 -0.2979 -1.3691 -1.6289
17712TIP3   OH274550   5.692   4.012   3.986 -0.1069 -0.1450  0.8371
17712TIP3    H174551   5.648   4.054   4.060  1.0822  1.7521  0.5561
17712TIP3    H274552   5.738   4.084   3.943 -0.2962 -1.3065 -1.4207
17713TIP3   OH274553   2.483   3.265   1.015  0.4054  0.1982  0.0753
17713TIP3    H174554   2.450   3.211   1.087  0.9810  0.5102  0.5889
17713TIP3    H274555   2.420   3.253   0.945 -1.3422  1.5263  1.3411
17714TIP3   OH274556   3.737   5.076   2.658  0.3433 -0.2216  0.6441
17714TIP3    H174557   3.793   5.058   2.582 -0.9019 -2.1702  0.1159
17714TIP3    H274558   3.786   5.044   2.733 -0.3696 -2.8261  0.0792
17715TIP3   OH274559   3.448   2.487  14.034 -0.5065 -0.4138 -0.4278
17715TIP3    H174560   3.418   2.429  14.103 -0.4387 -0.1102 -0.1413
17715TIP3    H274561   3.420   2.575  14.061 -0.2712 -0.2611 -0.6651
17716TIP3   OH274562   4.919   1.055   3.133 -0.2848  0.1652  0.3534
17716TIP3    H174563   5.006   1.022   3.158 -0.3422 -0.1434  0.1517
17716TIP3    H274564   4.864   0.977   3.128 -0.4769  0.3165  0.0889
17717TIP3   OH274565   2.544   5.861  11.564 -0.3881  0.0136 -0.1492
17717TIP3    H174566   2.542   5.766  11.547  1.1069  0.2596 -1.9810
17717TIP3    H274567   2.568   5.900  11.480 -0.5728  2.0057  0.6785
17718TIP3   OH274568   2.888   1.612  12.629  0.1974  0.0141  0.2352
17718TIP3    H174569   2.793   1.620  12.639  0.2175  0.6156 -0.0011
17718TIP3    H274570   2.922   1.697  12.658  0.5767  0.2011 -0.7062
17719TIP3   OH274571   4.338   1.653  14.508 -0.3259 -0.3035 -0.3661
17719TIP3    H174572   4.250   1.690  14.514 -0.6607 -0.9393 -1.1102
17719TIP3    H274573   4.352   1.610  14.592 -0.0620  1.1799  0.3830
17720TIP3   OH274574   6.678   3.114  15.476  0.3769  0.7281  0.3028
17720TIP3    H174575   6.633   3.179  15.422  0.3402  1.9584  1.7430
17720TIP3    H274576   6.720   3.055  15.413 -1.0145  1.1180 -1.0535
17721TIP3   OH274577   6.265   1.979   1.436 -0.8323 -1.1278 -0.2317
17721TIP3    H174578   6.357   1.957   1.450 -0.6767  0.6668  2.2561
17721TIP3    H274579   6.253   2.063   1.480 -3.6043 -1.1247 -0.7866
17722TIP3   OH274580   4.015   4.823  11.814  0.0918  0.0550 -0.0257
17722TIP3    H174581   3.972   4.819  11.899  1.3826 -2.7560  0.5907
17722TIP3    H274582   3.944   4.807  11.751 -0.6479  0.9088  0.5557
17723TIP3   OH274583   4.545   5.663   5.462 -0.1429 -0.1164 -0.0110
17723TIP3    H174584   4.631   5.695   5.487  0.3320 -0.1230 -1.5653
17723TIP3    H274585   4.505   5.634   5.545  1.6405 -0.8753  0.6216
17724TIP3   OH274586   0.697   6.195  15.401  0.1682  0.0165  0.4113
17724TIP3    H174587   0.761   6.217  15.469  1.7913 -0.2755 -0.9665
17724TIP3    H274588   0.702   6.100  15.392 -2.3040 -0.3428  1.9891
17725TIP3   OH274589   1.344   4.810  14.474  0.6260  0.1941 -0.0945
17725TIP3    H174590   1.322   4.755  14.399  0.5333  0.9678 -0.6446
17725TIP3    H274591   1.281   4.881  14.471 -1.0365 -1.0422  2.2018
17726TIP3   OH274592   3.359   4.509  12.470  0.2132  1.4297 -0.0501
17726TIP3    H174593   3.317   4.545  12.391  0.0035  0.3025 -0.4670
17726TIP3    H274594   3.366   4.584  12.529 -0.5297  2.0844 -0.7596
17727TIP3   OH274595   4.892   3.981   3.033 -0.3442 -0.1058 -0.1525
17727TIP3    H174596   4.836   4.017   3.102  0.4173 -1.7750  1.4193
17727TIP3    H274597   4.898   4.051   2.968 -1.5692  1.3141  1.1802
17728TIP3   OH274598   4.882   6.555  12.590 -0.2129  0.0719 -0.1541
17728TIP3    H174599   4.974   6.579  12.605 -0.2172 -0.5125  0.8881
17728TIP3    H274600   4.832   6.632  12.618 -0.1008 -0.1422  0.6634
17729TIP3   OH274601   1.803   4.332  13.485  0.6300  0.0638 -0.5203
17729TIP3    H174602   1.845   4.257  13.527  0.1444  0.4567  0.7013
17729TIP3    H274603   1.875   4.391  13.462  0.9332 -0.3453 -0.6260
17730TIP3   OH274604   6.578   0.794  12.089 -0.0864 -0.7771 -0.0197
17730TIP3    H174605   6.515   0.723  12.097 -1.1692 -0.2692 -2.8588
17730TIP3    H274606   6.544   0.848  12.018  1.8167  1.4209  0.6205
17731TIP3   OH274607   5.830   6.408   5.848  0.1198 -0.0181 -0.3775
17731TIP3    H174608   5.754   6.376   5.898 -0.5631  1.6059 -0.3079
17731TIP3    H274609   5.906   6.379   5.899 -0.4771 -0.7744  0.1082
17732TIP3   OH274610   4.606   5.441   2.033 -0.2659 -0.1447  0.7085
17732TIP3    H174611   4.582   5.533   2.034 -1.8807 -0.5482  0.8370
17732TIP3    H274612   4.564   5.405   1.955  0.2773 -0.7930  0.7024
17733TIP3   OH274613   3.211   6.560   2.368 -0.0861 -0.0969 -0.7072
17733TIP3    H174614   3.159   6.625   2.320 -0.5887 -0.1198 -0.2124
17733TIP3    H274615   3.294   6.556   2.321  0.5673  2.0546  0.1389
17734TIP3   OH274616   2.656   4.160   5.302 -0.2821  0.0269  0.2949
17734TIP3    H174617   2.582   4.203   5.258 -0.8390 -1.1753  0.0067
17734TIP3    H274618   2.729   4.172   5.242 -0.5500  0.1442 -0.0125
17735TIP3   OH274619   5.994   2.692   6.414  0.2631 -0.1672 -0.4126
17735TIP3    H174620   5.983   2.609   6.460 -0.7084  0.8294  1.2195
17735TIP3    H274621   6.087   2.714   6.426  0.3207 -0.5806 -0.0936
17736TIP3   OH274622   1.864   0.246   2.525  0.2132  0.1159 -0.3685
17736TIP3    H174623   1.887   0.190   2.450 -1.4152  2.1702 -2.5293
17736TIP3    H274624   1.818   0.187   2.585  2.2358 -1.7665 -0.5041
17737TIP3   OH274625   0.121   6.454  13.199  0.3613  0.1991  0.6989
17737TIP3    H174626   0.201   6.402  13.195 -0.0012 -0.3209  0.1689
17737TIP3    H274627   0.143   6.534  13.149  0.1706 -0.4703 -0.4953
17738TIP3   OH274628   5.404   1.399  15.420  0.1944  0.1385  0.3347
17738TIP3    H174629   5.467   1.398  15.348  1.1081 -0.3112  1.1085
17738TIP3    H274630   5.459   1.406  15.499 -0.6199 -1.6227  1.1106
17739TIP3   OH274631   1.068   1.417   3.264  0.2166  0.0090  0.1324
17739TIP3    H174632   1.157   1.402   3.295  0.0447  2.4626  2.1620
17739TIP3    H274633   1.034   1.487   3.321 -2.8093 -0.4280 -0.9338
17740TIP3   OH274634   2.575   2.892   3.101 -0.4230  0.1874  0.0266
17740TIP3    H174635   2.492   2.925   3.136 -0.9541 -0.3043 -0.7435
17740TIP3    H274636   2.572   2.798   3.117 -0.5177  0.0032 -1.0096
17741TIP3   OH274637   4.632   3.099   6.516 -0.4247 -0.4938 -0.0360
17741TIP3    H174638   4.594   3.034   6.457 -0.7229 -0.5650  0.2362
17741TIP3    H274639   4.592   3.081   6.601  2.5584 -2.7410  1.1181
17742TIP3   OH274640   0.547   5.465   6.135  0.4066 -0.4656  0.1917
17742TIP3    H174641   0.477   5.414   6.176 -0.5619 -0.5939 -1.5239
17742TIP3    H274642   0.525   5.556   6.153  0.6413 -0.5459  0.9286
17743TIP3   OH274643   2.624   0.825  15.464  0.5711  0.7147 -0.1584
17743TIP3    H174644   2.609   0.807  15.371 -1.6265  0.6866  0.1498
17743TIP3    H274645   2.609   0.741  15.507  3.6824  0.1736  0.1118
17744TIP3   OH274646   2.132   0.870   5.363  0.0129 -0.1385 -0.2611
17744TIP3    H174647   2.161   0.929   5.433 -1.1407  0.2434 -0.0711
17744TIP3    H274648   2.058   0.917   5.323 -0.3446 -1.0606 -0.6945
17745TIP3   OH274649   2.778   6.107   2.212 -0.2790  0.2511 -0.1749
17745TIP3    H174650   2.711   6.083   2.277  1.4047 -1.8605  0.8780
17745TIP3    H274651   2.730   6.113   2.130 -2.0314  0.3604  0.8051
17746TIP3   OH274652   0.903   1.932  15.612  0.1807  0.0896  0.3099
17746TIP3    H174653   0.951   1.849  15.610 -0.0522 -0.0300 -1.1081
17746TIP3    H274654   0.936   1.981  15.537 -0.0774  1.0718  0.8197
17747TIP3   OH274655   1.890   3.271  14.116  0.2474 -0.1014 -0.1714
17747TIP3    H174656   1.858   3.276  14.026 -0.1536  1.6901  0.0321
17747TIP3    H274657   1.944   3.349  14.127  0.8306 -0.6286  0.9576
17748TIP3   OH274658   4.278   0.612   1.469 -0.1851  0.2352  0.6710
17748TIP3    H174659   4.312   0.531   1.433  0.3033 -0.5308  2.7297
17748TIP3    H274660   4.189   0.591   1.498 -0.7252  0.9530 -0.3571
17749TIP3   OH274661   2.003   5.079   4.320  0.2625  0.2638 -0.0716
17749TIP3    H174662   1.961   5.155   4.280 -0.4641  0.3794  0.8709
17749TIP3    H274663   1.966   5.004   4.273  0.1450  0.4403 -0.2639
17750TIP3   OH274664   5.458   5.492   2.539  0.3636 -0.0392  0.0411
17750TIP3    H174665   5.391   5.560   2.540 -0.3910 -0.7746  0.7162
17750TIP3    H274666   5.457   5.458   2.449 -1.8930 -1.6822  0.6158
17751TIP3   OH274667   5.712   2.310   3.653 -0.7457 -0.7179  0.4408
17751TIP3    H174668   5.690   2.347   3.738  0.7460  0.2345  0.4357
17751TIP3    H274669   5.771   2.373   3.613 -0.7645 -1.5438 -0.9671
17752TIP3   OH274670   6.278   0.412   6.404  0.5688  0.2925 -0.7205
17752TIP3    H174671   6.213   0.353   6.442 -0.5406  2.1732  0.4518
17752TIP3    H274672   6.362   0.373   6.426 -0.1180 -0.5197  0.5754
17753TIP3   OH274673   0.679   3.376  14.816  0.0112  0.3723  0.1650
17753TIP3    H174674   0.693   3.335  14.731 -0.5509 -3.0427  1.5432
17753TIP3    H274675   0.767   3.392  14.850  0.3162 -1.4873  0.3181
17754TIP3   OH274676   2.265   0.320   4.968 -0.6683 -0.6395 -0.4880
17754TIP3    H174677   2.303   0.365   4.893 -1.9405  1.6148  0.1310
17754TIP3    H274678   2.192   0.270   4.932 -0.6221 -0.4278 -0.8756
17755TIP3   OH274679   1.933   1.436   1.643  0.3164 -0.5871  0.7194
17755TIP3    H174680   1.878   1.496   1.592  0.8090 -0.2305  0.5990
17755TIP3    H274681   1.933   1.474   1.731 -0.5824 -1.2354  1.0048
17756TIP3   OH274682   3.547   3.769  16.532  0.0361 -0.0656  0.1228
17756TIP3    H174683   3.620   3.828  16.515  0.7950 -0.5658  1.4753
17756TIP3    H274684   3.471   3.826  16.538 -0.0133  0.3321 -2.7835
17757TIP3   OH274685   2.587   6.181   2.842 -0.1755  0.0451  0.2012
17757TIP3    H174686   2.654   6.198   2.776 -2.3550 -3.2867 -3.2492
17757TIP3    H274687   2.634   6.140   2.915  1.7414 -0.8007 -1.4316
17758TIP3   OH274688   0.488   4.125   5.833  0.1139  0.0857 -0.3849
17758TIP3    H174689   0.577   4.152   5.815  0.3883 -0.9778 -0.7277
17758TIP3    H274690   0.494   4.075   5.915 -0.1025 -0.2517 -0.5675
17759TIP3   OH274691   5.501   2.783  12.344  0.1359  0.0704  0.1722
17759TIP3    H174692   5.476   2.725  12.272 -0.2019  0.5878 -0.1363
17759TIP3    H274693   5.497   2.871  12.306 -0.0420  0.3490  0.8219
17760TIP3   OH274694   3.200   6.575  13.671 -0.4762 -0.1894  0.0978
17760TIP3    H174695   3.232   6.663  13.690  1.5151 -0.7300 -0.5701
17760TIP3    H274696   3.181   6.575  13.577 -0.1403 -0.5676  0.0267
17761TIP3   OH274697   1.947   5.941  12.506  0.5900  0.2449  0.5123
17761TIP3    H174698   1.852   5.932  12.511  0.6538  0.1900  1.8108
17761TIP3    H274699   1.961   5.996  12.428 -0.4393 -0.5010 -0.2344
17762TIP3   OH274700   5.437   6.391   3.494  0.5316 -0.3170 -0.2130
17762TIP3    H174701   5.370   6.419   3.432  0.6679  0.8480  0.1457
17762TIP3    H274702   5.414   6.301   3.515 -0.6672 -0.0779 -0.4216
17763TIP3   OH274703   0.620   1.128  10.867  0.0235 -0.0901  0.3391
17763TIP3    H174704   0.582   1.171  10.944  0.8972  0.7504  0.3192
17763TIP3    H274705   0.596   1.184  10.794  0.4875 -0.0562  0.2082
17764TIP3   OH274706   1.967   2.150  12.984 -0.0564 -0.0117  0.0832
17764TIP3    H174707   2.035   2.093  12.948 -0.8712 -2.9030  2.6751
17764TIP3    H274708   2.013   2.204  13.048  0.1685 -0.3856  0.2426
17765TIP3   OH274709   5.177   4.855  15.618  0.3958 -0.5546  0.5948
17765TIP3    H174710   5.241   4.809  15.562  0.7977 -0.1748  0.7378
17765TIP3    H274711   5.231   4.911  15.674  0.0018 -1.0653  1.4927
17766TIP3   OH274712   1.186   3.442   3.403  0.2630 -0.2081  0.6215
17766TIP3    H174713   1.124   3.377   3.371 -0.1057  1.0658 -1.4745
17766TIP3    H274714   1.151   3.526   3.370  2.6788  0.6222 -0.0318
17767TIP3   OH274715   5.444   4.985  12.182 -0.0447  1.0182  0.2540
17767TIP3    H174716   5.523   4.971  12.130  0.5034  2.2557  0.7150
17767TIP3    H274717   5.386   5.034  12.125 -0.3935  0.3224  0.0012
17768TIP3   OH274718   1.909   2.660  17.327 -0.4281 -0.5829  0.2481
17768TIP3    H174719   1.943   2.601  17.259 -0.8180 -0.6514  0.1103
17768TIP3    H274720   1.983   2.673  17.386 -0.1081 -0.5810 -0.1521
17769TIP3   OH274721   2.728   1.847   1.064  0.0479 -0.5707 -0.1867
17769TIP3    H174722   2.762   1.911   1.127  0.0258  0.4433 -1.1668
17769TIP3    H274723   2.676   1.786   1.118  1.3274 -0.6826  0.9747
17770TIP3   OH274724   4.955   3.957  11.724  0.1308 -0.3749 -0.1459
17770TIP3    H174725   5.009   4.014  11.669 -0.0318 -1.3109 -1.3150
17770TIP3    H274726   5.010   3.939  11.800  1.0383 -0.4081 -0.7912
17771TIP3   OH274727   6.067   1.770  13.731  0.0709  0.6219  0.3325
17771TIP3    H174728   5.977   1.774  13.697 -0.2309  0.1567  1.0440
17771TIP3    H274729   6.085   1.676  13.738  0.5277  0.7158  0.4132
17772TIP3   OH274730   2.700   4.811   6.573 -0.3370  0.3925 -0.0036
17772TIP3    H174731   2.687   4.892   6.623  0.3534  1.8458 -2.0700
17772TIP3    H274732   2.612   4.781   6.551 -0.5753  1.5482 -0.6848
17773TIP3   OH274733   1.501   4.185   3.256 -0.0233  0.5419  0.3107
17773TIP3    H174734   1.582   4.212   3.214 -0.0913  1.5484  0.8124
17773TIP3    H274735   1.514   4.092   3.274  1.6515  1.0115  1.7789
17774TIP3   OH274736   3.278   5.833  13.138 -0.0498 -0.3305 -0.0092
17774TIP3    H174737   3.264   5.928  13.147  1.2835 -0.2734  2.1276
17774TIP3    H274738   3.191   5.795  13.153 -0.6131  0.5129 -0.9623
17775TIP3   OH274739   1.539   4.520   1.204 -0.5631 -0.2092 -0.2979
17775TIP3    H174740   1.631   4.543   1.214 -0.5896  0.0804 -0.6738
17775TIP3    H274741   1.525   4.518   1.109 -0.9324 -0.2816 -0.2435
17776TIP3   OH274742   5.700   5.767  14.590 -0.2437  0.1970 -0.1540
17776TIP3    H174743   5.606   5.786  14.599 -0.2812  0.5645 -1.2241
17776TIP3    H274744   5.743   5.832  14.646 -0.5612  1.0696 -0.8944
17777TIP3   OH274745   4.531   0.814   4.445 -0.1193  0.1938  0.0040
17777TIP3    H174746   4.467   0.744   4.455 -0.6007  0.6913  0.4576
17777TIP3    H274747   4.566   0.827   4.533  1.6399 -1.0207 -0.4607
17778TIP3   OH274748   4.286   6.167   0.356 -0.5001  0.3097 -0.2377
17778TIP3    H174749   4.361   6.216   0.320 -0.2533  0.6498  0.7234
17778TIP3    H274750   4.281   6.089   0.301 -0.1832  0.8578 -1.0747
17779TIP3   OH274751   1.039   2.675   5.465  0.3940 -0.2534  0.0646
17779TIP3    H174752   0.960   2.627   5.488  1.7322 -2.8464 -0.4289
17779TIP3    H274753   1.111   2.613   5.480  2.2597  1.6096 -0.6045
17780TIP3   OH274754   0.852   2.671  17.141 -0.1345  0.1313  0.0706
17780TIP3    H174755   0.791   2.745  17.141 -1.5516 -0.9677 -1.3718
17780TIP3    H274756   0.805   2.602  17.188 -0.4719 -1.0341 -1.8740
17781TIP3   OH274757   3.326   4.499   2.184 -0.0158  0.1849  0.2115
17781TIP3    H174758   3.233   4.496   2.165 -0.0446 -0.3687  0.4034
17781TIP3    H274759   3.347   4.410   2.212  0.7001  0.1410 -0.4402
17782TIP3   OH274760   5.671   5.260  13.982 -0.2903  0.1858  0.0362
17782TIP3    H174761   5.744   5.295  14.032  1.4504 -2.3541 -0.5289
17782TIP3    H274762   5.621   5.207  14.044 -0.0037 -0.3453 -0.1772
17783TIP3   OH274763   0.123   0.726   5.920 -0.5635 -0.0838 -0.3620
17783TIP3    H174764   0.139   0.667   5.994  0.2457 -0.5774 -0.9274
17783TIP3    H274765   0.107   0.668   5.846  2.1345  0.3322 -1.3606
17784TIP3   OH274766   0.805   5.121  15.762  0.1929  0.0464  0.1745
17784TIP3    H174767   0.868   5.169  15.817 -0.0633 -1.8140  2.2049
17784TIP3    H274768   0.827   5.147  15.673  1.5493  2.1282  1.0428
17785TIP3   OH274769   2.139   5.739  12.807 -0.4729  0.0700  0.1313
17785TIP3    H174770   2.225   5.712  12.776 -0.8401  0.1512 -1.0202
17785TIP3    H274771   2.133   5.706  12.897  0.7133 -0.0086  0.1871
17786TIP3   OH274772   5.366   1.669  13.704  0.6339  0.2988  0.2137
17786TIP3    H174773   5.428   1.641  13.771 -0.5933 -0.6016  1.0322
17786TIP3    H274774   5.374   1.603  13.635  0.5489  0.1372  0.3561
17787TIP3   OH274775   2.951   6.360   0.124 -0.4206 -0.3258 -0.2473
17787TIP3    H174776   2.911   6.409   0.052  0.0230  0.4057 -0.0019
17787TIP3    H274777   2.969   6.274   0.087 -1.5692 -0.4478 -0.5689
17788TIP3   OH274778   5.264   4.868   6.324  0.4398 -0.5217 -0.2383
17788TIP3    H174779   5.282   4.961   6.316  1.3546 -0.6450  0.3310
17788TIP3    H274780   5.168   4.861   6.314  0.5366  0.2473 -2.2215
17789TIP3   OH274781   4.058   4.000  16.019 -0.0819  0.3312 -0.0349
17789TIP3    H174782   4.010   4.068  16.067 -0.8887 -0.4463  0.3032
17789TIP3    H274783   3.998   3.925  16.019 -1.0375  0.8521 -4.0013
17790TIP3   OH274784   4.134   4.939   3.989  0.4075 -0.1134 -0.5981
17790TIP3    H174785   4.139   5.020   4.040 -0.4940 -0.4637  0.0754
17790TIP3    H274786   4.221   4.930   3.950  1.6748 -0.6047  2.1241
17791TIP3   OH274787   2.093   0.042   3.094  0.3175 -0.0195 -0.0484
17791TIP3    H174788   2.048  -0.020   3.151  0.0353 -1.3554 -1.6555
17791TIP3    H274789   2.182   0.046   3.128  0.4193 -1.5409 -0.0901
17792TIP3   OH274790   0.726   1.940  12.429  0.2765 -0.1275  0.2317
17792TIP3    H174791   0.673   1.907  12.357  0.1016 -1.2976  0.8708
17792TIP3    H274792   0.784   2.005  12.389 -1.1372  0.6682 -0.6063
17793TIP3   OH274793   2.636   4.340   4.738 -0.5332  0.0599 -0.3252
17793TIP3    H174794   2.581   4.263   4.754  0.1990  0.0369  2.9993
17793TIP3    H274795   2.575   4.413   4.733 -1.0409 -0.1696  1.6435
17794TIP3   OH274796   1.099   5.487  11.592 -0.6065  0.3890  0.4510
17794TIP3    H174797   1.124   5.398  11.616 -0.6043 -1.3272 -4.6498
17794TIP3    H274798   1.003   5.485  11.589 -0.6201  0.6570  0.6788
17795TIP3   OH274799   0.965   4.250  16.109  0.3434 -0.2820 -0.2053
17795TIP3    H174800   0.930   4.289  16.189  0.5226 -1.2724  0.3727
17795TIP3    H274801   1.058   4.236  16.127  0.1446 -1.6686 -0.0771
17796TIP3   OH274802   3.111   2.535   1.303 -0.3298 -0.2969 -0.5824
17796TIP3    H174803   3.193   2.582   1.313 -1.6101  1.8196  0.6738
17796TIP3    H274804   3.112   2.502   1.213  2.1746 -0.9979 -0.3671
17797TIP3   OH274805   0.904   1.653  12.725 -0.1500  0.3468 -0.2655
17797TIP3    H174806   0.982   1.695  12.686  0.6614 -0.5025  0.4119
17797TIP3    H274807   0.902   1.685  12.815  0.8215 -1.4648  0.4449
17798TIP3   OH274808   1.571   5.500   3.601  0.1298  0.1801  0.0074
17798TIP3    H174809   1.612   5.546   3.528 -0.9017  0.9889 -0.0859
17798TIP3    H274810   1.580   5.561   3.675  1.1921 -0.6440  0.5870
17799TIP3   OH274811   3.125   5.883  15.501  0.2635 -0.2175 -0.2340
17799TIP3    H174812   3.088   5.925  15.423 -0.0747  2.2180  1.1394
17799TIP3    H274813   3.219   5.899  15.495  0.3837 -1.0102 -0.6543
17800TIP3   OH274814   1.396   2.343  15.869 -0.7841 -0.2086 -0.7130
17800TIP3    H174815   1.480   2.311  15.902 -0.3635  0.5170 -1.0486
17800TIP3    H274816   1.376   2.419  15.924 -1.6659 -0.8952 -0.0608
17801TIP3   OH274817   0.271   4.519   4.583 -0.9623 -0.0357  0.1619
17801TIP3    H174818   0.305   4.609   4.578 -0.3581 -0.3056 -0.6859
17801TIP3    H274819   0.180   4.530   4.611 -0.5705  0.7740  1.1979
17802TIP3   OH274820   0.209   0.822   0.662 -0.5190 -0.3840 -0.1659
17802TIP3    H174821   0.118   0.805   0.639 -0.7792 -0.4531  0.8575
17802TIP3    H274822   0.205   0.892   0.728  0.3043  1.0693 -1.5776
17803TIP3   OH274823   2.145   1.785   3.954 -0.0880  0.2481  0.0619
17803TIP3    H174824   2.066   1.834   3.975 -0.2842 -0.6233  1.5008
17803TIP3    H274825   2.125   1.695   3.979  2.1012  0.3713  2.8187
17804TIP3   OH274826   1.125   5.058  14.475 -0.0695 -0.1151  0.4044
17804TIP3    H174827   1.117   5.152  14.490 -0.2754  0.1617 -1.2397
17804TIP3    H274828   1.035   5.027  14.469 -0.0006 -0.4134  0.8565
17805TIP3   OH274829   1.913   0.780  10.403 -0.0063 -0.3993  0.0789
17805TIP3    H174830   1.890   0.696  10.363  1.3349  0.1048 -1.8476
17805TIP3    H274831   1.832   0.831  10.399 -0.0653 -0.5723 -1.5227
17806TIP3   OH274832   6.507   4.892  12.474 -0.0931 -0.2043  0.9261
17806TIP3    H174833   6.529   4.978  12.440 -0.1479 -0.0648  1.2376
17806TIP3    H274834   6.549   4.889  12.560 -0.8476 -0.1373  1.3033
17807TIP3   OH274835   2.929   0.301   2.353  0.6176 -0.2150 -0.3198
17807TIP3    H174836   2.847   0.253   2.356 -0.3818  1.1733 -2.5420
17807TIP3    H274837   2.996   0.236   2.373 -0.9322 -1.6171  0.5346
17808TIP3   OH274838   3.975   3.731  13.562 -0.0129  0.5833  0.2207
17808TIP3    H174839   4.047   3.789  13.537 -0.5262  1.8672  1.5738
17808TIP3    H274840   3.977   3.661  13.497  2.9816  0.1118  0.7265
17809TIP3   OH274841   5.999   3.074  14.129  0.0473 -0.2284 -0.0788
17809TIP3    H174842   6.013   3.005  14.064  0.5720 -2.5115  2.3228
17809TIP3    H274843   6.088   3.103  14.152 -0.0685 -0.2703  0.4339
17810TIP3   OH274844   0.538   1.893  12.633 -0.0395 -0.8554  0.3069
17810TIP3    H174845   0.602   1.912  12.565 -2.0603  0.8926 -1.2570
17810TIP3    H274846   0.551   1.962  12.699 -0.9346  0.1575 -0.5349
17811TIP3   OH274847   1.207   1.096  14.271  0.1549 -0.0943  0.3335
17811TIP3    H174848   1.186   1.042  14.347 -0.2932 -1.1101 -0.4959
17811TIP3    H274849   1.248   1.175  14.308  1.6845 -1.3786  1.5036
17812TIP3   OH274850   4.464   4.394  15.983 -0.2694 -0.1400 -0.4443
17812TIP3    H174851   4.471   4.380  16.077  2.1904  0.4664 -0.4683
17812TIP3    H274852   4.424   4.314  15.950  1.1501 -1.4694  0.8763
17813TIP3   OH274853   3.276   1.895  11.104 -0.1133  0.4004 -0.3102
17813TIP3    H174854   3.311   1.829  11.045  1.5264 -1.1414  2.1831
17813TIP3    H274855   3.349   1.917  11.162 -1.3906  2.4153  0.6614
17814TIP3   OH274856   1.663   4.074   3.517 -0.3609 -0.2304  0.4796
17814TIP3    H174857   1.722   4.145   3.488  1.6644 -0.8607  2.6933
17814TIP3    H274858   1.655   4.017   3.441  0.7549  0.6316 -0.3279
17815TIP3   OH274859   2.411   2.110   5.527 -0.4372  0.0507  0.0867
17815TIP3    H174860   2.467   2.053   5.473  0.7406  1.6760 -0.4957
17815TIP3    H274861   2.433   2.087   5.617  0.5736  0.0773 -0.1416
17816TIP3   OH274862   4.551   4.935   4.437 -0.0735  0.6046 -0.5000
17816TIP3    H174863   4.601   4.996   4.491  1.3548 -0.9592  0.0143
17816TIP3    H274864   4.502   4.883   4.500  1.1684 -0.8522 -0.6855
17817TIP3   OH274865   3.212   6.355   1.026  0.1399  0.1899  0.3455
17817TIP3    H174866   3.187   6.266   1.000 -0.2268  0.2792  0.3853
17817TIP3    H274867   3.128   6.400   1.040  0.2386  1.2312 -1.9256
17818TIP3   OH274868   0.304   6.726   5.872 -0.0537 -0.6175 -0.0093
17818TIP3    H174869   0.262   6.672   5.939  0.0866  1.2241  1.6339
17818TIP3    H274870   0.237   6.735   5.804 -1.3647  0.0208  1.3212
17819TIP3   OH274871   5.767   5.173   0.608  0.0114 -0.2201  0.1981
17819TIP3    H174872   5.743   5.242   0.546 -1.2213  2.9309  3.7760
17819TIP3    H274873   5.690   5.117   0.614 -0.3827  0.2827 -0.0893
17820TIP3   OH274874   2.758   6.413  10.635  0.5613 -0.5617  0.1883
17820TIP3    H174875   2.694   6.443  10.700  0.1491 -1.3965  0.1824
17820TIP3    H274876   2.740   6.465  10.557 -0.7611 -1.4234 -0.1239
17821TIP3   OH274877   3.704   3.397   2.420 -0.4263 -0.4874 -0.0107
17821TIP3    H174878   3.682   3.453   2.345  2.1110  1.6159  0.6502
17821TIP3    H274879   3.641   3.420   2.488 -0.2064  0.6571 -0.1823
17822TIP3   OH274880   5.289   5.161  16.039  0.4506 -0.8822 -0.4429
17822TIP3    H174881   5.341   5.081  16.046  2.9737  0.7325  0.5773
17822TIP3    H274882   5.337   5.216  15.977  0.2468  0.8328  0.8586
17823TIP3   OH274883   6.408   1.459  14.226 -0.4763 -0.0510  0.1186
17823TIP3    H174884   6.399   1.367  14.202  0.3953 -0.0684 -0.1563
17823TIP3    H274885   6.384   1.507  14.147 -1.7233 -0.0021  0.4948
17824TIP3   OH274886   0.879   4.218  13.601  0.3786 -0.1126  0.0324
17824TIP3    H174887   0.804   4.166  13.571  0.0992  0.1474  0.2664
17824TIP3    H274888   0.954   4.184  13.552  0.0382 -0.1157 -0.4938
17825TIP3   OH274889   2.207   6.716   1.370  0.4546  0.0857  0.0426
17825TIP3    H174890   2.190   6.769   1.448 -0.3917  0.3569 -0.3136
17825TIP3    H274891   2.267   6.770   1.318 -1.0452  1.0995 -0.7017
17826TIP3   OH274892   2.861   5.403  11.322 -0.0572  0.2722 -0.4897
17826TIP3    H174893   2.950   5.429  11.299 -0.5373  1.2935 -1.2590
17826TIP3    H274894   2.810   5.417  11.242 -0.5563 -2.1744 -0.6903
17827TIP3   OH274895   4.606   5.130   3.527 -0.2540 -0.2537  0.1648
17827TIP3    H174896   4.525   5.135   3.475 -0.6956 -2.1701  0.5720
17827TIP3    H274897   4.577   5.097   3.612  0.4447  2.8092  1.7270
17828TIP3   OH274898   5.437   2.103  10.557  0.1568 -0.4401  0.2696
17828TIP3    H174899   5.492   2.129  10.631 -0.3932  1.9529 -0.0670
17828TIP3    H274900   5.447   2.175  10.494 -3.2427  0.0656  0.1497
17829TIP3   OH274901   6.178   2.730   0.084  0.9203 -0.6057 -0.3716
17829TIP3    H174902   6.104   2.703   0.139  1.4397 -0.4313  0.4282
17829TIP3    H274903   6.151   2.814   0.048  1.6996  0.7099  1.9174
17830TIP3   OH274904   2.830   0.124  14.963  0.0654 -0.4694  0.0271
17830TIP3    H174905   2.811   0.143  14.872 -1.9248  0.0757  0.5182
17830TIP3    H274906   2.759   0.164  15.012  2.7021  2.1036  2.1282
17831TIP3   OH274907   3.665   6.577  16.097 -0.4605  0.0478 -0.4585
17831TIP3    H174908   3.624   6.606  16.178  0.3175 -2.2811  0.8781
17831TIP3    H274909   3.723   6.649  16.072  1.5682 -0.2213  2.7756
17832TIP3   OH274910   0.646   6.466  14.873  0.4134 -0.2280  0.0702
17832TIP3    H174911   0.717   6.406  14.850  0.2457 -0.1208 -0.7717
17832TIP3    H274912   0.569   6.410  14.882  0.4181 -0.2372  0.0552
17833TIP3   OH274913   6.137   2.076   4.107 -0.0167 -0.1239 -0.2946
17833TIP3    H174914   6.156   2.064   4.201 -0.4204 -0.5821 -0.2653
17833TIP3    H274915   6.073   2.147   4.104 -0.2358 -0.3157 -0.1968
17834TIP3   OH274916   5.244   6.515   5.426  0.2274 -0.1143  0.3969
17834TIP3    H174917   5.314   6.536   5.364  1.2545 -0.4518  1.4073
17834TIP3    H274918   5.226   6.597   5.472  1.6111 -0.5114  1.7343
17835TIP3   OH274919   1.616   4.193   0.615 -0.0691  0.4024  0.0291
17835TIP3    H174920   1.690   4.233   0.569  0.6803 -0.2438  0.6417
17835TIP3    H274921   1.543   4.201   0.555  0.5533  0.8535 -0.6839
17836TIP3   OH274922   5.356   2.012  15.491  0.0756  0.0268  0.4726
17836TIP3    H174923   5.286   1.983  15.550  0.3257  1.0832  1.3333
17836TIP3    H274924   5.368   2.105  15.513  0.7175  0.2411 -0.7157
17837TIP3   OH274925   2.106   4.874  11.702  0.4883  0.1923  0.3290
17837TIP3    H174926   2.154   4.928  11.639  0.9377 -1.2287 -0.6025
17837TIP3    H274927   2.149   4.788  11.698 -0.4350 -0.3619  1.4740
17838TIP3   OH274928   0.863   0.302   1.990 -0.0372 -1.0181  0.1279
17838TIP3    H174929   0.839   0.216   1.954 -1.3566 -0.5466 -0.1784
17838TIP3    H274930   0.798   0.317   2.059  0.2245 -0.2861  0.2175
17839TIP3   OH274931   6.344   0.397  15.553  0.6590 -0.3969 -0.2337
17839TIP3    H174932   6.362   0.366  15.464 -0.0917  0.2342 -0.6282
17839TIP3    H274933   6.421   0.374  15.603 -0.1621 -3.6616 -0.2621
17840TIP3   OH274934   3.870   5.066   5.271  0.0214  0.3736 -0.2606
17840TIP3    H174935   3.932   5.080   5.200  0.1632  1.5358  0.0662
17840TIP3    H274936   3.910   5.110   5.347 -0.7041  0.2317  0.2160
17841TIP3   OH274937   0.390   1.384  16.263 -0.4314  0.1261  0.4385
17841TIP3    H174938   0.459   1.449  16.276 -0.2564 -0.2167  1.2426
17841TIP3    H274939   0.431   1.300  16.283 -0.3778 -0.3753 -1.5557
17842TIP3   OH274940   4.837   0.028  14.718  0.3506  0.1496  0.1086
17842TIP3    H174941   4.781  -0.041  14.683 -5.9674  2.9691  3.0744
17842TIP3    H274942   4.823   0.102  14.658  2.3042  0.5823  0.1229
17843TIP3   OH274943   2.256   3.279  15.704  0.2450 -0.4097 -0.0487
17843TIP3    H174944   2.204   3.284  15.623 -1.5742 -0.7060  1.0496
17843TIP3    H274945   2.314   3.204  15.689  0.9915  0.4238 -1.6287
17844TIP3   OH274946   0.422   4.183   3.906  0.1493 -0.2701  0.0402
17844TIP3    H174947   0.491   4.124   3.936  1.1299  0.2419 -1.1142
17844TIP3    H274948   0.418   4.252   3.972  0.4407 -0.5259  0.3248
17845TIP3   OH274949   5.936   1.869   0.327  0.1157  0.1480  0.5208
17845TIP3    H174950   5.974   1.782   0.316  1.7415  0.7060  1.3348
17845TIP3    H274951   5.855   1.854   0.376  0.2846 -0.9217  0.4942
17846TIP3   OH274952   0.337   5.537   2.107 -0.1613 -0.5310  0.2106
17846TIP3    H174953   0.257   5.531   2.159 -0.0213  1.7523  0.7859
17846TIP3    H274954   0.316   5.598   2.036  0.6356 -1.0549 -0.5041
17847TIP3   OH274955   2.489   2.033   1.625 -0.2190  0.2039 -0.0945
17847TIP3    H174956   2.551   1.975   1.581 -0.4537 -0.8244  0.8812
17847TIP3    H274957   2.411   2.030   1.570 -0.6759 -1.4446  0.5747
17848TIP3   OH274958   5.868   6.635  14.339 -0.8027 -0.3776 -0.2980
17848TIP3    H174959   5.838   6.588  14.417 -2.7819  1.9677  0.4855
17848TIP3    H274960   5.875   6.567  14.272 -2.4128 -1.9770  1.0494
17849TIP3   OH274961   5.849   4.462   2.966  0.9146 -0.2767 -0.7154
17849TIP3    H174962   5.878   4.481   2.876  1.6628  0.7844 -0.2704
17849TIP3    H274963   5.842   4.548   3.007  3.3182 -0.8078  1.0686
17850TIP3   OH274964   5.158   5.442   3.787 -0.2664  0.0597 -0.1054
17850TIP3    H174965   5.146   5.347   3.782 -1.3769  0.2399 -2.0507
17850TIP3    H274966   5.093   5.478   3.726 -0.3367  2.1285  1.0905
17851TIP3   OH274967   5.799   6.334  13.988 -0.1819 -0.8391  0.3684
17851TIP3    H174968   5.815   6.393  13.915  1.7755 -0.1710  1.2768
17851TIP3    H274969   5.718   6.289  13.964 -0.3435  0.3305 -1.5520
17852TIP3   OH274970   5.578   2.292   4.278 -0.1722 -0.4024  0.1899
17852TIP3    H174971   5.570   2.272   4.371  1.0058  0.7199  0.5704
17852TIP3    H274972   5.491   2.321   4.252 -0.3409 -0.0137  1.1395
17853TIP3   OH274973   5.758   0.268  12.979 -0.5133 -0.1265 -0.0864
17853TIP3    H174974   5.775   0.263  13.073 -0.1361  0.1235 -0.1400
17853TIP3    H274975   5.692   0.337  12.970  0.8556  1.2190 -0.1746
17854TIP3   OH274976   1.003   3.251   3.314  0.2328  0.1941  0.2453
17854TIP3    H174977   0.976   3.230   3.225  0.3372  1.9422 -0.2388
17854TIP3    H274978   0.922   3.251   3.364 -0.0623  0.9151 -0.2267
17855TIP3   OH274979   0.220   3.479   4.464  0.5222  0.1194 -0.4192
17855TIP3    H174980   0.178   3.466   4.549  1.2169  1.8710  0.2412
17855TIP3    H274981   0.154   3.452   4.400 -0.1893 -0.7651  0.6437
17856TIP3   OH274982   4.997   1.817   5.035 -0.0723  0.2603 -0.5930
17856TIP3    H174983   5.001   1.829   5.130  0.5026  0.2278 -0.6083
17856TIP3    H274984   5.041   1.733   5.020  0.2647  0.4930 -0.9282
17857TIP3   OH274985   5.390   2.362   3.752 -0.2008  0.1116 -0.1522
17857TIP3    H174986   5.486   2.369   3.756 -0.1469 -0.7573  0.1373
17857TIP3    H274987   5.368   2.292   3.812 -0.7662 -1.7904 -2.4196
17858TIP3   OH274988   4.963   0.637   2.897 -0.0801  0.0991 -0.1336
17858TIP3    H174989   4.913   0.615   2.976  1.1489  0.2623  0.7169
17858TIP3    H274990   4.975   0.554   2.851 -0.0344 -0.1482  0.3213
17859TIP3   OH274991   4.401   1.679   5.089  0.4989 -0.7119  0.5190
17859TIP3    H174992   4.413   1.654   4.997  2.0073  0.6414  0.3115
17859TIP3    H274993   4.400   1.775   5.088  1.1825 -0.6657  1.9926
17860TIP3   OH274994   4.747   5.266   1.467  0.3897 -0.5130 -0.0905
17860TIP3    H174995   4.671   5.269   1.409  0.9320 -0.3122 -0.8073
17860TIP3    H274996   4.817   5.227   1.413  0.1619 -3.0498  1.2998
17861TIP3   OH274997   1.656   2.552  12.068 -0.6645 -0.1599  0.2818
17861TIP3    H174998   1.588   2.528  12.131 -0.8394 -0.0680  0.1296
17861TIP3    H274999   1.726   2.591  12.121 -0.7367 -0.2437  0.4368
17862TIP3   OH275000   1.544   0.730   2.862  0.2388  0.2852 -0.4570
17862TIP3    H175001   1.549   0.773   2.777 -0.6164 -1.2329 -1.3123
17862TIP3    H275002   1.628   0.683   2.869 -0.1593 -0.5315 -1.0110
17863TIP3   OH275003   3.578   5.045  16.531 -0.0448 -0.1191  0.4890
17863TIP3    H175004   3.517   5.027  16.602 -2.3392  0.3672 -1.2269
17863TIP3    H275005   3.532   5.014  16.452  2.2901 -0.4605 -0.8224
17864TIP3   OH275006   5.912   6.501   4.372 -0.0842  0.8666 -0.3349
17864TIP3    H175007   5.850   6.517   4.443 -0.9765  3.1162 -1.5175
17864TIP3    H275008   5.998   6.503   4.414 -0.6436  0.9514  0.8499
17865TIP3   OH275009   1.046   6.034   3.176  0.2162 -0.3544  0.3241
17865TIP3    H175010   0.965   6.086   3.179  0.4846  0.1597 -0.6906
17865TIP3    H275011   1.104   6.085   3.119  2.1560  0.5263  2.9112
17866TIP3   OH275012   5.558   1.032  13.127 -0.6445 -0.2507  0.0170
17866TIP3    H175013   5.550   1.125  13.146  1.1123 -0.3272  1.4987
17866TIP3    H275014   5.615   1.028  13.050 -0.6042 -0.1029  0.0393
17867TIP3   OH275015   6.691   1.289  15.394  0.2988 -0.2453 -0.1973
17867TIP3    H175016   6.720   1.358  15.334  4.0217 -0.3383  1.2451
17867TIP3    H275017   6.704   1.208  15.346 -1.4884 -0.1386 -0.9286
17868TIP3   OH275018   5.169   1.771   2.354 -0.0353  0.1606 -0.1486
17868TIP3    H175019   5.257   1.736   2.370 -0.0857  0.4165  0.7392
17868TIP3    H275020   5.164   1.848   2.410  0.0191  1.5394 -1.9331
17869TIP3   OH275021   0.558   5.185  15.641  0.2120 -0.7432  0.3815
17869TIP3    H175022   0.635   5.150  15.686  0.0178  0.7875  1.9977
17869TIP3    H275023   0.573   5.280  15.638 -1.6639 -0.3932  0.8714
17870TIP3   OH275024   5.671   2.442  14.740 -0.1749  0.5186  0.2091
17870TIP3    H175025   5.588   2.396  14.749  0.3849 -0.5384  0.1483
17870TIP3    H275026   5.659   2.499  14.664 -0.3711 -0.7246 -0.7245
17871TIP3   OH275027   1.575   5.740  15.150  0.2119 -0.1620  0.3703
17871TIP3    H175028   1.539   5.827  15.136  2.1576  0.8083  1.1755
17871TIP3    H275029   1.563   5.724  15.244  0.0092 -0.7155  0.2561
17872TIP3   OH275030   2.066   0.132   4.916  0.1545  0.4737  0.5784
17872TIP3    H175031   1.999   0.077   4.874  0.0292 -0.0734  1.4652
17872TIP3    H275032   2.129   0.069   4.953  1.0433  0.9775 -0.0447
17873TIP3   OH275033   1.998   5.671   3.251 -0.1984 -0.0546 -0.3094
17873TIP3    H175034   1.978   5.741   3.313 -0.2188 -0.5236  0.2241
17873TIP3    H275035   2.046   5.714   3.181  1.0867  0.2533  0.7147
17874TIP3   OH275036   2.395   5.357   1.622 -0.2499 -0.4205  0.0171
17874TIP3    H175037   2.454   5.412   1.675 -0.8050 -0.9485  1.2364
17874TIP3    H275038   2.313   5.407   1.618  0.6209  1.0018 -2.9131
17875TIP3   OH275039   2.554   5.593  16.065 -0.3168  0.0528 -0.0262
17875TIP3    H175040   2.563   5.679  16.105 -0.0575 -0.4170  0.9627
17875TIP3    H275041   2.472   5.559  16.102 -0.5579 -0.0182 -0.6208
17876TIP3   OH275042   5.387   0.679  13.034 -0.0322 -0.3520  0.0958
17876TIP3    H175043   5.384   0.691  13.128  0.2945  0.1489  0.0479
17876TIP3    H275044   5.302   0.640  13.012 -0.3428  0.0704  0.5222
17877TIP3   OH275045   6.299   2.775  15.060  0.0124  0.2993 -0.6921
17877TIP3    H175046   6.364   2.798  14.994  0.5426 -0.5484 -0.4808
17877TIP3    H275047   6.232   2.726  15.012  1.3431 -1.9968 -0.3122
17878TIP3   OH275048   1.980   1.860  11.919  0.1149 -0.2756  0.1974
17878TIP3    H175049   1.984   1.914  11.840  0.8923  0.5841  0.8029
17878TIP3    H275050   1.943   1.776  11.889  3.6433 -1.3236 -1.8589
17879TIP3   OH275051   1.960   4.015   4.072 -0.6787 -0.1381  0.4842
17879TIP3    H175052   2.018   4.060   4.011  0.3046 -0.9600  0.7930
17879TIP3    H275053   1.917   3.948   4.019 -0.2822 -0.4526  0.5574
17880TIP3   OH275054   1.022   1.779   3.219  0.4003  0.9117 -0.6558
17880TIP3    H175055   0.933   1.774   3.182  0.7708 -2.7522 -1.3732
17880TIP3    H275056   1.016   1.732   3.302  1.7348  0.3235 -0.8792
17881TIP3   OH275057   1.136   6.186  13.787 -0.4388 -0.0240 -0.1783
17881TIP3    H175058   1.165   6.246  13.857 -2.3657  1.3809 -0.4899
17881TIP3    H275059   1.091   6.116  13.834 -2.1310  1.1503  0.0277
17882TIP3   OH275060   1.222   1.506  15.266  0.5866  0.5267  0.4046
17882TIP3    H175061   1.197   1.513  15.173  0.5326  1.5470  0.4781
17882TIP3    H275062   1.146   1.468  15.308  0.8790 -0.6222 -0.0778
17883TIP3   OH275063   6.668   3.814   1.157 -0.5943 -0.3239 -0.0290
17883TIP3    H175064   6.653   3.723   1.182 -3.0381  0.0682  0.0963
17883TIP3    H275065   6.592   3.839   1.105 -0.3364  1.8754  0.5331
17884TIP3   OH275066   0.113   5.569   4.755 -0.2293  0.5295  0.4539
17884TIP3    H175067   0.100   5.611   4.670  0.2457 -0.6692 -0.2497
17884TIP3    H275068   0.207   5.576   4.771 -0.1154 -0.3779  0.2430
17885TIP3   OH275069   3.010   4.847   3.092 -0.1855  0.1503  0.1838
17885TIP3    H175070   2.984   4.774   3.036  0.2280  0.0838  0.0803
17885TIP3    H275071   3.091   4.880   3.054 -0.2362  0.5084  0.3754
17886TIP3   OH275072   2.219   3.254   0.271 -0.3415 -0.4127  0.3184
17886TIP3    H175073   2.299   3.206   0.292 -0.5837 -1.1862 -0.4710
17886TIP3    H275074   2.166   3.192   0.221 -0.6229  0.7123 -0.8293
17887TIP3   OH275075   2.690   5.054   2.700 -0.8771 -0.1450  0.1017
17887TIP3    H175076   2.686   5.144   2.734 -0.2615 -0.9744  2.6202
17887TIP3    H275077   2.604   5.039   2.661 -0.8679  1.6304 -0.6944
17888TIP3   OH275078   2.721   0.740  10.614  0.2235 -0.1900 -0.2118
17888TIP3    H175079   2.777   0.802  10.661  0.5111 -0.7541  0.1969
17888TIP3    H275080   2.693   0.678  10.681  2.0702 -2.0569 -1.0686
17889TIP3   OH275081   3.521   4.783  17.062 -0.1350 -0.0106 -0.8386
17889TIP3    H175082   3.447   4.784  17.001 -0.1652 -2.8362 -1.0047
17889TIP3    H275083   3.481   4.782  17.149 -0.2062  0.8412 -0.8608
17890TIP3   OH275084   2.664   4.027  16.463  0.3119 -0.0488  0.1837
17890TIP3    H175085   2.728   4.097  16.467 -0.3746  0.7043 -1.1099
17890TIP3    H275086   2.672   3.992  16.374 -3.3813  2.4417 -1.3915
17891TIP3   OH275087   0.111   5.937   5.342 -0.3380 -0.5829 -0.0525
17891TIP3    H175088   0.035   5.920   5.287 -1.7696  0.8747  1.3945
17891TIP3    H275089   0.165   5.998   5.291 -0.0688 -1.6682 -1.1029
17892TIP3   OH275090   0.785   0.678  15.456 -0.0207  0.8990 -0.8296
17892TIP3    H175091   0.845   0.676  15.382  0.1601  0.7566 -0.6783
17892TIP3    H275092   0.835   0.716  15.528  0.4962 -0.9577 -0.1674
17893TIP3   OH275093   5.234   5.204  13.105  0.6247 -0.5665  0.1904
17893TIP3    H175094   5.215   5.275  13.044 -0.4626 -0.8540  0.1641
17893TIP3    H275095   5.181   5.224  13.182  1.0556 -0.8470  0.5655
17894TIP3   OH275096   1.718   5.327   0.591 -0.0975  0.0678 -0.1909
17894TIP3    H175097   1.734   5.387   0.518  0.3055  0.2952  0.0820
17894TIP3    H275098   1.625   5.337   0.610 -0.5589 -1.0467 -1.6002
17895TIP3   OH275099   3.339   4.461  16.800 -0.3910  0.4968  0.3956
17895TIP3    H175100   3.417   4.406  16.810 -0.5421  0.3471  0.7652
17895TIP3    H275101   3.323   4.463  16.706  1.3506  2.3465  0.0713
17896TIP3   OH275102   4.349   3.811  10.361  0.2214 -0.1025  0.2212
17896TIP3    H175103   4.375   3.721  10.378  1.4585 -0.7111 -3.7863
17896TIP3    H275104   4.254   3.811  10.367  0.1732 -1.8231 -0.2639
17897TIP3   OH275105   0.822   2.333   1.270 -0.0915  0.3308  0.2893
17897TIP3    H175106   0.845   2.248   1.306 -0.2212 -0.0292 -0.4600
17897TIP3    H275107   0.804   2.316   1.178 -1.9194  0.8545  0.5112
17898TIP3   OH275108   5.758   1.030  13.405 -0.3027 -0.3270  0.1742
17898TIP3    H175109   5.709   1.025  13.322 -0.7616  2.8382  0.1374
17898TIP3    H275110   5.823   1.098  13.390 -0.9831  0.9818  2.6625
17899TIP3   OH275111   1.902   2.965  13.930  0.0779 -0.1730 -0.8161
17899TIP3    H175112   1.876   3.028  13.997  0.5818  0.2283 -0.9865
17899TIP3    H275113   1.868   2.881  13.961  2.9400 -0.6155  1.5865
17900TIP3   OH275114   6.448   3.997  17.148 -0.2747 -0.2305  0.1355
17900TIP3    H175115   6.371   3.961  17.193  0.9684 -1.4971  1.3932
17900TIP3    H275116   6.415   4.029  17.065 -2.4268  0.7382  1.2815
17901TIP3   OH275117   4.917   4.592   6.058  0.1969 -0.0970 -0.0417
17901TIP3    H175118   4.828   4.567   6.032  0.6326  0.7689 -2.5781
17901TIP3    H275119   4.926   4.556   6.146 -2.2905 -1.1057 -0.1003
17902TIP3   OH275120   4.295   1.168   3.296  0.4661 -0.7460  0.1353
17902TIP3    H175121   4.258   1.122   3.371 -0.2161 -1.4790 -0.6248
17902TIP3    H275122   4.324   1.252   3.331  1.1022 -1.4742  1.4176
17903TIP3   OH275123   1.490   5.747  12.540  0.3419  0.4038  0.6268
17903TIP3    H175124   1.451   5.807  12.604 -1.2769  1.6652 -1.3994
17903TIP3    H275125   1.516   5.671  12.592  1.9412  2.5478  3.2324
17904TIP3   OH275126   2.356   4.636   4.059  0.5326  0.5034  0.0892
17904TIP3    H175127   2.422   4.705   4.066  2.0386 -0.9992  2.1268
17904TIP3    H275128   2.323   4.626   4.148  0.9781 -1.9098  0.0617
17905TIP3   OH275129   3.637   4.339   5.366  0.2473  0.1333  0.0828
17905TIP3    H175130   3.554   4.315   5.325  0.7354  1.6485 -1.9304
17905TIP3    H275131   3.635   4.295   5.451 -1.3880 -2.1326 -1.0160
17906TIP3   OH275132   2.465   6.206   1.109 -0.0060  0.0706  0.0502
17906TIP3    H175133   2.477   6.139   1.177 -1.4636  0.1514  0.4290
17906TIP3    H275134   2.551   6.247   1.101  0.0032  0.7587  2.5920
17907TIP3   OH275135   4.189   4.178   4.040 -0.0273 -0.0795 -0.3296
17907TIP3    H175136   4.223   4.254   3.992  0.5170 -0.6348 -0.8391
17907TIP3    H275137   4.249   4.168   4.114  0.0114 -0.1260 -0.3673
17908TIP3   OH275138   0.363   5.211  15.196  0.8377  0.6363 -0.0082
17908TIP3    H175139   0.444   5.199  15.146  0.1100 -1.2972 -0.8083
17908TIP3    H275140   0.364   5.140  15.260 -0.1429  0.6950  0.0755
17909TIP3   OH275141   6.220   2.659  12.451  0.5017 -0.0193 -0.1747
17909TIP3    H175142   6.307   2.689  12.426  0.6994 -0.8815 -0.5650
17909TIP3    H275143   6.199   2.592  12.386 -0.1994 -0.2409  0.2765
17910TIP3   OH275144   5.728   0.378  15.243 -0.0661 -0.1474 -0.2340
17910TIP3    H175145   5.784   0.302  15.262  1.5644  0.8076 -0.9472
17910TIP3    H275146   5.699   0.410  15.328  0.9340 -0.3621  0.1995
17911TIP3   OH275147   2.565   1.115   4.138 -0.2907 -0.3017  0.1463
17911TIP3    H175148   2.631   1.069   4.190  0.6461  2.8968  2.0136
17911TIP3    H275149   2.484   1.105   4.188 -0.0148  0.3266  0.7306
17912TIP3   OH275150   0.290   5.953   2.654 -0.1188 -0.2411  0.4262
17912TIP3    H175151   0.267   5.978   2.565  1.9161 -0.6349 -0.2871
17912TIP3    H275152   0.289   6.034   2.704  2.1573  0.6726 -0.8368
17913TIP3   OH275153   2.310   2.554   0.675 -0.4228 -0.2285 -0.6787
17913TIP3    H175154   2.389   2.510   0.643 -0.1339 -0.2987  0.1056
17913TIP3    H275155   2.242   2.532   0.611 -0.1073 -1.2025 -0.6864
17914TIP3   OH275156   5.181   2.840   1.645  0.6410  0.6555  0.1181
17914TIP3    H175157   5.259   2.790   1.623 -0.2825 -0.9245  0.3095
17914TIP3    H275158   5.193   2.924   1.602  1.5354 -0.2648 -1.4940
17915TIP3   OH275159   3.246   1.133  14.331 -0.2265 -0.4773 -0.0835
17915TIP3    H175160   3.256   1.081  14.411 -0.5204  1.0391  0.9884
17915TIP3    H275161   3.165   1.183  14.345  0.0613  0.2942 -1.0546
17916TIP3   OH275162   2.266   3.690  13.447  0.8044 -0.1015 -0.2603
17916TIP3    H175163   2.281   3.617  13.507  0.2152 -0.0614 -0.0609
17916TIP3    H275164   2.342   3.746  13.459 -0.4824  1.2677  2.4419
17917TIP3   OH275165   6.073   2.534  13.571 -0.1266  0.0498 -0.4048
17917TIP3    H175166   6.104   2.452  13.610 -0.4198 -0.0095 -0.2924
17917TIP3    H275167   6.139   2.556  13.506 -1.0997 -1.4194 -1.9702
17918TIP3   OH275168   4.372   1.924   3.481 -0.7566  0.0077 -0.1394
17918TIP3    H175169   4.314   1.912   3.406  1.0495 -0.1747 -1.5823
17918TIP3    H275170   4.439   1.985   3.450  0.0657 -0.1097  1.3093
17919TIP3   OH275171   1.353   4.504  13.044  0.3874  0.1417  0.2548
17919TIP3    H175172   1.449   4.496  13.049  0.3955 -0.9113 -1.1614
17919TIP3    H275173   1.338   4.573  12.979  0.1772  0.2060  0.3715
17920TIP3   OH275174   1.807   3.581  11.237  0.3214  0.1317 -0.2045
17920TIP3    H175175   1.812   3.509  11.174  0.0665  0.0325 -0.1138
17920TIP3    H275176   1.770   3.654  11.187 -0.5647 -0.1608  0.0106
17921TIP3   OH275177   5.636   5.249  13.418 -0.0946  0.6741 -0.0891
17921TIP3    H175178   5.658   5.162  13.385 -1.9245 -0.5783  1.7452
17921TIP3    H275179   5.718   5.298  13.411  0.8686 -1.0366 -1.6097
17922TIP3   OH275180   6.365   1.282  12.668 -0.3084  0.4321 -0.0112
17922TIP3    H175181   6.383   1.340  12.594 -0.4989  0.2252 -0.2212
17922TIP3    H275182   6.284   1.315  12.706 -0.9138 -0.2508 -0.6929
17923TIP3   OH275183   3.991   4.980  13.464  0.1960 -0.1600 -0.6977
17923TIP3    H175184   3.997   5.061  13.514  0.7088 -0.1116 -0.8326
17923TIP3    H275185   4.054   4.921  13.506 -0.1036 -0.4537 -0.6609
17924TIP3   OH275186   1.155   5.365  12.374 -0.0672  0.3654  0.5708
17924TIP3    H175187   1.118   5.285  12.337 -0.4059  1.6997 -2.1688
17924TIP3    H275188   1.094   5.434  12.348  0.4622  1.6229  2.4743
17925TIP3   OH275189   1.263   4.515  14.032  1.0613 -0.3367 -0.1919
17925TIP3    H175190   1.338   4.494  13.977  0.4674 -2.0951 -0.3609
17925TIP3    H275191   1.188   4.476  13.988 -0.0519  1.6977 -0.2095
17926TIP3   OH275192   3.831   0.130   0.992 -0.0974 -0.0608 -0.6447
17926TIP3    H175193   3.810   0.118   0.899 -1.5299 -0.9007 -0.2381
17926TIP3    H275194   3.852   0.042   1.023 -1.1089 -0.0273  0.1620
17927TIP3   OH275195   6.483   0.107   1.998 -0.1300 -0.8428 -0.1546
17927TIP3    H175196   6.570   0.138   1.972  0.0220 -2.1719 -1.3270
17927TIP3    H275197   6.494   0.013   2.011 -1.1910 -0.8810  0.6510
17928TIP3   OH275198   6.246   2.309  15.424 -0.1113 -0.2917  0.8215
17928TIP3    H175199   6.180   2.334  15.489 -1.6795 -0.1821 -0.7472
17928TIP3    H275200   6.196   2.289  15.345  1.6998 -0.9030 -0.2315
17929TIP3   OH275201   2.602   4.529   3.304 -0.3383  0.1986  0.3959
17929TIP3    H175202   2.658   4.544   3.228 -1.6435 -1.1597 -0.9019
17929TIP3    H275203   2.514   4.548   3.272 -0.8097  0.6508  1.8960
17930TIP3   OH275204   5.784   6.164  11.063  0.6645 -0.0918 -0.0420
17930TIP3    H175205   5.825   6.137  10.981  0.0125 -0.5733 -0.2227
17930TIP3    H275206   5.858   6.176  11.124  1.1049 -0.4648 -0.4900
17931TIP3   OH275207   3.086   2.633   0.519 -0.5163  0.5602 -0.0370
17931TIP3    H175208   3.167   2.649   0.567 -0.5098 -1.0683  0.5808
17931TIP3    H275209   3.057   2.719   0.490  0.9612  1.2701  0.4974
17932TIP3   OH275210   0.250   4.201   2.822  0.0588 -0.0776 -0.8719
17932TIP3    H175211   0.176   4.142   2.808 -0.5415  0.5863 -0.5805
17932TIP3    H275212   0.277   4.227   2.734 -2.7173  2.8968 -1.0383
17933TIP3   OH275213   6.537   3.033   5.625  0.2406  0.5015 -0.3901
17933TIP3    H175214   6.599   2.959   5.619  1.1148  1.1179  0.7325
17933TIP3    H275215   6.460   2.996   5.668  0.1156 -0.0795 -1.0833
17934TIP3   OH275216   1.901   0.483   1.737  0.1760 -0.0365  0.0189
17934TIP3    H175217   1.965   0.444   1.678  0.1350  0.0329 -0.0711
17934TIP3    H275218   1.858   0.409   1.778  0.5491 -0.0843  0.3345
17935TIP3   OH275219   4.998   3.403  14.876  0.0399  0.0133 -0.4068
17935TIP3    H175220   4.919   3.438  14.835  0.0499  1.7035  0.9164
17935TIP3    H275221   5.039   3.478  14.918  2.2770 -0.8561 -0.8857
17936TIP3   OH275222   2.427   0.816  17.207  1.0162 -0.5011  0.3317
17936TIP3    H175223   2.420   0.749  17.139 -0.3907  0.3520 -0.4223
17936TIP3    H275224   2.496   0.875  17.176 -0.8704  0.9423 -1.4056
17937TIP3   OH275225   4.811   4.141   1.037  0.2379  0.1599 -0.3797
17937TIP3    H175226   4.744   4.199   1.001  1.0563  1.6138  0.3558
17937TIP3    H275227   4.840   4.089   0.962 -0.2523  0.9667 -1.1518
17938TIP3   OH275228   0.933   5.925   2.870 -0.7755  0.1656  0.0306
17938TIP3    H175229   0.935   6.016   2.841 -0.0193 -0.4026 -1.9084
17938TIP3    H275230   1.017   5.889   2.843 -1.1948 -1.1976  0.4338
17939TIP3   OH275231   3.177   1.689   0.950  0.0746  0.4402 -0.5047
17939TIP3    H175232   3.084   1.706   0.966  0.2061  0.3123  0.4347
17939TIP3    H275233   3.214   1.776   0.936  0.2123  0.7316  1.4105
17940TIP3   OH275234   4.246   6.123  11.869  0.3876 -0.3591 -0.3142
17940TIP3    H175235   4.339   6.100  11.879  0.9224  1.6202 -0.3076
17940TIP3    H275236   4.242   6.164  11.782 -0.2890  0.3888  0.0614
17941TIP3   OH275237   0.408   6.235   5.310 -0.5912  0.4107 -0.8049
17941TIP3    H175238   0.410   6.244   5.405  0.3971  0.0723 -0.7924
17941TIP3    H275239   0.451   6.314   5.277 -0.7825  0.4471 -0.9784
17942TIP3   OH275240   6.734   0.024   1.163 -0.3717  0.0936 -0.2066
17942TIP3    H175241   6.689  -0.061   1.165 -0.4426  0.1023 -1.2303
17942TIP3    H275242   6.680   0.078   1.106 -1.0899  1.2900  1.5025
17943TIP3   OH275243   0.363   1.350  12.170  0.1625 -0.2444 -0.0946
17943TIP3    H175244   0.284   1.331  12.119 -0.3587 -1.2385  1.0425
17943TIP3    H275245   0.336   1.341  12.261  1.6706 -0.9368  0.3114
17944TIP3   OH275246   5.323   1.356   3.443  0.1014  0.4732  0.3363
17944TIP3    H175247   5.360   1.340   3.356  1.1877  0.9620  0.6822
17944TIP3    H275248   5.306   1.269   3.478 -0.1014  0.2642 -0.2628
17945TIP3   OH275249   5.499   4.282  15.904  0.2975  0.5315 -0.1810
17945TIP3    H175250   5.505   4.322  15.990 -1.1387 -1.7674  1.0928
17945TIP3    H275251   5.439   4.338  15.855  0.0226  1.0960  0.7797
17946TIP3   OH275252   5.114   1.319   4.505 -0.3443  0.3522 -0.6466
17946TIP3    H175253   5.038   1.273   4.469  1.9688 -3.5824 -1.0962
17946TIP3    H275254   5.150   1.367   4.431 -2.6549  2.9602 -0.2449
17947TIP3   OH275255   1.395   0.241  16.273  0.3742 -0.6635 -0.1499
17947TIP3    H175256   1.426   0.184  16.344  1.2707  0.6814  0.5639
17947TIP3    H275257   1.380   0.326  16.314 -1.0030 -0.3558 -1.1924
17948TIP3   OH275258   4.904   0.374   1.989 -0.2618 -0.9332  0.1286
17948TIP3    H175259   4.814   0.340   1.990 -0.2114 -1.0643  0.1514
17948TIP3    H275260   4.944   0.333   1.913 -0.0786 -1.2351  0.3894
17949TIP3   OH275261   5.501   5.748   0.871 -0.1686  0.5375 -0.5903
17949TIP3    H175262   5.441   5.822   0.860 -0.7708 -0.0004 -0.9457
17949TIP3    H275263   5.459   5.692   0.936  0.8365  1.0598  0.5540
17950TIP3   OH275264   4.926   1.201  15.083 -0.0820 -0.0852  0.4769
17950TIP3    H175265   4.920   1.210  14.988 -0.6999 -0.5651  0.4540
17950TIP3    H275266   4.844   1.238  15.116  1.5675  3.3092  1.1307
17951TIP3   OH275267   4.029   3.764   3.932  0.1662  0.1813  0.4774
17951TIP3    H175268   4.057   3.755   4.023  0.4417  0.2415  0.3987
17951TIP3    H275269   4.080   3.837   3.897  1.2698 -0.8767 -0.1951
17952TIP3   OH275270   4.320   1.872  11.998 -0.8364  0.1283 -0.4876
17952TIP3    H175271   4.345   1.781  11.986  0.1108  0.0701  1.5834
17952TIP3    H275272   4.307   1.905  11.909  2.9671 -0.8605 -1.5964
17953TIP3   OH275273   5.608   6.594  15.411 -0.4115  0.3237 -0.4547
17953TIP3    H175274   5.528   6.548  15.387  0.3523 -0.0647 -2.4429
17953TIP3    H275275   5.676   6.527  15.405 -0.0564  0.2721  2.6597
17954TIP3   OH275276   2.874   4.531  11.429  0.1590  0.2375 -0.1799
17954TIP3    H175277   2.845   4.622  11.436 -0.2788  0.0814  0.0404
17954TIP3    H275278   2.944   4.534  11.364 -0.3932  0.6084 -0.7737
17955TIP3   OH275279   6.654   3.815   0.759  0.0331 -0.2035  0.0007
17955TIP3    H175280   6.722   3.878   0.784  0.5300 -0.5732 -0.3802
17955TIP3    H275281   6.577   3.868   0.741  0.7215  0.4106 -1.2966
17956TIP3   OH275282   6.489   0.363   3.457 -0.4894 -0.1085  0.2173
17956TIP3    H175283   6.470   0.335   3.367  1.3256 -0.2684 -0.1687
17956TIP3    H275284   6.577   0.402   3.451  1.2967 -3.2881  2.5153
17957TIP3   OH275285   5.164   6.562  15.961  0.0343  0.2476 -0.3934
17957TIP3    H175286   5.230   6.623  15.994 -0.9634  0.8500  0.5590
17957TIP3    H275287   5.188   6.547  15.870  2.9133 -1.5027  0.5154
17958TIP3   OH275288   6.017   6.019   4.797  0.2130 -0.4713  0.1299
17958TIP3    H175289   5.990   6.109   4.777  1.1695  0.5343  2.8882
17958TIP3    H275290   6.080   6.029   4.868  0.3942 -3.3548  0.4686
17959TIP3   OH275291   1.295   0.006  16.134 -0.1286 -0.2126 -0.1525
17959TIP3    H175292   1.379  -0.035  16.113  0.7092  0.7953  1.0164
17959TIP3    H275293   1.319   0.092  16.170 -1.4921 -0.7383  2.2872
17960TIP3   OH275294   5.164   5.480   2.191  0.0252 -0.2996 -0.1272
17960TIP3    H175295   5.240   5.529   2.222 -0.4537  0.1272  0.3818
17960TIP3    H275296   5.192   5.444   2.107  0.8351 -0.2577  0.1156
17961TIP3   OH275297   0.591   3.822  12.057 -0.6562 -0.4093 -0.3224
17961TIP3    H175298   0.529   3.793  11.990 -0.4858  1.4608 -1.3485
17961TIP3    H275299   0.567   3.772  12.135 -1.7632 -1.6148 -1.3856
17962TIP3   OH275300   0.345   0.558   5.812  0.0206  0.1103 -0.6824
17962TIP3    H175301   0.264   0.543   5.763  0.3369 -0.4552 -1.0402
17962TIP3    H275302   0.414   0.529   5.753  0.5669  1.5722 -0.7935
17963TIP3   OH275303   1.598   6.557   1.813  0.4033 -0.7400  0.4519
17963TIP3    H175304   1.589   6.506   1.733 -1.1592  1.4350 -0.8675
17963TIP3    H275305   1.679   6.606   1.801 -1.5084  2.2599 -1.5993
17964TIP3   OH275306   2.096   0.422  13.907  0.2689 -0.1192 -0.4261
17964TIP3    H175307   2.043   0.494  13.942 -0.5346 -1.3860  1.0908
17964TIP3    H275308   2.041   0.383  13.839 -0.1426 -0.4827  0.0997
17965TIP3   OH275309   1.611   0.849   0.396 -0.5772 -0.3695  0.1331
17965TIP3    H175310   1.658   0.920   0.354  1.9780 -0.4187  2.6635
17965TIP3    H275311   1.519   0.877   0.395  0.2442  2.6404  0.4109
17966TIP3   OH275312   5.059   2.218   2.646 -0.1130  0.1113 -0.4568
17966TIP3    H175313   5.057   2.309   2.616  0.9558  1.1735  2.3964
17966TIP3    H275314   5.017   2.220   2.732 -0.1454 -2.1414 -0.3691
17967TIP3   OH275315   3.884   0.979   6.172  0.1520  0.2075 -0.2664
17967TIP3    H175316   3.863   0.996   6.264  1.8130 -0.0436  0.1903
17967TIP3    H275317   3.928   1.059   6.142  0.8582 -0.2359 -0.4306
17968TIP3   OH275318   4.994   4.779  11.317 -0.8188  0.5943  0.5720
17968TIP3    H175319   4.960   4.836  11.386  0.1157  1.0541  0.6665
17968TIP3    H275320   5.089   4.786  11.324 -0.7026  0.5575 -0.6834
17969TIP3   OH275321   5.973   0.143  14.795  0.3901  0.1037 -0.1679
17969TIP3    H175322   5.989   0.084  14.721  0.6683  1.1682 -0.9860
17969TIP3    H275323   6.024   0.222  14.774 -0.9841  1.1377  0.2413
17970TIP3   OH275324   3.944   3.892  16.390  0.1233 -0.1154 -0.5939
17970TIP3    H175325   3.927   3.896  16.484  0.7684 -0.1764 -0.4695
17970TIP3    H275326   3.986   3.806  16.377  0.1176 -0.0704 -0.9220
17971TIP3   OH275327   0.517   2.585   3.820  0.1719 -0.3412 -0.6535
17971TIP3    H175328   0.511   2.662   3.763  0.0373  0.0514 -0.1173
17971TIP3    H275329   0.492   2.512   3.763 -1.0544  0.1780 -0.8191
17972TIP3   OH275330   0.695   1.784   2.737 -0.3751  0.0854 -0.0679
17972TIP3    H175331   0.692   1.756   2.645 -1.3792  1.0934 -0.3716
17972TIP3    H275332   0.681   1.704   2.787 -0.3097 -0.4000 -0.8076
17973TIP3   OH275333   0.604   5.650  14.647  0.2216  0.5207 -0.4390
17973TIP3    H175334   0.660   5.694  14.582  0.0016  2.2639  0.5085
17973TIP3    H275335   0.656   5.651  14.727 -0.5803  0.7906  0.0792
17974TIP3   OH275336   2.422   0.616  15.291  0.1834  0.4334 -0.3370
17974TIP3    H175337   2.394   0.554  15.358 -0.6413  0.5698 -0.5465
17974TIP3    H275338   2.509   0.585  15.264 -0.3391 -0.8027 -0.6544
17975TIP3   OH275339   4.375   3.692  12.549  0.2237  0.2995  0.2294
17975TIP3    H175340   4.315   3.708  12.622 -1.0946 -1.1383 -0.4956
17975TIP3    H275341   4.438   3.629  12.583  0.7531  1.0454  0.6742
17976TIP3   OH275342   1.649   1.191  10.991 -0.3257 -0.1457  0.0638
17976TIP3    H175343   1.605   1.109  10.970  0.3955 -0.2598 -1.0518
17976TIP3    H275344   1.581   1.245  11.030 -0.6510 -1.5106  1.4765
17977TIP3   OH275345   1.108   6.586   3.381  0.3102  0.1664  0.2185
17977TIP3    H175346   1.097   6.495   3.407 -1.5928  0.3966  0.3481
17977TIP3    H275347   1.151   6.582   3.296 -0.3235 -0.8876 -0.0648
17978TIP3   OH275348   0.225   0.860   5.648 -0.6507  0.0530 -0.0516
17978TIP3    H175349   0.288   0.800   5.607  0.2175  0.6351  0.4000
17978TIP3    H275350   0.213   0.825   5.736  0.6476  1.0808  0.5663
17979TIP3   OH275351   0.106   5.347  13.451  0.0400 -0.3753  0.0034
17979TIP3    H175352   0.102   5.330  13.357  0.9193  1.4170 -0.4020
17979TIP3    H275353   0.065   5.433  13.462  1.0627  0.0060  1.0721
17980TIP3   OH275354   1.121   2.147   5.863  0.1724  0.5566  0.0196
17980TIP3    H175355   1.054   2.215   5.865  0.7117  1.2328 -2.0242
17980TIP3    H275356   1.198   2.188   5.903  0.4296  1.1159 -1.0046
17981TIP3   OH275357   3.079   5.353  13.392  0.2378 -0.8493  0.3679
17981TIP3    H175358   3.082   5.344  13.297  2.6113  4.3323 -0.4297
17981TIP3    H275359   3.036   5.438  13.406  1.9426 -0.3770  3.7328
17982TIP3   OH275360   2.338   0.343  10.494  0.0097  0.8959  0.2457
17982TIP3    H175361   2.309   0.424  10.451 -2.6501  0.5968  1.2637
17982TIP3    H275362   2.292   0.273  10.447  1.2532  0.0554  0.2222
17983TIP3   OH275363   5.768   6.494   4.601 -0.5230 -0.1461 -0.0988
17983TIP3    H175364   5.776   6.498   4.696  0.7306 -1.7876 -0.0878
17983TIP3    H275365   5.674   6.480   4.585 -1.0693  2.1468  0.7503
17984TIP3   OH275366   4.321   3.674  12.818  0.9539  0.5830 -0.1260
17984TIP3    H175367   4.332   3.743  12.883 -0.8112 -0.7614  1.7536
17984TIP3    H275368   4.392   3.613  12.835  0.7143  0.4191  0.2809
17985TIP3   OH275369   6.234   0.394   4.618 -0.5926  0.3016  0.1291
17985TIP3    H175370   6.180   0.330   4.664 -0.7547 -0.1148 -0.6247
17985TIP3    H275371   6.183   0.418   4.541 -0.5840  1.4327  0.4535
17986TIP3   OH275372   2.870   5.853  13.749  0.2247 -0.3386  0.3958
17986TIP3    H175373   2.807   5.924  13.735 -0.6506 -1.3806 -1.2359
17986TIP3    H275374   2.950   5.897  13.776 -1.1521  1.0415  2.6489
17987TIP3   OH275375   5.103   3.264  14.190 -0.6882 -0.0269 -0.5300
17987TIP3    H175376   5.125   3.254  14.097  1.6869 -0.9019  0.0649
17987TIP3    H275377   5.028   3.206  14.203 -0.6492 -0.3857 -1.7664
17988TIP3   OH275378   1.389   5.445   5.249  0.2827 -0.2770  0.3144
17988TIP3    H175379   1.343   5.362   5.235  1.8385 -1.2347  0.6877
17988TIP3    H275380   1.392   5.455   5.344 -1.3486  1.0915  0.2756
17989TIP3   OH275381   6.350   6.739   0.457 -0.0620 -0.0250  0.2984
17989TIP3    H175382   6.335   6.645   0.469  1.2069 -0.1441  1.2124
17989TIP3    H275383   6.268   6.781   0.484 -0.4702 -0.8453  0.3434
17990TIP3   OH275384   2.078   3.428   5.265 -0.2073 -0.1206  0.2761
17990TIP3    H175385   2.008   3.377   5.225  0.6922 -0.3148 -1.1155
17990TIP3    H275386   2.037   3.512   5.286 -0.8709 -0.2345 -0.4981
17991TIP3   OH275387   3.748   2.637   1.084  0.4847 -0.3032 -0.2384
17991TIP3    H175388   3.754   2.612   0.991  0.9374 -3.0823  0.4388
17991TIP3    H275389   3.834   2.614   1.120  0.0375 -0.0181  1.0542
17992TIP3   OH275390   5.239   5.182  14.876  0.3576 -0.0729  0.2111
17992TIP3    H175391   5.255   5.244  14.947 -1.7575  1.4159 -0.5391
17992TIP3    H275392   5.173   5.122  14.910 -0.1561  0.2215 -0.2590
17993TIP3   OH275393   3.833   4.069  16.798  0.3172 -0.0339 -0.1470
17993TIP3    H175394   3.842   4.129  16.872 -0.5266 -0.5896  0.4191
17993TIP3    H275395   3.825   4.126  16.722  1.7563  0.5436  0.1003
17994TIP3   OH275396   4.913   2.326   3.568 -0.1946  0.2229  0.1932
17994TIP3    H175397   4.866   2.249   3.536 -0.1798  0.1876  0.2546
17994TIP3    H275398   5.005   2.302   3.562 -0.1637  0.4910 -0.4184
17995TIP3   OH275399   3.288   5.243  15.465 -0.0123 -0.2689 -0.1263
17995TIP3    H175400   3.378   5.236  15.496 -0.5495 -1.5742  1.2442
17995TIP3    H275401   3.251   5.156  15.479 -1.8816  0.6020  0.6152
17996TIP3   OH275402   6.720   1.132   0.824  0.3699 -0.0682 -0.8276
17996TIP3    H175403   6.659   1.190   0.779 -0.5528  0.0459  0.5139
17996TIP3    H275404   6.666   1.089   0.891  1.6455 -0.4022  0.0034
17997TIP3   OH275405   1.080   2.225  15.190  0.3812  0.0623 -0.2328
17997TIP3    H175406   1.041   2.213  15.103  2.2534  0.8797 -1.2675
17997TIP3    H275407   1.094   2.320  15.196  0.6087 -0.0323  0.8205
17998TIP3   OH275408   4.717   5.001   4.772  0.2906  0.0001  0.5788
17998TIP3    H175409   4.645   4.947   4.806  0.5525 -0.7842 -0.0798
17998TIP3    H275410   4.779   4.938   4.735  2.1239  0.5270  2.5578
17999TIP3   OH275411   0.177   4.209   4.290 -1.0939  0.0294  0.2154
17999TIP3    H175412   0.217   4.216   4.376  0.4299 -0.3849 -0.4337
17999TIP3    H275413   0.088   4.178   4.308 -1.3599  1.5073  1.7188
18000TIP3   OH275414   5.962   0.474   4.950 -0.2565  0.3595 -0.0546
18000TIP3    H175415   5.976   0.511   4.864 -0.5460 -0.8012 -0.6236
18000TIP3    H275416   5.903   0.535   4.994  0.0752  1.0701 -0.5822
18001TIP3   OH275417   2.379   0.919   4.997  0.1391 -0.3746  0.5739
18001TIP3    H175418   2.410   0.955   4.913  0.7915 -2.6958 -0.2690
18001TIP3    H275419   2.353   0.995   5.048 -0.8277  1.1210 -1.9512
18002TIP3   OH275420   3.034   1.172  15.856  0.2394  0.5609  0.0431
18002TIP3    H175421   3.072   1.208  15.776 -0.8374  0.5132 -0.5148
18002TIP3    H275422   3.021   1.248  15.913  0.9802  0.5983  0.1712
18003TIP3   OH275423   0.599   2.998   1.236  0.5789 -0.5550 -0.5418
18003TIP3    H175424   0.566   2.982   1.324  0.3335  0.2598 -0.4778
18003TIP3    H275425   0.529   2.968   1.178  0.9156 -1.4897 -0.4781
18004TIP3   OH275426   0.847   2.543  15.167 -0.4102 -0.3800  0.2522
18004TIP3    H175427   0.772   2.528  15.109 -0.2159  0.8312 -0.3514
18004TIP3    H275428   0.831   2.630  15.204 -0.4542 -1.0669  1.9306
18005TIP3   OH275429   3.096   1.991  15.358 -0.0993  0.5931  0.0770
18005TIP3    H175430   3.111   2.012  15.450  1.3152 -0.0751  0.0330
18005TIP3    H275431   3.069   2.074  15.318 -0.7303  0.8802  1.0919
18006TIP3   OH275432   2.587   2.028  12.889  0.3884 -0.9180  0.2848
18006TIP3    H175433   2.670   1.998  12.926  0.6578 -0.4290  0.0824
18006TIP3    H275434   2.543   2.074  12.960  0.2478 -1.2596  0.4185
18007TIP3   OH275435   0.355   4.923   3.884 -0.1737 -0.0381  0.1317
18007TIP3    H175436   0.327   4.869   3.810 -1.4999  0.1547  0.4691
18007TIP3    H275437   0.448   4.903   3.894  0.2137  0.4540 -2.0080
18008TIP3   OH275438   0.335   1.393  10.749 -0.3085  0.1525 -0.1132
18008TIP3    H175439   0.274   1.369  10.818  0.5318  0.0183  0.5974
18008TIP3    H275440   0.368   1.479  10.774 -0.2242  0.2380 -0.5080
18009TIP3   OH275441   2.752   1.510   0.933  0.5815 -0.1207  0.4646
18009TIP3    H175442   2.668   1.500   0.888  1.1837 -0.3968 -0.6399
18009TIP3    H275443   2.728   1.535   1.023 -0.6668 -0.0083  0.1267
18010TIP3   OH275444   6.744   0.944   0.560 -0.4138 -0.4338 -0.0440
18010TIP3    H175445   6.665   0.992   0.587  0.1071  1.8788 -2.2469
18010TIP3    H275446   6.727   0.920   0.469  0.9279 -1.0903 -0.1406
18011TIP3   OH275447   5.253   5.995  12.635 -0.7052 -0.0509  0.4599
18011TIP3    H175448   5.348   5.985  12.629 -0.7140 -0.5434  1.0178
18011TIP3    H275449   5.224   6.012  12.546 -0.1351 -0.3016  0.2281
18012TIP3   OH275450   4.438   3.394  16.172  0.6301 -0.3450  0.3618
18012TIP3    H175451   4.355   3.347  16.169  0.9989 -0.9801 -0.5821
18012TIP3    H275452   4.443   3.440  16.088 -0.3466  2.5685  1.7483
18013TIP3   OH275453   6.579   6.679  10.920 -0.2150 -0.5512 -0.6135
18013TIP3    H175454   6.585   6.772  10.895 -1.5900 -0.6046 -1.2061
18013TIP3    H275455   6.486   6.658  10.912 -0.1013 -1.6749  0.6829
18014TIP3   OH275456   2.395   2.523   0.350  0.1766  0.3426 -0.7311
18014TIP3    H175457   2.422   2.432   0.351  0.9402  0.5443  1.2808
18014TIP3    H275458   2.305   2.522   0.384  0.1298  0.3538 -0.8497
18015TIP3   OH275459   4.931   2.671   0.132 -0.6756  1.0660  0.6823
18015TIP3    H175460   4.957   2.599   0.074  1.7510  1.6137  0.9852
18015TIP3    H275461   4.849   2.642   0.170 -0.7542 -0.6891 -0.6683
18016TIP3   OH275462   1.312   0.061  12.424 -0.2964  0.2051  0.0718
18016TIP3    H175463   1.230   0.073  12.376 -0.0411 -0.6013 -0.5958
18016TIP3    H275464   1.290  -0.000  12.494 -0.3361  0.2241  0.0752
18017TIP3   OH275465   4.894   5.440   1.223  0.2447  0.3955  1.0581
18017TIP3    H175466   4.963   5.482   1.171  0.9284 -0.5078  1.2090
18017TIP3    H275467   4.932   5.430   1.310  0.5924 -1.6134  0.7335
18018TIP3   OH275468   6.137   5.560   0.877  0.5250  0.0743 -0.6750
18018TIP3    H175469   6.087   5.480   0.891  1.2110  0.0617  2.4705
18018TIP3    H275470   6.211   5.533   0.823 -0.0290 -1.0672 -0.8904
18019TIP3   OH275471   5.193   1.777   3.185  0.5154 -0.4438  0.7208
18019TIP3    H175472   5.218   1.725   3.108 -0.0249 -0.2781  0.4263
18019TIP3    H275473   5.275   1.794   3.230  0.8179 -0.7085  0.2782
18020TIP3   OH275474   6.615   2.596  14.644  0.3003 -0.2008 -0.0616
18020TIP3    H175475   6.626   2.561  14.732 -1.1088  0.2879  0.3412
18020TIP3    H275476   6.523   2.581  14.624  0.5403 -0.0406 -1.3377
18021TIP3   OH275477   4.066   3.477  13.073 -0.2437 -0.3044  0.1927
18021TIP3    H175478   4.066   3.384  13.099 -0.3195 -0.6004 -0.8363
18021TIP3    H275479   4.023   3.478  12.988 -1.4704  0.8558  0.7879
18022TIP3   OH275480   5.176   6.207   1.745 -0.6803  0.0892  0.0147
18022TIP3    H175481   5.099   6.201   1.688 -1.6996  0.5772  1.2963
18022TIP3    H275482   5.198   6.116   1.765 -0.9834 -0.0492 -0.2674
18023TIP3   OH275483   5.207   5.342   5.119 -0.0359 -1.0353  0.3061
18023TIP3    H175484   5.174   5.432   5.127 -0.5140 -1.1863  0.0922
18023TIP3    H275485   5.252   5.340   5.035 -2.3380 -1.6811 -1.0143
18024TIP3   OH275486   3.283   2.617   1.633  0.5209  1.2288 -0.2410
18024TIP3    H175487   3.311   2.574   1.713 -0.6715  0.0573 -0.4160
18024TIP3    H275488   3.351   2.681   1.615  1.0924  1.1249  1.3902
18025TIP3   OH275489   0.512   6.231  11.300  0.1496 -0.5847 -0.0489
18025TIP3    H175490   0.545   6.211  11.213 -2.1384 -0.7091 -0.9523
18025TIP3    H275491   0.590   6.258  11.350  1.5802 -1.0036 -1.9534
18026TIP3   OH275492   1.894   0.951  10.747 -0.5179 -0.2377  0.1195
18026TIP3    H175493   1.986   0.926  10.736 -0.7125 -2.1246  2.0215
18026TIP3    H275494   1.897   1.044  10.769  1.0950 -0.5852  1.6111
18027TIP3   OH275495   1.765   0.082  14.554 -0.0203 -0.2031 -0.2333
18027TIP3    H175496   1.818   0.104  14.630 -1.2431 -0.5125  0.7427
18027TIP3    H275497   1.778   0.155  14.493 -0.2147  0.8093  0.9101
18028TIP3   OH275498   4.442   1.978   5.908  0.1921  0.0693  0.0843
18028TIP3    H175499   4.389   1.974   5.988 -0.9695  1.1561 -0.6037
18028TIP3    H275500   4.413   1.904   5.856 -2.4610  1.9345 -1.3173
18029TIP3   OH275501   3.046   3.319   0.402  0.3379  0.7648  0.4887
18029TIP3    H175502   3.087   3.383   0.460  1.3046  2.3299 -1.7905
18029TIP3    H275503   3.099   3.240   0.414 -0.5395  0.4426  2.9274
18030TIP3   OH275504   4.953   0.211   4.949 -0.9564 -0.4925 -0.2088
18030TIP3    H175505   4.968   0.305   4.961 -0.6564 -0.5399 -0.2066
18030TIP3    H275506   5.018   0.184   4.885 -1.4200 -0.5861 -0.6443
18031TIP3   OH275507   1.093   4.816   5.925 -0.2377 -0.1851  0.1527
18031TIP3    H175508   1.149   4.754   5.971 -1.6273 -0.3831  1.6801
18031TIP3    H275509   1.058   4.767   5.850  0.9919 -0.2895 -0.3655
18032TIP3   OH275510   4.758   2.005   4.220 -0.4318  0.5467  0.1311
18032TIP3    H175511   4.664   2.009   4.201 -0.1420  0.7089 -1.3151
18032TIP3    H275512   4.798   2.067   4.160  0.7181 -0.2909 -0.0005
18033TIP3   OH275513   2.091   3.873   6.056 -0.7638 -0.3766 -0.4980
18033TIP3    H175514   2.135   3.846   5.975  1.4682  1.9633 -0.2236
18033TIP3    H275515   2.152   3.847   6.125 -2.3278 -1.7198  0.4372
18034TIP3   OH275516   2.307   1.405   5.909  0.5506 -0.2787  0.5340
18034TIP3    H175517   2.248   1.384   5.981 -0.8568  0.3131 -0.3999
18034TIP3    H275518   2.393   1.376   5.939  0.0283  0.0844  2.4827
18035TIP3   OH275519   5.307   0.944  13.268 -0.3327 -0.3497 -0.0594
18035TIP3    H175520   5.375   0.930  13.202  0.0075  0.1476  0.1889
18035TIP3    H275521   5.293   1.038  13.269 -0.5058 -0.3779  0.4196
18036TIP3   OH275522   6.297   3.380   0.387 -0.9451  0.2180 -0.0876
18036TIP3    H175523   6.242   3.322   0.334 -0.4312 -0.3627  0.0029
18036TIP3    H275524   6.242   3.456   0.404 -1.1608  0.3626 -1.3511
18037TIP3   OH275525   5.033   5.882   0.593 -1.1070  0.7754  0.1568
18037TIP3    H175526   4.957   5.824   0.585 -0.5352  0.2051 -1.6428
18037TIP3    H275527   5.107   5.824   0.610 -0.5374  0.9316 -1.5930
18038TIP3   OH275528   4.629   3.123   5.019 -0.4081  0.0368  0.3676
18038TIP3    H175529   4.596   3.033   5.018 -0.9055  0.2186  0.6191
18038TIP3    H275530   4.721   3.114   4.993 -0.0739 -0.7009  1.6946
18039TIP3   OH275531   1.886   2.556  14.246  0.0661  0.4647 -0.0384
18039TIP3    H175532   1.937   2.623  14.202 -0.4200 -0.8494 -2.7959
18039TIP3    H275533   1.917   2.473  14.210 -1.4227 -0.6084  0.9924
18040TIP3   OH275534   0.649   1.156   3.507  0.0866  0.3578 -0.1431
18040TIP3    H175535   0.603   1.234   3.475  2.9524  1.2984 -2.4074
18040TIP3    H275536   0.630   1.154   3.601 -3.9948  0.9017 -0.7457
18041TIP3   OH275537   5.956   5.014   1.675 -0.1784 -0.1682 -0.3040
18041TIP3    H175538   5.976   5.084   1.738 -1.9786 -1.5550  1.9655
18041TIP3    H275539   6.038   5.002   1.626  0.7960  2.1050  0.6147
18042TIP3   OH275540   2.542   2.213   0.002 -0.1864  0.2239 -0.0326
18042TIP3    H175541   2.576   2.218  -0.088 -1.7016  0.2841 -0.6222
18042TIP3    H275542   2.482   2.287   0.009  0.8352  0.9834  1.4719
18043TIP3   OH275543   2.709   0.088  12.773 -0.9465  0.0578 -0.0984
18043TIP3    H175544   2.658   0.009  12.791 -0.1631 -0.2248  0.9549
18043TIP3    H275545   2.728   0.125  12.859 -0.5138  0.8769 -0.5392
18044TIP3   OH275546   5.515   6.646  14.377 -0.0528 -0.4318 -0.2871
18044TIP3    H175547   5.568   6.637  14.456  0.3165 -0.9113 -0.5823
18044TIP3    H275548   5.576   6.629  14.305  0.0671  1.7906 -0.7989
18045TIP3   OH275549   0.607   5.533   3.853  0.6337 -0.0189  0.0719
18045TIP3    H175550   0.525   5.531   3.902 -0.1062 -3.2454 -1.0401
18045TIP3    H275551   0.581   5.538   3.761  1.7983  1.1311 -0.2219
18046TIP3   OH275552   6.459   1.235  15.138 -0.1326 -0.3173  0.2285
18046TIP3    H175553   6.474   1.202  15.227 -0.0561  1.4821  0.9366
18046TIP3    H275554   6.365   1.226  15.125  0.0783 -2.2585 -0.2517
18047TIP3   OH275555   4.119   1.060   5.168  0.1389  0.0397 -0.2089
18047TIP3    H175556   4.163   0.989   5.121 -1.7271 -1.2049 -0.1876
18047TIP3    H275557   4.074   1.110   5.100 -0.2674 -0.0716 -0.0251
18048TIP3   OH275558   5.498   5.764  17.282  0.1357  0.8705  0.3176
18048TIP3    H175559   5.525   5.760  17.374 -0.1941 -2.9606  0.4383
18048TIP3    H275560   5.579   5.776  17.233  0.7520 -0.2147  1.0366
18049TIP3   OH275561   5.192   2.685   0.231  0.1948  0.4350  0.4678
18049TIP3    H175562   5.112   2.671   0.182  0.2567  2.2069 -0.1872
18049TIP3    H275563   5.191   2.616   0.298 -1.8544  0.4333  0.4832
18050TIP3   OH275564   1.572   2.487   5.676  0.0369  0.0138 -0.2935
18050TIP3    H175565   1.496   2.460   5.728  0.4348 -1.9532 -0.6627
18050TIP3    H275566   1.648   2.460   5.728  0.4546 -0.4754 -1.1338
18051TIP3   OH275567   5.028   0.937   1.737  0.0523  0.3658 -0.3422
18051TIP3    H175568   5.013   0.905   1.648 -1.0625 -0.0464 -0.0235
18051TIP3    H275569   5.109   0.988   1.731  0.1342  0.1227 -1.5313
18052TIP3   OH275570   5.832   2.530   4.216 -0.4477 -0.0221 -0.0175
18052TIP3    H175571   5.748   2.542   4.171 -0.2621 -0.9244 -0.6383
18052TIP3    H275572   5.829   2.591   4.289 -2.1609 -0.8454  0.6631
18053TIP3   OH275573   4.479   3.958  12.762  0.0195 -0.3128  0.2192
18053TIP3    H175574   4.433   3.955  12.846  0.9913  0.6078  0.8171
18053TIP3    H275575   4.410   3.970  12.697 -0.7468 -1.0330  0.8881
18054TIP3   OH275576   5.295   0.354   3.565  0.1072 -0.1448 -0.4517
18054TIP3    H175577   5.310   0.288   3.632  0.1098 -0.3576 -0.6607
18054TIP3    H275578   5.380   0.364   3.522  0.1741  0.1924 -0.2423
18055TIP3   OH275579   1.387   0.184   2.919 -0.4136 -0.4684  0.0141
18055TIP3    H175580   1.377   0.110   2.979 -0.7484 -0.4801 -0.0551
18055TIP3    H275581   1.321   0.169   2.852  0.4779 -0.8775 -0.7962
18056TIP3   OH275582   4.602   5.695   3.497  0.3034 -0.2510  0.0566
18056TIP3    H175583   4.611   5.790   3.487 -1.2964 -0.2250 -2.0158
18056TIP3    H275584   4.512   5.684   3.529 -0.4198 -1.0944 -2.1095
18057TIP3   OH275585   5.853   2.321   2.964  0.1345 -0.2148  0.0881
18057TIP3    H175586   5.819   2.239   2.928 -1.1203  0.2577  0.1637
18057TIP3    H275587   5.781   2.356   3.017  0.1223  1.6027 -1.0199
18058TIP3   OH275588   3.523   1.109   2.586 -0.1509  0.2728  0.4765
18058TIP3    H175589   3.558   1.171   2.522  0.7114 -0.6515  0.0393
18058TIP3    H275590   3.496   1.164   2.660  1.1564  1.1250  0.3474
18059TIP3   OH275591   5.626   5.779   4.241  0.3680  0.2202  0.0447
18059TIP3    H175592   5.601   5.744   4.156  2.5052  0.5719 -0.7807
18059TIP3    H275593   5.693   5.719   4.274  0.4643  0.7746  0.9034
18060TIP3   OH275594   5.897   0.775  15.833  0.2244  0.4424  0.1814
18060TIP3    H175595   5.832   0.743  15.769  0.8416 -1.7741  0.5679
18060TIP3    H275596   5.845   0.811  15.904 -0.4848  2.3952 -1.2405
18061TIP3   OH275597   1.627   6.442   1.539  0.4769 -0.9376 -0.0402
18061TIP3    H175598   1.690   6.401   1.480  1.7633  1.4427 -0.4433
18061TIP3    H275599   1.583   6.508   1.486  0.2555 -0.0804  1.1746
18062TIP3   OH275600   0.810   4.339   6.706  0.6835  0.1387 -0.6206
18062TIP3    H175601   0.780   4.315   6.618 -2.8764  1.7798 -0.0219
18062TIP3    H275602   0.838   4.430   6.698  1.5391 -0.0902 -0.2923
18063TIP3   OH275603   5.301   4.489   5.726  0.5329  0.2221 -1.1009
18063TIP3    H175604   5.383   4.448   5.753  0.7808  0.8631 -0.8578
18063TIP3    H275605   5.328   4.571   5.685  0.0948 -0.1923 -2.2752
18064TIP3   OH275606   5.234   1.143   6.110 -0.1854  0.4750  0.2609
18064TIP3    H175607   5.305   1.122   6.049 -0.1772  0.2102  0.3601
18064TIP3    H275608   5.240   1.237   6.122 -0.9039  0.7107 -1.0327
18065TIP3   OH275609   1.176   0.115   3.211 -0.4459  0.1609  0.7297
18065TIP3    H175610   1.157   0.117   3.304 -1.1927  2.1608  0.5907
18065TIP3    H275611   1.162   0.024   3.185 -1.7838 -0.1067  2.2451
18066TIP3   OH275612   0.373   1.920  16.587 -0.0692  0.5553 -0.6635
18066TIP3    H175613   0.327   1.836  16.584 -0.8716  0.8906  0.9942
18066TIP3    H275614   0.463   1.898  16.611 -0.7712  0.2567  1.9904
18067TIP3   OH275615   5.928   1.289   2.499 -0.3961 -0.0316  0.1252
18067TIP3    H175616   5.908   1.332   2.582 -1.8572  2.2358 -1.2943
18067TIP3    H275617   5.952   1.361   2.440 -0.6489 -1.4318 -1.7635
18068TIP3   OH275618   4.217   4.543   5.021  0.5116 -0.6979  0.1035
18068TIP3    H175619   4.148   4.483   4.994  0.3579  0.2234 -1.7136
18068TIP3    H275620   4.172   4.614   5.066  0.5752 -1.3120  1.1815
18069TIP3   OH275621   3.869   6.344   0.246 -0.4096  0.1133  0.2786
18069TIP3    H175622   3.898   6.263   0.203 -2.1491  0.5991 -2.0329
18069TIP3    H275623   3.805   6.315   0.310 -1.4335 -0.3589 -0.9199
18070TIP3   OH275624   2.924   5.023   5.226  0.5019 -0.1760  0.7015
18070TIP3    H175625   2.869   5.097   5.253  1.6035  0.9162  0.0603
18070TIP3    H275626   2.928   5.030   5.130  1.5864 -0.3524  0.7247
18071TIP3   OH275627   1.550   1.193  16.398  0.3820 -0.3551  0.2043
18071TIP3    H175628   1.598   1.144  16.330  2.1961 -0.5174  1.5215
18071TIP3    H275629   1.576   1.151  16.480 -0.3234  0.9854  1.1476
18072TIP3   OH275630   6.319   2.662   4.839  0.3084  0.6373 -0.7267
18072TIP3    H175631   6.331   2.752   4.869 -0.8649  0.6801 -0.3069
18072TIP3    H275632   6.350   2.608   4.912 -0.4353  0.7229 -0.3407
18073TIP3   OH275633   6.463   0.617  16.824  0.2728  0.3869 -0.3564
18073TIP3    H175634   6.429   0.696  16.781 -0.1943  0.0347 -0.6478
18073TIP3    H275635   6.471   0.641  16.916  1.7078  1.2944 -0.6941
18074TIP3   OH275636   3.570   2.693   5.934  0.4755 -0.3524  0.4560
18074TIP3    H175637   3.563   2.766   5.996 -0.3374 -1.2316  1.4234
18074TIP3    H275638   3.643   2.641   5.966  1.1318  0.0704 -0.3045
18075TIP3   OH275639   2.884   2.410  14.653  0.1015  0.1241  0.7194
18075TIP3    H175640   2.808   2.421  14.709 -0.2163  0.3791  0.2401
18075TIP3    H275641   2.938   2.488  14.670 -0.6994  0.9597 -0.4132
18076TIP3   OH275642   4.694   1.824  12.358 -0.2126  0.0193  0.6697
18076TIP3    H175643   4.717   1.744  12.406 -2.2062  0.5194  2.6492
18076TIP3    H275644   4.636   1.795  12.289  1.5211 -0.5381 -0.6371
18077TIP3   OH275645   4.206   2.724   1.265 -0.6659 -0.2368  0.0257
18077TIP3    H175646   4.276   2.667   1.297  0.2537  0.8044 -0.0596
18077TIP3    H275647   4.237   2.755   1.180 -0.0185  2.2055  1.0521
18078TIP3   OH275648   0.071   0.886  10.898  0.0735 -0.1893 -0.1414
18078TIP3    H175649   0.031   0.807  10.932  1.9615 -2.2836 -2.4162
18078TIP3    H275650   0.158   0.888  10.937  0.8208 -0.4725 -1.7122
18079TIP3   OH275651   1.076   5.208  13.194 -0.0801 -0.2836 -0.9942
18079TIP3    H175652   1.025   5.282  13.226  1.1945  0.0252  0.4487
18079TIP3    H275653   1.083   5.222  13.099 -0.0778  1.3044 -0.7758
18080TIP3   OH275654   1.325   1.669  10.367 -0.0923 -0.0187  0.2674
18080TIP3    H175655   1.406   1.628  10.336 -1.0609 -2.0325  0.2132
18080TIP3    H275656   1.278   1.598  10.411 -2.5312  0.6546 -1.0807
18081TIP3   OH275657   3.936   3.097   4.949 -0.9194  0.0935 -0.1440
18081TIP3    H175658   3.944   3.191   4.965  0.0632  0.1148 -0.7094
18081TIP3    H275659   3.956   3.087   4.856 -0.8841 -0.6892 -0.0531
18082TIP3   OH275660   1.315   3.960  17.145 -0.2766  0.7777 -0.5211
18082TIP3    H175661   1.268   4.022  17.200  0.6984  0.3407  0.8478
18082TIP3    H275662   1.272   3.967  17.060 -0.8080  2.6300 -0.1625
18083TIP3   OH275663   3.308   2.327  12.656 -0.3950  0.6491 -0.8432
18083TIP3    H175664   3.318   2.265  12.584 -0.8230 -0.2471 -0.1454
18083TIP3    H275665   3.393   2.326  12.700 -0.3406  0.7032 -0.9457
18084TIP3   OH275666   5.041   1.996   6.223  0.0709  0.4659  0.3510
18084TIP3    H175667   5.100   1.929   6.189 -1.2550 -0.9144  0.7108
18084TIP3    H275668   5.099   2.059   6.266  1.3607 -0.2814 -0.2420
18085TIP3   OH275669   2.849   4.884  14.404 -0.1520  0.4498 -0.0786
18085TIP3    H175670   2.817   4.914  14.489 -0.2868  2.0232 -0.6615
18085TIP3    H275671   2.771   4.849  14.360  0.0135 -0.8526  0.6140
18086TIP3   OH275672   1.645   2.573  13.386  0.0969  0.4685 -0.7573
18086TIP3    H175673   1.632   2.597  13.295  1.2488  1.6430 -0.6304
18086TIP3    H275674   1.643   2.656  13.434 -4.2804 -0.2931  0.8793
18087TIP3   OH275675   1.172   2.983   4.583  0.7589 -0.0516  0.5744
18087TIP3    H175676   1.098   2.998   4.642 -0.0228  0.7170 -0.5516
18087TIP3    H275677   1.133   2.983   4.496  2.0116 -0.2627 -0.0032
18088TIP3   OH275678   0.913   1.427   0.663 -0.0255 -0.5330 -0.3988
18088TIP3    H175679   0.885   1.336   0.654  2.1738 -1.3168 -0.0496
18088TIP3    H275680   0.981   1.437   0.596  2.0947 -0.2054  1.6887
18089TIP3   OH275681   1.162   6.537   2.558 -0.3148 -0.1394 -0.3744
18089TIP3    H175682   1.183   6.601   2.490  0.5557  0.4511  0.4108
18089TIP3    H275683   1.073   6.560   2.585 -0.4057  0.0619 -0.8393
18090TIP3   OH275684   5.131   4.284  13.673 -0.3718  0.3373  0.2625
18090TIP3    H175685   5.157   4.373  13.650  1.0896 -0.2045 -0.2572
18090TIP3    H275686   5.212   4.234  13.670 -1.0903 -0.9166  1.0575
18091TIP3   OH275687   2.492   3.100  14.631  0.1032  1.3054 -0.2884
18091TIP3    H175688   2.421   3.107  14.695  0.8488 -0.4480  0.7914
18091TIP3    H275689   2.491   3.008  14.603  1.7506  1.3042 -0.4601
18092TIP3   OH275690   6.539   3.567   3.611 -0.0598 -0.6540 -0.1034
18092TIP3    H175691   6.508   3.503   3.548 -0.5449 -1.4266  0.8972
18092TIP3    H275692   6.551   3.647   3.560 -1.2344 -1.0338 -1.0090
18093TIP3   OH275693   3.964   2.705  14.624  0.2961  0.2943  0.6946
18093TIP3    H175694   4.019   2.632  14.652  2.2096  1.0832 -0.8275
18093TIP3    H275695   4.025   2.775  14.603 -1.3288  1.4149 -0.5449
18094TIP3   OH275696   1.605   0.668   2.149 -0.1590 -0.5821 -0.3779
18094TIP3    H175697   1.633   0.591   2.198  0.9670  0.7401  1.1796
18094TIP3    H275698   1.597   0.737   2.215  0.8971  1.1450 -1.9501
18095TIP3   OH275699   5.051   0.552  11.523 -0.0685  0.1966  0.4649
18095TIP3    H175700   5.052   0.456  11.522  1.2622  0.1889  1.0775
18095TIP3    H275701   5.084   0.577  11.437  0.7106  0.0978  0.7331
18096TIP3   OH275702   4.897   1.108   4.491 -0.1040 -0.4635 -0.2758
18096TIP3    H175703   4.830   1.115   4.559  1.0879  4.1563  0.8052
18096TIP3    H275704   4.848   1.100   4.409 -1.7933 -0.7097  0.7214
18097TIP3   OH275705   5.789   5.609  14.938  0.3777  0.1051 -0.1082
18097TIP3    H175706   5.827   5.571  14.859 -0.8585 -1.3955 -0.0253
18097TIP3    H275707   5.809   5.546  15.007  1.1693  1.2468  0.7392
18098TIP3   OH275708   4.644   5.355  12.665 -0.6454  0.1750  0.3695
18098TIP3    H175709   4.607   5.443  12.655  0.1181  0.4742  0.0892
18098TIP3    H275710   4.651   5.321  12.576 -0.0528  0.2092  0.3984
18099TIP3   OH275711   0.562   0.694  13.740  0.1055  0.2442  0.1819
18099TIP3    H175712   0.637   0.735  13.783 -0.5778 -1.4813  3.3734
18099TIP3    H275713   0.575   0.600  13.754 -2.1902 -0.1540  0.0613
18100TIP3   OH275714   4.063   1.246   4.983  0.0033 -0.0858 -0.8732
18100TIP3    H175715   4.038   1.339   4.980 -0.9199 -0.3299 -0.9971
18100TIP3    H275716   4.016   1.206   4.910 -0.6226 -0.8975 -0.0372
18101TIP3   OH275717   6.050   4.405  10.899  0.2206 -0.3028  0.1583
18101TIP3    H175718   6.020   4.441  10.815  3.1800  0.8706 -0.5120
18101TIP3    H275719   6.142   4.384  10.885  0.9851  0.4658  3.2510
18102TIP3   OH275720   2.130   3.344   2.714 -0.3191  0.0728 -0.5586
18102TIP3    H175721   2.122   3.439   2.709  0.9641  0.1557 -1.3448
18102TIP3    H275722   2.040   3.314   2.729 -0.7699  1.3858 -0.4605
18103TIP3   OH275723   4.483   5.524   5.963  0.7182  0.1411 -0.8313
18103TIP3    H175724   4.479   5.609   6.008 -0.5814 -0.7376  0.8159
18103TIP3    H275725   4.531   5.467   6.023  2.5424 -0.0918 -2.3978
18104TIP3   OH275726   5.548   4.343   5.725  0.5203 -0.0236  0.7735
18104TIP3    H175727   5.563   4.272   5.788 -3.4100 -1.1695  0.6730
18104TIP3    H275728   5.556   4.300   5.639  1.6710  0.5633  0.5638
18105TIP3   OH275729   0.459   2.360  16.304 -0.4914 -0.1768 -0.4193
18105TIP3    H175730   0.400   2.298  16.347  0.0703 -1.3770 -1.3113
18105TIP3    H275731   0.516   2.305  16.250  1.3517  0.9560  0.2930
18106TIP3   OH275732   2.310   5.567   1.160 -0.5757  0.4476  0.1644
18106TIP3    H175733   2.298   5.491   1.103  0.4594  0.0200  0.5094
18106TIP3    H275734   2.239   5.627   1.134 -0.7365 -0.1619 -0.8625
18107TIP3   OH275735   1.567   1.036   2.029  0.0101 -0.2286 -0.9887
18107TIP3    H175736   1.537   1.071   1.945 -0.4698  1.5870 -0.1264
18107TIP3    H275737   1.533   1.098   2.094  0.2790 -1.6375  0.5595
18108TIP3   OH275738   1.907   2.582   2.428  0.3430 -0.2569  0.5797
18108TIP3    H175739   1.903   2.614   2.518 -1.8258  2.3794 -0.3128
18108TIP3    H275740   1.826   2.532   2.417 -1.2727  2.4455 -0.7912
18109TIP3   OH275741   3.286   3.217  15.276 -0.5894  0.0060  0.0578
18109TIP3    H175742   3.287   3.306  15.239  1.5429 -0.5496 -1.4142
18109TIP3    H275743   3.258   3.162  15.203 -1.7857 -0.5605  0.9301
18110TIP3   OH275744   2.924   0.938  14.943  0.2113 -0.2686 -0.2401
18110TIP3    H175745   2.954   1.028  14.930  0.3106 -0.0069  1.5172
18110TIP3    H275746   2.842   0.948  14.991  0.8404 -1.1034  1.0687
18111TIP3   OH275747   2.149   4.068  16.857  0.1172  0.1526 -0.1787
18111TIP3    H175748   2.122   4.041  16.769 -1.6383  0.9852  0.0607
18111TIP3    H275749   2.156   4.164  16.852 -0.1071  0.2195  0.6001
18112TIP3   OH275750   5.644   6.260   2.408  0.2169  0.2279 -0.0820
18112TIP3    H175751   5.629   6.176   2.450  0.1200  0.3955  0.2223
18112TIP3    H275752   5.598   6.323   2.464  1.6736  0.6934  0.6316
18113TIP3   OH275753   6.130   5.878  13.797 -0.3524  0.4972 -0.0892
18113TIP3    H175754   6.098   5.816  13.731 -0.0025  1.4400 -1.1805
18113TIP3    H275755   6.066   5.950  13.795  0.7426  1.4879 -0.8976
18114TIP3   OH275756   4.876   5.842   5.605  0.8606  0.3280  0.2402
18114TIP3    H175757   4.831   5.922   5.580  1.5168  0.7006  0.2278
18114TIP3    H275758   4.934   5.869   5.676  1.1103 -0.1289  0.2099
18115TIP3   OH275759   4.707   0.466  11.361 -0.0454  0.3376 -0.1336
18115TIP3    H175760   4.751   0.442  11.279 -0.9750  0.6161 -0.7291
18115TIP3    H275761   4.709   0.386  11.414 -0.8433 -0.3189 -1.0714
18116TIP3   OH275762   1.692   2.915   1.440 -0.0813 -0.1754  0.0804
18116TIP3    H175763   1.777   2.884   1.409  0.5424  0.5618  0.9812
18116TIP3    H275764   1.635   2.839   1.434  1.5219 -1.7677  2.7701
18117TIP3   OH275765   1.800   5.407  14.599 -0.1364 -0.2586 -0.2215
18117TIP3    H175766   1.707   5.427  14.594 -0.1148  0.8667  2.2414
18117TIP3    H275767   1.807   5.316  14.571 -1.6380  0.2566 -2.4844
18118TIP3   OH275768   3.773   2.280  14.368 -0.2388 -0.1040  0.5099
18118TIP3    H175769   3.731   2.259  14.285  1.4270 -1.1287 -0.1360
18118TIP3    H275770   3.712   2.248  14.435 -0.7050 -1.1032 -0.3604
18119TIP3   OH275771   3.094   3.210   6.582  0.4935 -0.1029 -0.1792
18119TIP3    H175772   3.027   3.152   6.547  0.9682 -0.1524 -1.0111
18119TIP3    H275773   3.047   3.267   6.643 -0.7104  1.2016 -2.2138
18120TIP3   OH275774   2.171   3.558  11.872  0.2656 -0.1231  0.2371
18120TIP3    H175775   2.156   3.474  11.916 -0.5104 -1.1431 -1.8341
18120TIP3    H275776   2.265   3.571  11.876  0.5435 -1.6925 -0.3591
18121TIP3   OH275777   5.600   1.029  13.655 -0.2381  0.3863 -0.0527
18121TIP3    H175778   5.683   1.008  13.697 -1.1584 -2.2770  0.6352
18121TIP3    H275779   5.625   1.065  13.570  1.6122  1.3793  0.8477
18122TIP3   OH275780   1.903   6.049   2.844 -0.0938  0.4928 -0.5352
18122TIP3    H175781   1.861   5.976   2.799  1.1558 -1.0387  0.6438
18122TIP3    H275782   1.841   6.073   2.913  0.2253 -0.6832  0.1924
18123TIP3   OH275783   0.315   3.823   4.177  0.3258  0.0105 -0.0816
18123TIP3    H175784   0.224   3.803   4.196  0.0654  1.1264 -0.0893
18123TIP3    H275785   0.365   3.755   4.223 -0.5064 -0.8644 -0.4248
18124TIP3   OH275786   5.250   5.912  15.738 -0.0858 -0.3127  0.0233
18124TIP3    H175787   5.327   5.968  15.728 -1.4394  1.4285 -1.5392
18124TIP3    H275788   5.177   5.968  15.710 -1.6257 -2.6740 -0.9913
18125TIP3   OH275789   5.636   3.512  15.828 -0.5233 -0.6778 -0.1459
18125TIP3    H175790   5.596   3.543  15.747  1.6728  0.6173 -0.8269
18125TIP3    H275791   5.562   3.489  15.885 -2.1550  0.5263 -1.6871
18126TIP3   OH275792   2.194   1.572  10.909 -0.1077 -0.2015 -0.0755
18126TIP3    H175793   2.133   1.507  10.872 -0.1195 -0.4831  0.4403
18126TIP3    H275794   2.188   1.646  10.849 -0.0894 -0.6773 -0.6736
18127TIP3   OH275795   4.268   5.940   3.360 -0.6429  0.4070 -0.3151
18127TIP3    H175796   4.270   5.851   3.325  1.2044  1.2930 -2.8151
18127TIP3    H275797   4.257   5.929   3.454 -0.5116 -2.4591 -0.5508
18128TIP3   OH275798   1.900   2.282  16.435 -0.0033  0.3462 -0.1703
18128TIP3    H175799   1.984   2.328  16.439  1.0915 -1.4808 -0.8152
18128TIP3    H275800   1.866   2.286  16.524  0.5102  1.5493 -0.0074
18129TIP3   OH275801   4.764   6.382  11.772 -0.2319  0.2817 -0.1742
18129TIP3    H175802   4.733   6.350  11.857  1.3788  2.0959  1.1832
18129TIP3    H275803   4.805   6.306  11.731 -0.3952 -0.4677  0.9891
18130TIP3   OH275804   0.969   2.252   6.146 -0.4139 -0.1885 -0.4129
18130TIP3    H175805   1.006   2.167   6.168  0.0624  0.2860  0.6811
18130TIP3    H275806   0.876   2.234   6.130 -0.3691 -0.8744  0.0546
18131TIP3   OH275807   2.599   0.490   6.202  0.9802  0.1038 -0.1064
18131TIP3    H175808   2.531   0.496   6.269  1.2695 -0.3961  0.2396
18131TIP3    H275809   2.554   0.511   6.120  0.2206 -1.0209  0.0029
18132TIP3   OH275810   4.197   5.071  11.378 -0.2789  0.0351 -0.2418
18132TIP3    H175811   4.144   5.071  11.298 -2.3636 -1.2625  1.0506
18132TIP3    H275812   4.219   4.979  11.392 -0.6338  0.1332  1.0810
18133TIP3   OH275813   0.253   3.010  10.649 -0.1268 -0.0797 -0.0089
18133TIP3    H175814   0.220   3.006  10.738 -0.9512 -0.9297 -0.3404
18133TIP3    H275815   0.208   2.939  10.603 -2.0592  2.2189 -1.8966
18134TIP3   OH275816   0.197   5.000   0.500 -0.2094  0.7098 -0.1019
18134TIP3    H175817   0.267   4.951   0.544 -1.5667 -0.6713  0.6360
18134TIP3    H275818   0.206   4.977   0.407 -0.8554 -1.1180  0.2303
18135TIP3   OH275819   1.121   5.849  11.592  0.3543 -0.4495 -0.3100
18135TIP3    H175820   1.062   5.876  11.521  0.8011 -2.9519 -1.7745
18135TIP3    H275821   1.070   5.863  11.672  0.4753  4.2088 -0.7553
18136TIP3   OH275822   0.334   3.087  13.656 -0.6081 -0.3356  0.0195
18136TIP3    H175823   0.343   3.025  13.584  0.7730  0.1217 -0.2347
18136TIP3    H275824   0.251   3.063  13.698 -1.1284 -1.0184 -1.3168
18137TIP3   OH275825   3.741   1.179  14.355  0.2983 -0.3028 -0.1330
18137TIP3    H175826   3.658   1.198  14.312 -0.2487 -2.2390  0.0159
18137TIP3    H275827   3.796   1.255  14.335 -2.0355  1.8962  1.2583
18138TIP3   OH275828   3.250   3.589   2.395 -0.4132  0.4057 -0.0526
18138TIP3    H175829   3.258   3.575   2.301  2.0611 -0.6386  0.2366
18138TIP3    H275830   3.160   3.565   2.416 -0.0137 -2.9783 -1.6132
18139TIP3   OH275831   5.640   3.477   0.657  0.1525 -0.3341  0.2430
18139TIP3    H175832   5.713   3.538   0.669 -1.3201  1.4610  0.6011
18139TIP3    H275833   5.596   3.476   0.742 -0.9778 -0.3459 -0.3289
18140TIP3   OH275834   1.137   4.523  15.467  0.1525 -0.1104 -0.3225
18140TIP3    H175835   1.138   4.443  15.415 -0.8005  0.3395 -1.0479
18140TIP3    H275836   1.195   4.583  15.421  1.6474 -0.6734  0.7424
18141TIP3   OH275837   5.473   1.242   5.743 -0.3928 -0.2400  0.3267
18141TIP3    H175838   5.532   1.254   5.818 -1.2678 -0.2270  1.0266
18141TIP3    H275839   5.508   1.166   5.697 -0.2059 -0.6375  1.1052
18142TIP3   OH275840   5.169   0.971  15.310 -0.1474 -0.4373  0.1966
18142TIP3    H175841   5.225   1.046  15.332 -1.9721  0.5115  1.8760
18142TIP3    H275842   5.129   0.995  15.226 -0.2198  0.1681  0.4006
18143TIP3   OH275843   0.074   0.039  13.143 -0.3468 -0.0291 -0.5407
18143TIP3    H175844   0.050   0.015  13.054 -1.8773 -1.0651  0.1022
18143TIP3    H275845   0.163   0.006  13.153 -0.4840 -0.7095 -1.4053
18144TIP3   OH275846   4.260   6.553   3.142  0.4030  0.2739 -0.5952
18144TIP3    H175847   4.233   6.637   3.178  0.4840  0.1115 -0.1466
18144TIP3    H275848   4.334   6.574   3.084  0.5038  0.4915 -0.3869
18145TIP3   OH275849   1.075   0.304  16.335 -0.0406  0.6895  0.0754
18145TIP3    H175850   0.994   0.346  16.306 -1.6498 -1.8554  0.5990
18145TIP3    H275851   1.129   0.299  16.256 -2.0816 -1.1383 -1.2931
18146TIP3   OH275852   6.268   3.021   4.263 -0.1143 -0.1394  0.5649
18146TIP3    H175853   6.211   3.013   4.340  0.5818  1.1060  1.2642
18146TIP3    H275854   6.216   3.068   4.199 -0.5977 -0.9127  0.3842
18147TIP3   OH275855   4.008   6.456   3.036  0.3554  0.0918  0.3909
18147TIP3    H175856   4.022   6.372   3.080 -0.3704  0.2632  0.9727
18147TIP3    H275857   4.075   6.514   3.074  1.0039 -0.2807 -0.1809
18148TIP3   OH275858   5.437   4.465   3.773  0.4979 -0.5054  0.1925
18148TIP3    H175859   5.460   4.530   3.707  2.0421 -0.9090  0.2849
18148TIP3    H275860   5.370   4.507   3.827 -0.4462 -0.0005 -1.3305
18149TIP3   OH275861   3.650   0.586  13.294 -0.1179  0.1325  0.2026
18149TIP3    H175862   3.581   0.649  13.315 -0.9773 -0.4006 -0.9127
18149TIP3    H275863   3.607   0.501  13.300 -0.3212 -0.1228 -2.8936
18150TIP3   OH275864   4.980   0.187   5.452  0.7604 -0.1753 -0.9479
18150TIP3    H175865   4.964   0.280   5.433  1.2890 -0.5227 -3.5091
18150TIP3    H275866   4.895   0.145   5.442  0.5248  0.0070  0.1921
18151TIP3   OH275867   5.398   3.493  17.299 -0.3046 -0.0533  0.1187
18151TIP3    H175868   5.417   3.491  17.205  0.3773  3.0602  0.0897
18151TIP3    H275869   5.483   3.482  17.341 -0.3007  0.6356  0.3023
18152TIP3   OH275870   1.691   0.536   0.208  0.3332  0.6256  0.1481
18152TIP3    H175871   1.665   0.577   0.290  2.4595 -0.6837  1.5723
18152TIP3    H275872   1.609   0.511   0.166 -0.7900  0.1323  2.4990
18153TIP3   OH275873   6.336   3.743  12.672 -0.0543  0.5973 -0.5430
18153TIP3    H175874   6.260   3.761  12.616 -0.1546  3.0877  0.2772
18153TIP3    H275875   6.313   3.781  12.757  0.0446 -3.1689  1.3691
18154TIP3   OH275876   6.205   5.605   3.294  0.0245  0.1729 -0.1324
18154TIP3    H175877   6.252   5.603   3.377  1.5135 -0.2313 -0.9669
18154TIP3    H275878   6.186   5.698   3.280  1.0692  0.4017 -0.0616
18155TIP3   OH275879   0.514   3.100   0.748 -0.1353  0.5729 -0.2325
18155TIP3    H175880   0.578   3.171   0.739 -0.3724  0.6935 -1.1145
18155TIP3    H275881   0.464   3.123   0.826  0.0392  1.1762 -0.2918
18156TIP3   OH275882   5.093   0.237   3.415 -0.3755 -0.3555 -0.5267
18156TIP3    H175883   5.106   0.142   3.420 -0.8881 -0.4503 -0.8581
18156TIP3    H275884   5.151   0.273   3.482 -2.9533 -1.1792  2.3795
18157TIP3   OH275885   4.996   5.476   0.733  0.6353 -0.4256 -0.0210
18157TIP3    H175886   5.025   5.509   0.818  1.8960  0.8377 -0.9133
18157TIP3    H275887   5.049   5.397   0.719  1.3390  0.0752 -0.1977
18158TIP3   OH275888   3.228   5.667  12.852 -1.0106 -0.3719  0.1345
18158TIP3    H175889   3.162   5.725  12.814 -1.3834 -1.2777 -0.6334
18158TIP3    H275890   3.290   5.726  12.895 -2.1376  0.5145  0.5976
18159TIP3   OH275891   6.257   2.645  14.750 -0.3512 -0.2911  0.5560
18159TIP3    H175892   6.270   2.628  14.657 -1.3174  1.9917 -0.0656
18159TIP3    H275893   6.184   2.707  14.753 -1.3274 -1.4153  2.9443
18160TIP3   OH275894   4.280   0.936   2.796 -0.5687  0.1100 -0.0591
18160TIP3    H175895   4.205   0.877   2.786 -0.4937  0.0501 -0.2794
18160TIP3    H275896   4.243   1.024   2.793 -0.5325  0.0987 -1.0555
18161TIP3   OH275897   6.724   0.515  14.426  0.3234  0.1138  0.6778
18161TIP3    H175898   6.639   0.516  14.469 -0.4010  1.3227 -0.6454
18161TIP3    H275899   6.749   0.423  14.421 -1.6020 -0.4101 -0.1516
18162TIP3   OH275900   5.448   0.748  11.409 -0.0571 -0.0828 -0.4391
18162TIP3    H175901   5.399   0.764  11.489  1.8790  0.2432  0.7451
18162TIP3    H275902   5.396   0.684  11.361 -0.7044 -1.2218  1.6545
18163TIP3   OH275903   4.656   6.646   6.294  0.4336  0.4991 -0.1962
18163TIP3    H175904   4.597   6.570   6.299 -0.4124  1.0540 -1.2999
18163TIP3    H275905   4.600   6.718   6.266  1.3443  1.4140  0.2877
18164TIP3   OH275906   1.059   0.635  13.629  0.7957  0.6803 -0.1120
18164TIP3    H175907   1.135   0.651  13.684  0.7481 -1.1202  0.5231
18164TIP3    H275908   1.093   0.590  13.552  0.3158 -0.9286  0.5692
18165TIP3   OH275909   2.429   3.800   4.492 -0.3422 -0.0271 -0.3716
18165TIP3    H175910   2.456   3.786   4.583 -1.9109  0.3440  0.1752
18165TIP3    H275911   2.404   3.713   4.461  2.5165 -0.6328 -1.3095
18166TIP3   OH275912   2.860   6.378  11.217  0.3891 -0.3313  0.6552
18166TIP3    H175913   2.860   6.310  11.284  1.0678 -1.2454 -0.2333
18166TIP3    H275914   2.775   6.370  11.174  1.0762 -1.7976 -0.5431
18167TIP3   OH275915   5.104   4.177   6.177  0.3808  0.4669  0.0614
18167TIP3    H175916   5.182   4.227   6.154  0.5787  0.4493  0.6680
18167TIP3    H275917   5.119   4.150   6.268  0.0316 -0.2199 -0.0758
18168TIP3   OH275918   5.652   3.883   0.530  0.6751 -0.0428  0.0624
18168TIP3    H175919   5.678   3.848   0.616 -0.5296 -2.1617 -0.3582
18168TIP3    H275920   5.557   3.893   0.537  0.4294 -1.1684 -1.2972
18169TIP3   OH275921   0.950   0.602   0.729 -0.1955 -0.2028  0.6420
18169TIP3    H175922   1.005   0.528   0.755 -0.7231 -0.2500  1.6907
18169TIP3    H275923   0.986   0.630   0.645  1.8426  0.1532  1.5688
18170TIP3   OH275924   3.287   6.710  17.129  0.1100 -0.6080 -0.1028
18170TIP3    H175925   3.291   6.618  17.102  0.8627 -0.4312 -0.6515
18170TIP3    H275926   3.314   6.710  17.221  1.9729 -0.7631 -0.5995
18171TIP3   OH275927   2.562   5.371   0.900  0.4306 -0.1498 -0.0330
18171TIP3    H175928   2.582   5.351   0.809 -0.3452 -0.3383 -0.1742
18171TIP3    H275929   2.508   5.450   0.895  0.1142 -0.3470  0.2347
18172TIP3   OH275930   0.333   0.978   5.278 -0.0936  0.4994  0.3696
18172TIP3    H175931   0.373   1.007   5.360  1.4133 -1.4266  0.3782
18172TIP3    H275932   0.285   0.898   5.301 -0.8099  0.6948 -0.3886
18173TIP3   OH275933   1.224   5.575  14.265  0.1554 -0.5856  0.1741
18173TIP3    H175934   1.252   5.648  14.210 -0.7078 -1.0503 -0.8942
18173TIP3    H275935   1.135   5.557  14.238  0.5627 -2.4578 -0.0323
18174TIP3   OH275936   2.249   1.148   2.463  0.0843 -0.0423  0.0109
18174TIP3    H175937   2.265   1.096   2.385 -1.1959  0.7341 -0.8142
18174TIP3    H275938   2.326   1.204   2.471  0.3416 -0.3064 -0.5606
18175TIP3   OH275939   4.714   3.364  16.166 -0.1653  0.2837  0.2188
18175TIP3    H175940   4.747   3.366  16.256 -0.2509  2.0469  0.2490
18175TIP3    H275941   4.620   3.354  16.174 -0.3547  1.8759  0.4385
18176TIP3   OH275942   2.397   2.024   6.699 -0.0414 -0.8901 -0.1095
18176TIP3    H175943   2.449   2.104   6.691 -1.7284  0.7559  3.3468
18176TIP3    H275944   2.307   2.052   6.685 -0.7177 -2.0561  1.5935
18177TIP3   OH275945   2.641   4.399  12.666 -0.1580 -0.1462  0.3029
18177TIP3    H175946   2.598   4.317  12.688  0.1682 -0.6156 -0.7398
18177TIP3    H275947   2.731   4.389  12.697  0.1531 -0.5919 -0.7045
18178TIP3   OH275948   1.930   5.694   4.814  0.3953  0.0640  0.1078
18178TIP3    H175949   1.883   5.611   4.827  0.2307 -0.2886 -2.2895
18178TIP3    H275950   1.867   5.762   4.838  0.0697 -0.4778  0.8149
18179TIP3   OH275951   3.674   3.033  15.523 -0.4646 -0.2953 -0.7535
18179TIP3    H175952   3.598   3.080  15.490 -1.1462  0.0738  1.2220
18179TIP3    H275953   3.638   2.954  15.564  0.1526  0.0470  0.4947
18180TIP3   OH275954   0.930   0.606   6.065  0.2918  0.0437  0.1879
18180TIP3    H175955   0.940   0.698   6.040 -2.4178  0.3908  0.0891
18180TIP3    H275956   0.864   0.572   6.004 -0.2737 -1.3939  1.5432
18181TIP3   OH275957   4.593   2.929   5.513  0.5499  0.2658 -0.2143
18181TIP3    H175958   4.630   2.946   5.600  1.3976 -3.9881  0.4688
18181TIP3    H275959   4.518   2.871   5.530  0.8282 -0.7746 -2.3014
18182TIP3   OH275960   2.828   1.882   4.148  0.1236 -0.2801 -0.2177
18182TIP3    H175961   2.881   1.956   4.120 -0.3275  0.6448  1.2423
18182TIP3    H275962   2.738   1.914   4.142 -0.0695 -0.6533  0.5398
18183TIP3   OH275963   2.908   3.696  15.799 -0.1930 -0.0069  0.2543
18183TIP3    H175964   2.942   3.716  15.712  0.1157  2.0282  0.7976
18183TIP3    H275965   2.921   3.602  15.809  2.7957  0.2204 -0.6195
18184TIP3   OH275966   1.132   2.800  12.213  0.1156  0.2731 -0.7671
18184TIP3    H175967   1.101   2.791  12.123  0.2358 -1.1266 -0.7015
18184TIP3    H275968   1.052   2.792  12.267  0.0761  0.8518 -0.7354
18185TIP3   OH275969   3.062   1.865  10.708  0.3791  1.0616 -0.1184
18185TIP3    H175970   3.007   1.844  10.783  2.3489  1.1512  1.4470
18185TIP3    H275971   3.003   1.907  10.646 -1.3720  0.7970  1.2828
18186TIP3   OH275972   5.184   2.351  14.545 -0.5707  0.2701 -0.4809
18186TIP3    H175973   5.197   2.438  14.583 -0.9251  1.0908 -2.1068
18186TIP3    H275974   5.125   2.366  14.471 -0.8019 -1.3961 -0.6677
18187TIP3   OH275975   6.016   1.367  12.145  0.4465  0.1477 -0.0412
18187TIP3    H175976   6.054   1.450  12.116 -0.2314  0.8882  1.1007
18187TIP3    H275977   5.932   1.363  12.101  0.7384 -0.2355 -0.5677
18188TIP3   OH275978   1.610   0.183   0.211  0.1493 -0.4727 -0.7270
18188TIP3    H175979   1.655   0.099   0.198 -1.0495 -1.1699 -0.5724
18188TIP3    H275980   1.675   0.239   0.254  1.0157 -1.2705 -0.9601
18189TIP3   OH275981   3.127   2.974  16.806 -0.3818  0.1043  0.1734
18189TIP3    H175982   3.180   2.990  16.884  0.6844 -2.2756  0.0277
18189TIP3    H275983   3.062   3.045  16.806  0.8750  1.3551  2.0455
18190TIP3   OH275984   0.044   5.694  14.349 -0.8361 -0.2235 -0.1869
18190TIP3    H175985   0.012   5.768  14.297 -1.0297 -0.5314 -0.5082
18190TIP3    H275986   0.094   5.641  14.287  0.3204  0.2479  0.3028
18191TIP3   OH275987   5.660   3.211   0.544  0.0972  0.3158 -0.5883
18191TIP3    H175988   5.651   3.299   0.581  0.0898 -0.4733  1.4497
18191TIP3    H275989   5.741   3.178   0.583 -0.6594 -1.0887 -0.1383
18192TIP3   OH275990   5.753   5.915   4.881  0.2462 -0.0504  0.1333
18192TIP3    H175991   5.825   5.932   4.820  0.2244  1.4045  0.4818
18192TIP3    H275992   5.765   5.824   4.906  0.7635 -0.4330 -1.3743
18193TIP3   OH275993   0.039   6.046   1.284  0.0737 -0.2167 -0.0742
18193TIP3    H175994   0.116   5.992   1.267  0.1083 -0.2432  0.1590
18193TIP3    H275995  -0.034   5.996   1.247  0.2459  0.1049 -0.8579
18194TIP3   OH275996   6.349   2.362   3.665  0.7631  0.1152 -0.1884
18194TIP3    H175997   6.431   2.410   3.678 -0.4157  1.6560  2.4696
18194TIP3    H275998   6.338   2.312   3.746 -1.5275  0.9818  0.1087
18195TIP3   OH275999   0.116   2.044  11.084 -0.7925 -0.2072 -0.1431
18195TIP3    H176000   0.191   2.042  11.144 -0.1316  1.0088 -0.8909
18195TIP3    H276001   0.123   1.963  11.034  1.8554  1.1619 -2.2937
18196TIP3   OH276002   3.488   3.896   2.663  0.3828 -0.5001 -0.0708
18196TIP3    H176003   3.403   3.853   2.652 -0.2722  1.1540 -2.0591
18196TIP3    H276004   3.489   3.925   2.755 -2.4294  1.7824 -0.6281
18197TIP3   OH276005   4.737   6.200   3.703  0.4301 -0.2165 -0.6838
18197TIP3    H176006   4.779   6.207   3.789 -1.4947 -0.6807  0.3421
18197TIP3    H276007   4.717   6.290   3.679  1.4142 -0.0403 -0.9013
18198TIP3   OH276008   1.500   3.107   1.319  0.3941  0.1901 -0.5369
18198TIP3    H176009   1.533   3.117   1.408 -0.0917 -0.3766 -0.2786
18198TIP3    H276010   1.553   3.037   1.281 -1.3196 -1.6837  0.3361
18199TIP3   OH276011   6.528   0.701  16.160 -0.0897 -0.3581 -1.0254
18199TIP3    H176012   6.482   0.681  16.241 -1.7205 -0.4844 -1.9246
18199TIP3    H276013   6.621   0.692  16.181 -0.4923 -0.7378  0.7120
18200TIP3   OH276014   1.977   0.912  17.272 -0.2782 -0.5411  0.4557
18200TIP3    H176015   1.919   0.840  17.247 -0.1226 -0.9748  1.2962
18200TIP3    H276016   1.988   0.964  17.192 -2.9266  0.3569  0.5909
18201TIP3   OH276017   5.610   1.279   5.973  0.1846  0.5538  0.0482
18201TIP3    H176018   5.695   1.320   5.962  1.5983 -1.0821  3.4330
18201TIP3    H276019   5.558   1.344   6.021  1.6298 -0.4680  3.2689
18202TIP3   OH276020   1.633   5.215   1.663 -0.4304  0.1356 -0.3065
18202TIP3    H176021   1.705   5.272   1.636  0.4808 -0.2658  1.0907
18202TIP3    H276022   1.677   5.143   1.709 -1.6731 -0.6727 -0.3418
18203TIP3   OH276023   6.159   5.918  16.181 -0.5187 -0.1076  0.4467
18203TIP3    H176024   6.175   5.826  16.201 -0.2115  0.2251  1.8671
18203TIP3    H276025   6.230   5.965  16.225 -0.3395  0.7807 -0.7323
18204TIP3   OH276026   2.020   2.501   3.304  0.4641  0.6144  0.0635
18204TIP3    H176027   1.940   2.503   3.251  0.3671  1.0686  0.2185
18204TIP3    H276028   2.006   2.569   3.370  1.0612  0.8329 -0.0291
18205TIP3   OH276029   3.505   3.945  15.816  0.2337 -0.5730 -0.0446
18205TIP3    H176030   3.525   3.893  15.739 -1.1707 -2.1180  0.5791
18205TIP3    H276031   3.574   3.922  15.879  1.7735  1.1871 -0.9731
18206TIP3   OH276032   1.528   0.635   4.160 -0.3358 -0.0547  0.2155
18206TIP3    H176033   1.553   0.635   4.067  1.6946 -0.5754  0.7205
18206TIP3    H276034   1.450   0.691   4.163 -2.0635 -2.1187 -2.1880
18207TIP3   OH276035   2.237   1.898  15.739  0.7045 -0.2713 -0.9076
18207TIP3    H176036   2.318   1.937  15.772 -0.4440 -0.7058  2.9425
18207TIP3    H276037   2.169   1.930  15.798 -1.1341 -3.7811 -0.8544
18208TIP3   OH276038   5.182   0.480  15.713 -0.6794  0.6449  0.3119
18208TIP3    H176039   5.126   0.551  15.680 -0.2882  0.9385  0.2741
18208TIP3    H276040   5.147   0.401  15.672 -1.2374  0.7893  0.5048
18209TIP3   OH276041   1.421   3.284  13.757  0.1262  0.3305 -0.4762
18209TIP3    H176042   1.455   3.267  13.669 -0.6587  0.5131 -0.8230
18209TIP3    H276043   1.384   3.372  13.753  1.7584  1.1228  0.5763
18210TIP3   OH276044   5.454   3.247   1.471 -0.5191  0.2233  0.1803
18210TIP3    H176045   5.467   3.314   1.404 -0.6337  0.6466  0.5779
18210TIP3    H276046   5.482   3.288   1.553 -1.5672  0.1546  0.5886
18211TIP3   OH276047   3.192   5.130  16.522  0.4153  0.0336  0.2563
18211TIP3    H176048   3.186   5.219  16.558 -1.0290 -0.0306  0.2263
18211TIP3    H276049   3.111   5.119  16.473  0.9074 -1.0554 -0.3455
18212TIP3   OH276050   5.532   2.441   1.428 -0.0327 -0.0701  0.2203
18212TIP3    H176051   5.437   2.452   1.432  0.0453  0.4288  0.8375
18212TIP3    H276052   5.558   2.487   1.348 -0.4127 -1.0426 -0.4828
18213TIP3   OH276053   6.290   5.664  16.088  0.0256 -0.3109 -0.6586
18213TIP3    H176054   6.373   5.712  16.083 -0.5977  0.6932 -1.8272
18213TIP3    H276055   6.271   5.640  15.997 -2.0003  1.3081 -0.7222
18214TIP3   OH276056   1.294   0.265  14.179 -0.1222 -0.0041 -0.0126
18214TIP3    H176057   1.352   0.341  14.173  1.7189 -1.2600  0.8894
18214TIP3    H276058   1.308   0.218  14.097  0.6367 -0.6347  0.4705
18215TIP3   OH276059   3.824   3.487  16.635  0.6720  0.2168  0.3726
18215TIP3    H176060   3.847   3.418  16.573  0.6953  0.0669  0.5490
18215TIP3    H276061   3.873   3.564  16.605 -2.1665  1.2592 -2.0874
18216TIP3   OH276062   3.837   1.904   4.485 -0.2768 -0.0242  0.3801
18216TIP3    H176063   3.746   1.921   4.508  0.1424  1.7159  0.8654
18216TIP3    H276064   3.884   1.982   4.513  0.8508  0.7184 -3.1402
18217TIP3   OH276065   2.901   5.064   4.952 -0.2091  0.6997  0.1609
18217TIP3    H176066   2.855   5.004   4.895 -0.5869  1.5299 -0.4335
18217TIP3    H276067   2.858   5.149   4.937  0.2620  1.1037  1.0184
18218TIP3   OH276068   3.500   5.802  16.717 -0.2627 -0.5533 -0.1122
18218TIP3    H176069   3.494   5.891  16.752  0.9396 -0.1191 -0.9411
18218TIP3    H276070   3.431   5.797  16.651  0.6504  0.3229 -1.1777
18219TIP3   OH276071   4.852   1.615   1.486 -0.5636 -0.3574 -0.0025
18219TIP3    H176072   4.934   1.576   1.457 -0.3933  1.4893 -2.3039
18219TIP3    H276073   4.877   1.697   1.528 -1.1964  0.6803 -1.5515
18220TIP3   OH276074   2.526   2.324   5.139 -0.8635 -0.4554 -0.5048
18220TIP3    H176075   2.435   2.344   5.161 -0.4669  0.4116  0.4771
18220TIP3    H276076   2.575   2.400   5.172  0.0814 -0.2504 -2.2523
18221TIP3   OH276077   4.777   2.814   2.590  0.0694  0.1692 -0.0321
18221TIP3    H176078   4.808   2.817   2.680 -0.6181  1.2694  0.1959
18221TIP3    H276079   4.683   2.831   2.597 -0.4157 -1.8808 -0.7926
18222TIP3   OH276080   4.612   5.599   1.019  0.8013 -0.0993 -0.4024
18222TIP3    H176081   4.594   5.673   0.960 -0.4661 -0.8782 -1.0607
18222TIP3    H276082   4.630   5.526   0.960 -0.1305 -0.8159  0.1679
18223TIP3   OH276083   2.638   4.537   1.397 -0.1937 -0.1043 -0.4553
18223TIP3    H176084   2.557   4.561   1.443  0.6725 -0.2553  1.2529
18223TIP3    H276085   2.628   4.444   1.376 -0.5380 -0.0743 -0.4294
18224TIP3   OH276086   0.868   2.988  12.671  0.5514 -0.5027 -0.6553
18224TIP3    H176087   0.780   3.013  12.642 -0.5254 -2.1138  1.0045
18224TIP3    H276088   0.907   3.069  12.702 -0.4107  0.2234 -1.2995
18225TIP3   OH276089   3.835   0.880   2.508 -0.5531  0.0071  0.1878
18225TIP3    H176090   3.800   0.791   2.495  1.0018 -0.6344  0.1879
18225TIP3    H276091   3.780   0.936   2.454 -0.5230 -1.2005 -1.1510
18226TIP3   OH276092   6.730   6.327  12.208  0.5140  0.1476  0.1448
18226TIP3    H176093   6.725   6.241  12.250 -0.6854 -0.0719 -0.3954
18226TIP3    H276094   6.663   6.324  12.139  0.4291  1.5160  0.1330
18227TIP3   OH276095   4.928   1.814  12.000 -0.1012  0.4334  0.5230
18227TIP3    H176096   4.899   1.887  12.055  0.3679  0.8822  0.1806
18227TIP3    H276097   4.952   1.854  11.917  3.6099  0.4609  1.4265
18228TIP3   OH276098   0.961   0.387   5.682 -0.3958 -0.2881  0.1459
18228TIP3    H176099   0.883   0.431   5.715  0.1269  0.5312  0.3380
18228TIP3    H276100   0.954   0.393   5.587 -1.7639 -2.4001  0.0656
18229TIP3   OH276101   6.453   2.861   5.888 -0.0472  0.0450  0.2940
18229TIP3    H176102   6.406   2.920   5.947 -1.9718 -0.3847 -0.7192
18229TIP3    H276103   6.391   2.789   5.873  1.2495 -0.9253 -0.5258
18230TIP3   OH276104   4.297   3.194  13.203 -0.3587  0.0373 -0.6751
18230TIP3    H176105   4.270   3.246  13.279  0.3587  2.2539 -1.8291
18230TIP3    H276106   4.221   3.140  13.182 -1.5828  1.4501 -0.0454
18231TIP3   OH276107   5.886   6.538  13.075  0.4874  0.0314  0.4369
18231TIP3    H176108   5.917   6.573  13.159  1.1633 -0.3179  0.3408
18231TIP3    H276109   5.876   6.615  13.020 -0.8179  0.3623  1.0947
18232TIP3   OH276110   1.184   4.239  15.293 -0.1324 -0.5055  0.1463
18232TIP3    H176111   1.268   4.285  15.301 -0.0031 -0.6228 -0.4655
18232TIP3    H276112   1.208   4.151  15.264 -0.4350 -0.6929  0.4599
18233TIP3   OH276113   5.342   0.404   0.222  0.3739 -0.2658 -0.2063
18233TIP3    H176114   5.433   0.394   0.193  0.8860 -1.3457  1.5854
18233TIP3    H276115   5.299   0.324   0.191  0.3819 -0.3829  0.0790
18234TIP3   OH276116   6.326   4.289   5.774  0.5576  0.0485  0.0570
18234TIP3    H176117   6.398   4.226   5.762  0.0248 -0.3179 -1.3499
18234TIP3    H276118   6.264   4.244   5.831  1.9601  0.8490  2.4044
18235TIP3   OH276119   1.267   6.512   5.708 -0.4994 -0.3213 -0.0572
18235TIP3    H176120   1.294   6.448   5.643  0.6991 -1.2124  1.2493
18235TIP3    H276121   1.213   6.575   5.660  0.6204 -0.7484 -1.9622
18236TIP3   OH276122   0.321   2.520   1.802  0.2916  0.0206  0.1246
18236TIP3    H176123   0.377   2.516   1.879  0.9055 -1.6636 -0.3704
18236TIP3    H276124   0.380   2.505   1.728 -0.4051  0.8509 -0.6278
18237TIP3   OH276125   3.803   0.907   5.664 -0.4460  0.4081  0.0226
18237TIP3    H176126   3.845   0.924   5.579 -1.0302  0.1807 -0.3158
18237TIP3    H276127   3.715   0.944   5.655 -0.0924  1.5577  0.9900
18238TIP3   OH276128   4.181   0.356   2.892  0.4412 -0.0852  0.6823
18238TIP3    H176129   4.261   0.384   2.937  1.3934 -3.0510  1.0583
18238TIP3    H276130   4.175   0.413   2.815  1.7521  1.5233  1.6947
18239TIP3   OH276131   4.600   0.666  12.204  0.2422 -0.2051 -0.4438
18239TIP3    H176132   4.693   0.654  12.225 -0.1218 -1.3185  0.6626
18239TIP3    H276133   4.582   0.756  12.229  0.6597 -0.4600  0.8494
18240TIP3   OH276134   5.594   4.617   4.800  0.7588 -0.1699  0.1477
18240TIP3    H176135   5.613   4.645   4.889 -0.4049  0.0726  0.3258
18240TIP3    H276136   5.501   4.634   4.788  0.6214 -1.3955 -0.6800
18241TIP3   OH276137   1.229   0.596  11.743 -0.5030  0.0335  0.1014
18241TIP3    H176138   1.305   0.542  11.764 -0.5962 -0.7189 -1.3674
18241TIP3    H276139   1.262   0.663  11.683  0.0346  2.9406  3.3198
18242TIP3   OH276140   0.329   1.088   5.536 -0.1165 -0.7897  0.3607
18242TIP3    H176141   0.336   1.151   5.608 -0.0798 -1.8270  1.3015
18242TIP3    H276142   0.294   1.009   5.577 -0.5968 -1.2434 -0.8787
18243TIP3   OH276143   0.930   3.634  13.805  0.0273  0.2370 -0.6937
18243TIP3    H176144   1.019   3.663  13.827  0.1018 -0.4646 -0.0622
18243TIP3    H276145   0.943   3.566  13.739  0.0709 -1.1126  0.6650
18244TIP3   OH276146   2.449   2.420  13.417  0.0405  0.1425  0.0757
18244TIP3    H176147   2.491   2.343  13.453 -1.8546 -0.0558  2.0961
18244TIP3    H276148   2.376   2.438  13.477 -0.5582  2.5386 -1.2300
18245TIP3   OH276149   0.364   5.177  14.856  0.7578 -0.0094 -0.4922
18245TIP3    H176150   0.290   5.161  14.915  0.5706  0.4426 -0.6052
18245TIP3    H276151   0.372   5.096  14.805  1.0933 -0.5175  0.3354
18246TIP3   OH276152   0.415   0.627  11.672 -0.2799 -0.6768 -0.1003
18246TIP3    H176153   0.447   0.604  11.584 -0.0477 -0.5517 -0.0492
18246TIP3    H276154   0.336   0.679  11.655  0.4728  0.4367 -0.2704
18247TIP3   OH276155   6.198   4.396  10.670  0.4243 -0.2457 -0.0786
18247TIP3    H176156   6.227   4.306  10.683  0.0035 -0.4820 -0.7339
18247TIP3    H276157   6.260   4.432  10.607 -0.3234 -0.5671 -1.0202
18248TIP3   OH276158   5.814   2.455  13.944  0.3558 -0.1266  0.4675
18248TIP3    H176159   5.890   2.503  13.975  0.6330 -0.5175  0.3934
18248TIP3    H276160   5.740   2.514  13.958  0.7278  0.4130  0.1537
18249TIP3   OH276161   4.761   5.691  14.409 -0.2159 -0.3933  0.8774
18249TIP3    H176162   4.678   5.735  14.428  0.2039  0.6271  0.3951
18249TIP3    H276163   4.736   5.601  14.389 -0.9539 -0.8513  3.4875
18250TIP3   OH276164   1.167   5.380  15.834  0.2954  0.0058  0.2452
18250TIP3    H176165   1.242   5.334  15.874  0.5159 -0.1316 -0.3218
18250TIP3    H276166   1.122   5.312  15.784  1.1898  0.5967 -1.4243
18251TIP3   OH276167   0.931   1.699   1.842  0.0344 -0.7312 -0.1295
18251TIP3    H176168   0.884   1.621   1.869  0.7172 -1.7165 -1.6448
18251TIP3    H276169   0.982   1.671   1.765 -0.6701  1.5007 -1.5063
18252TIP3   OH276170   2.801   1.404  15.928 -0.2136 -0.5434  0.1360
18252TIP3    H176171   2.777   1.312  15.938 -0.2185 -0.4650  0.8617
18252TIP3    H276172   2.771   1.427  15.840  0.5201 -1.4574 -0.3740
18253TIP3   OH276173   0.048   0.714   2.536 -0.8063  0.3866 -0.0488
18253TIP3    H176174   0.071   0.648   2.601 -1.0252  0.7527  0.4060
18253TIP3    H276175   0.130   0.762   2.521 -0.6569  0.0406 -0.3496
18254TIP3   OH276176   0.349   0.403   5.390 -0.3055 -0.4813 -0.1142
18254TIP3    H176177   0.293   0.341   5.436 -0.1395 -0.7613 -0.2868
18254TIP3    H276178   0.382   0.461   5.458  1.5520 -2.1191  0.4411
18255TIP3   OH276179   5.190   3.224   3.029 -0.0084 -0.0578  0.2779
18255TIP3    H176180   5.264   3.200   3.085 -0.8221  1.2322  2.0430
18255TIP3    H276181   5.147   3.295   3.077 -2.1146 -0.4555 -0.9127
18256TIP3   OH276182   5.086   2.139   3.398  0.1355  0.2151 -0.3049
18256TIP3    H176183   5.053   2.221   3.362 -0.6170  0.5291  1.0335
18256TIP3    H276184   5.180   2.151   3.404 -0.0383  1.3283  0.6419
18257TIP3   OH276185   3.574   1.345   0.200 -0.1826 -0.2565  0.5218
18257TIP3    H176186   3.501   1.306   0.152  0.1008 -1.4960  1.0363
18257TIP3    H276187   3.638   1.369   0.133 -0.3892 -0.6545  0.1798
18258TIP3   OH276188   3.949   6.106   4.585  0.0746 -0.3887  0.0342
18258TIP3    H176189   4.032   6.059   4.574  0.0164 -0.2005 -1.4078
18258TIP3    H276190   3.973   6.185   4.635  0.9864  0.1636 -1.2042
18259TIP3   OH276191   6.645   2.548  12.981  0.2535 -0.2066 -0.2166
18259TIP3    H176192   6.626   2.617  12.918 -0.0872  0.9057  1.0762
18259TIP3    H276193   6.576   2.483  12.967 -1.0015  0.9737  0.3500
18260TIP3   OH276194   2.785   0.971   3.805  0.1453  0.9493 -0.1351
18260TIP3    H176195   2.756   1.024   3.731 -0.7499  0.0752 -0.4374
18260TIP3    H276196   2.845   1.027   3.853  0.4125  1.6896 -1.2881
18261TIP3   OH276197   3.190   5.964  16.206  0.1284  0.1156 -0.4512
18261TIP3    H176198   3.235   5.890  16.166 -1.8141  0.1535 -2.9811
18261TIP3    H276199   3.202   6.036  16.144  2.5260  2.2813  2.2452
18262TIP3   OH276200   3.954   0.572   1.247  0.1062  0.1877 -0.0060
18262TIP3    H176201   4.014   0.634   1.207 -0.5860 -0.1068 -1.5896
18262TIP3    H276202   4.008   0.523   1.309  0.5165  2.7902  1.8759
18263TIP3   OH276203   6.072   2.872  12.261 -0.5397 -0.1444  0.1176
18263TIP3    H176204   6.042   2.841  12.175  1.3056  0.8885 -0.9663
18263TIP3    H276205   6.166   2.852  12.263  0.3810  3.4722  0.1140
18264TIP3   OH276206   1.968   2.163  14.905  0.4064 -0.8777  0.0176
18264TIP3    H176207   1.925   2.101  14.963  1.2468 -0.3147  1.2803
18264TIP3    H276208   2.048   2.189  14.951 -0.2141  1.6183 -0.1268
18265TIP3   OH276209   4.331   4.859   3.282  0.2820  0.3212  0.1340
18265TIP3    H176210   4.313   4.873   3.189  1.6201  0.2672 -0.1485
18265TIP3    H276211   4.415   4.814   3.284 -1.4803 -3.3600  1.2140
18266TIP3   OH276212   1.506   4.358   6.398  0.1769  0.0087 -0.3136
18266TIP3    H176213   1.414   4.334   6.386 -0.0591 -1.2759  2.9909
18266TIP3    H276214   1.516   4.441   6.353 -1.5057 -1.6193 -4.1546
18267TIP3   OH276215   2.799   3.849   0.605 -0.4047  0.2059 -0.5626
18267TIP3    H176216   2.853   3.881   0.533 -2.1783 -1.0813 -2.5810
18267TIP3    H276217   2.720   3.902   0.602 -0.2516  0.5472  0.8642
18268TIP3   OH276218   3.675   6.407   5.956 -0.5785  0.4509 -0.3829
18268TIP3    H176219   3.580   6.422   5.955 -0.6203  0.1826 -0.5099
18268TIP3    H276220   3.691   6.365   6.041 -0.3736  1.7557  0.2431
18269TIP3   OH276221   6.748   6.224   3.689 -0.1364  0.1379 -0.0013
18269TIP3    H176222   6.716   6.301   3.737  0.4642 -0.9607  2.3396
18269TIP3    H276223   6.842   6.221   3.709  0.1619 -0.3318 -1.3892
18270TIP3   OH276224   1.302   1.006   1.936 -0.5111 -0.3562  0.4499
18270TIP3    H176225   1.302   0.967   1.848  2.1439  0.6810 -0.1107
18270TIP3    H276226   1.332   0.935   1.993 -3.5891 -1.4631  0.8485
18271TIP3   OH276227   0.443   4.773  15.463 -0.2016 -0.2964  0.0930
18271TIP3    H176228   0.370   4.719  15.496 -0.0124 -0.4508  0.2661
18271TIP3    H276229   0.489   4.716  15.402 -1.6976  0.6272 -2.0070
18272TIP3   OH276230   2.896   2.033   5.800  0.4618  0.4546 -0.3953
18272TIP3    H176231   2.875   2.039   5.893 -0.7498  1.0223 -0.6841
18272TIP3    H276232   2.916   2.123   5.774 -0.3535  0.4910 -0.9271
18273TIP3   OH276233   3.144   5.867   4.890 -0.2593  0.1449 -0.3838
18273TIP3    H176234   3.073   5.858   4.826 -0.3819  4.4199 -1.1068
18273TIP3    H276235   3.101   5.903   4.968  0.8493  1.0458 -0.1752
18274TIP3   OH276236   0.799   0.121  13.127 -0.3963  0.4478 -0.0301
18274TIP3    H176237   0.704   0.132  13.125 -0.6699 -1.2563  0.9972
18274TIP3    H276238   0.813   0.039  13.176  1.4303 -1.0839 -2.7806
18275TIP3   OH276239   1.087   1.606   4.274 -0.2959 -0.1059  0.6423
18275TIP3    H176240   1.116   1.689   4.236 -0.2603 -0.7903 -0.9098
18275TIP3    H276241   1.008   1.628   4.324  0.1945  0.9837  0.9730
18276TIP3   OH276242   3.774   3.859   1.955 -0.0934  0.1957 -0.2257
18276TIP3    H176243   3.845   3.855   1.892 -0.9642  1.2652 -1.3201
18276TIP3    H276244   3.717   3.786   1.932  0.5933 -0.6306  0.6195
18277TIP3   OH276245   4.762   6.573  14.578 -0.2165 -0.0242  0.2797
18277TIP3    H176246   4.765   6.510  14.649 -1.6167  0.4597  0.8017
18277TIP3    H276247   4.845   6.561  14.531  1.0128  0.0327  2.3086
18278TIP3   OH276248   4.969   5.041   0.847  0.6832 -0.1434  0.1075
18278TIP3    H176249   4.989   4.982   0.919 -1.6344 -0.4605  0.5631
18278TIP3    H276250   4.966   5.128   0.886 -2.0548 -0.4575  0.8468
18279TIP3   OH276251   0.805   5.986   5.594  0.5544  0.6427 -0.4787
18279TIP3    H176252   0.776   5.949   5.677 -0.1638  2.4461  0.1425
18279TIP3    H276253   0.771   6.076   5.595 -0.1976  0.4785 -3.1026
18280TIP3   OH276254   2.543   5.385  13.564  0.2027 -0.2217  0.6591
18280TIP3    H176255   2.630   5.369  13.527 -0.9135  0.8208 -2.8144
18280TIP3    H276256   2.502   5.298  13.563 -0.1998 -0.0898 -2.0000
18281TIP3   OH276257   5.620   4.235  13.317 -0.2153 -0.0827  0.2546
18281TIP3    H176258   5.705   4.243  13.274 -0.8913  0.6584 -0.9843
18281TIP3    H276259   5.617   4.143  13.344 -0.4522 -1.1126 -2.8591
18282TIP3   OH276260   6.249   2.244   5.105  0.3256  0.4183 -0.0515
18282TIP3    H176261   6.333   2.270   5.067 -0.0039  1.4872 -0.0730
18282TIP3    H276262   6.196   2.323   5.102 -1.1382 -0.5512 -1.2223
18283TIP3   OH276263   6.735   2.319  11.312  0.0730  0.1606  0.2745
18283TIP3    H176264   6.708   2.270  11.234 -0.9733 -0.6057  1.0763
18283TIP3    H276265   6.823   2.349  11.293  0.2334 -0.9255 -0.7885
18284TIP3   OH276266   1.440   5.829  13.720 -0.0973  0.5636  0.1373
18284TIP3    H176267   1.351   5.860  13.730 -0.3399 -0.2040  0.4189
18284TIP3    H276268   1.435   5.735  13.737  0.7323  0.4833 -0.0096
18285TIP3   OH276269   1.390   0.493   3.073 -0.1007  0.0303 -0.3466
18285TIP3    H176270   1.355   0.568   3.024 -0.8609 -0.0907 -0.0016
18285TIP3    H276271   1.407   0.426   3.006  1.9190  0.9678 -0.8513
18286TIP3   OH276272   0.201   3.432   5.697  0.7483 -0.3958 -0.2577
18286TIP3    H176273   0.153   3.349   5.694 -1.2797  0.7157 -0.3671
18286TIP3    H276274   0.221   3.451   5.606  0.2503 -0.2496 -0.3401
18287TIP3   OH276275   6.170   1.985  15.799 -1.0139 -0.2829 -0.1590
18287TIP3    H176276   6.210   2.027  15.723  0.4445 -0.7945  0.2794
18287TIP3    H276277   6.104   1.927  15.763  0.8966 -1.9108 -1.2463
18288TIP3   OH276278   1.415   1.889  16.991  0.4775  0.0666 -0.6373
18288TIP3    H176279   1.450   1.812  17.037  1.6800  0.7936 -0.3109
18288TIP3    H276280   1.331   1.859  16.957  1.0323 -1.4787 -0.7281
18289TIP3   OH276281   3.157   5.951  13.549  0.0611 -0.5879 -0.7311
18289TIP3    H176282   3.155   5.955  13.645  0.9485  0.0832 -0.7259
18289TIP3    H276283   3.065   5.947  13.523 -0.2608  0.6963  0.1085
18290TIP3   OH276284   6.187   4.408  12.854 -0.0441  0.3410  0.5292
18290TIP3    H176285   6.135   4.328  12.850  0.8786 -0.2425 -0.7067
18290TIP3    H276286   6.159   4.459  12.778  2.7060 -1.0508 -1.6249
18291TIP3   OH276287   4.932   3.872   4.865 -0.2647  0.5370  0.4402
18291TIP3    H176288   4.923   3.814   4.790 -1.9528  0.7298  0.4428
18291TIP3    H276289   4.868   3.839   4.929 -0.2935  1.5815  0.9787
18292TIP3   OH276290   3.075   0.583  12.517 -0.0813  0.2808  0.0325
18292TIP3    H176291   3.019   0.644  12.467 -0.8033  1.7120  2.4290
18292TIP3    H276292   3.147   0.563  12.457 -0.9402  1.8034 -1.6196
18293TIP3   OH276293   3.730   0.372   1.220  0.4857  0.1554 -0.3280
18293TIP3    H176294   3.719   0.456   1.175 -1.4425 -0.2273 -0.6530
18293TIP3    H276295   3.677   0.381   1.299  1.0352 -0.4354  0.1204
18294TIP3   OH276296   1.283   2.031   5.414 -0.3312 -0.0550 -0.1601
18294TIP3    H176297   1.269   1.992   5.500  0.4391 -2.0454 -0.8759
18294TIP3    H276298   1.376   2.052   5.412 -0.4505  0.4814 -0.3296
18295TIP3   OH276299   0.056   3.176   2.946 -0.0602 -0.4021  0.1125
18295TIP3    H176300   0.026   3.139   2.863  1.0511 -1.5255  0.1900
18295TIP3    H276301   0.130   3.232   2.921 -0.2874 -0.0331  0.2583
18296TIP3   OH276302   6.292   2.195   5.898 -0.0665 -0.1752  0.0017
18296TIP3    H176303   6.321   2.280   5.866 -0.2484  0.9549  2.5782
18296TIP3    H276304   6.196   2.199   5.894 -0.0817 -0.1528  0.3827
18297TIP3   OH276305   2.765   5.322   0.240  0.4830 -0.9377 -0.2360
18297TIP3    H176306   2.725   5.335   0.326  0.3819  0.3985 -0.4656
18297TIP3    H276307   2.696   5.283   0.187 -0.3432  0.6757 -0.4264
18298TIP3   OH276308   0.893   4.376  12.078 -0.2888  0.4301  0.2368
18298TIP3    H176309   0.854   4.349  11.995 -1.4979  1.3711  0.4766
18298TIP3    H276310   0.953   4.305  12.100  0.2392  0.2725 -1.5456
18299TIP3   OH276311   1.379   5.589   2.123  0.0953 -0.4490  0.2698
18299TIP3    H176312   1.361   5.515   2.180 -0.5082 -1.1069 -0.7344
18299TIP3    H276313   1.299   5.600   2.072  0.4380  0.4364 -0.1014
18300TIP3   OH276314   4.262   3.857  11.939 -0.2049  0.3832  0.0159
18300TIP3    H176315   4.292   3.785  11.995 -0.2428  0.5205  0.2154
18300TIP3    H276316   4.319   3.852  11.862  0.9032  1.1435  0.7427
18301TIP3   OH276317   6.439   6.669   3.430  0.3376  0.2165  0.0270
18301TIP3    H176318   6.404   6.704   3.513  1.3075 -2.0872  1.5026
18301TIP3    H276319   6.521   6.626   3.455  1.1046  0.1684 -2.3160
18302TIP3   OH276320   2.305   2.518   3.351 -0.6320 -0.4850  0.3048
18302TIP3    H176321   2.325   2.448   3.289 -2.0951  0.7098 -1.6310
18302TIP3    H276322   2.211   2.534   3.341 -0.3209  1.8688  0.5294
18303TIP3   OH276323   3.361   1.565  11.751  0.0735 -0.0808  0.3676
18303TIP3    H176324   3.409   1.547  11.832 -0.5804  2.2186  1.3600
18303TIP3    H276325   3.372   1.659  11.737 -2.7451  0.2702 -0.2379
18304TIP3   OH276326   1.110   4.778  15.811  0.1392 -0.8564  0.0154
18304TIP3    H176327   1.029   4.762  15.763  0.0104  0.0940 -0.0934
18304TIP3    H276328   1.153   4.692  15.815 -0.5401 -1.2278 -0.5215
18305TIP3   OH276329   4.308   1.544   3.192  0.2343 -0.0731  0.2253
18305TIP3    H176330   4.354   1.530   3.275  0.9471 -2.4946 -0.4761
18305TIP3    H276331   4.320   1.461   3.144 -2.4438  0.2553 -1.1973
18306TIP3   OH276332   6.747   5.539   6.051 -0.5482 -0.9921  0.5789
18306TIP3    H176333   6.669   5.591   6.072  1.3863  2.0324  0.9354
18306TIP3    H276334   6.785   5.518   6.136  0.2613 -0.3270  0.3960
18307TIP3   OH276335   1.533   5.058  12.109 -0.1211 -0.5029  0.3226
18307TIP3    H176336   1.467   5.127  12.113 -0.3560 -0.6356 -0.8591
18307TIP3    H276337   1.495   4.985  12.159 -1.0386 -0.6941 -0.6069
18308TIP3   OH276338   4.104   1.064   0.528 -0.2558  0.4269  0.2167
18308TIP3    H176339   4.177   1.022   0.483 -0.6713  0.0947 -0.1550
18308TIP3    H276340   4.141   1.091   0.612 -0.5706 -3.1875  1.7350
18309TIP3   OH276341   2.192   4.773  16.422 -0.1133 -0.4888  0.1830
18309TIP3    H176342   2.155   4.786  16.510 -1.9826 -0.7464 -0.5179
18309TIP3    H276343   2.124   4.726  16.374  0.3995  0.6282 -1.7458
18310TIP3   OH276344   1.300   3.512  15.175  0.3364  0.0193  0.2244
18310TIP3    H176345   1.309   3.424  15.211 -1.2069 -1.1723 -2.0887
18310TIP3    H276346   1.234   3.554  15.230  1.9280  0.2428  2.0804
18311TIP3   OH276347   1.268   4.322  16.910 -0.0677  0.1862 -0.4615
18311TIP3    H176348   1.316   4.402  16.932 -0.0008  0.0238 -0.0193
18311TIP3    H276349   1.193   4.322  16.971 -1.1105  0.8815 -1.6905
18312TIP3   OH276350   3.767   0.439   3.599  0.5195 -0.0243  0.1351
18312TIP3    H176351   3.795   0.350   3.577  3.1895  1.6397 -4.6876
18312TIP3    H276352   3.848   0.484   3.623 -0.8780  1.1184  3.2281
18313TIP3   OH276353   2.629   3.289   5.898 -0.0440 -0.0179 -0.9668
18313TIP3    H176354   2.625   3.368   5.844  0.2451  0.0612 -0.8779
18313TIP3    H276355   2.543   3.283   5.939  0.4070  1.1215  0.2365
18314TIP3   OH276356   0.398   6.237   2.483  0.3606 -0.2865 -0.0401
18314TIP3    H176357   0.466   6.191   2.434  1.3540  2.4281 -1.4196
18314TIP3    H276358   0.324   6.241   2.423  0.7128  0.8913 -0.4284
18315TIP3   OH276359   3.753   4.697  11.705  0.5044 -0.2182 -0.4945
18315TIP3    H176360   3.795   4.618  11.670 -2.6602 -1.7299 -1.2551
18315TIP3    H276361   3.710   4.737  11.629 -0.4813  0.5314  0.4286
18316TIP3   OH276362   4.804   1.778  13.465  0.3044 -0.0557 -0.1980
18316TIP3    H176363   4.794   1.785  13.370 -0.6447  0.3132 -0.0774
18316TIP3    H276364   4.811   1.868  13.496 -3.9587  0.2323  0.5208
18317TIP3   OH276365   3.734   4.252  17.064 -0.0234 -0.1614 -0.2639
18317TIP3    H176366   3.752   4.220  17.152  1.9427  1.9125  0.2044
18317TIP3    H276367   3.759   4.345  17.067 -0.9483  0.2489 -2.7243
18318TIP3   OH276368   1.021   1.575  14.113 -0.0256  0.3346  0.2928
18318TIP3    H176369   1.000   1.631  14.038  0.4012 -0.0120 -0.0910
18318TIP3    H276370   1.009   1.486  14.081 -1.1017  0.2020  1.0219
18319TIP3   OH276371   5.310   2.728   6.049 -0.0702 -0.0445  0.0982
18319TIP3    H176372   5.304   2.696   5.959  0.5438  0.6622 -0.2020
18319TIP3    H276373   5.221   2.756   6.070 -0.5463 -1.5602  0.2424
18320TIP3   OH276374   0.362   3.239   3.314 -0.0516  0.3583  0.0028
18320TIP3    H176375   0.370   3.326   3.274 -1.0798  1.1835  1.5048
18320TIP3    H276376   0.276   3.207   3.285  0.9650 -0.8926 -1.8314
18321TIP3   OH276377   0.543   3.275  16.098  0.6434 -0.1529 -0.0304
18321TIP3    H176378   0.485   3.205  16.127  1.1954 -0.8607 -0.5880
18321TIP3    H276379   0.559   3.256  16.005  0.3826  1.0127 -0.3302
18322TIP3   OH276380   5.427   5.067  14.146  0.2485  0.5966  0.1354
18322TIP3    H176381   5.398   5.142  14.094  0.3346  0.9154  0.5379
18322TIP3    H276382   5.399   4.990  14.097 -0.6019  0.8966  0.1385
18323TIP3   OH276383   2.031   0.634  14.551  0.0737 -0.2816  0.3703
18323TIP3    H176384   1.942   0.661  14.529 -0.1890 -0.0238  1.6663
18323TIP3    H276385   2.019   0.558  14.609  0.7393 -1.0988 -0.5307
18324TIP3   OH276386   0.355   4.461   0.788  0.0752 -0.1442 -0.0288
18324TIP3    H176387   0.415   4.437   0.717  1.7694 -0.4972  1.4562
18324TIP3    H276388   0.334   4.378   0.830  1.2023  0.2778  1.4560
18325TIP3   OH276389   5.183   4.431   1.818  0.1916  0.4718  0.3145
18325TIP3    H176390   5.277   4.438   1.835  0.2325 -0.3198  0.4659
18325TIP3    H276391   5.158   4.346   1.856 -0.3000  0.0195 -0.9612
18326TIP3   OH276392   4.310   4.527   2.225  0.0001  0.4085 -0.5563
18326TIP3    H176393   4.306   4.582   2.304  1.4530  0.2870 -0.3641
18326TIP3    H276394   4.276   4.583   2.155 -0.1652  0.9409 -0.0656
18327TIP3   OH276395   4.427   3.540  15.956  0.0526 -0.0731 -0.3247
18327TIP3    H176396   4.381   3.621  15.977  0.6107  0.2126 -0.1673
18327TIP3    H276397   4.500   3.568  15.901 -0.2266 -0.5754 -0.9599
18328TIP3   OH276398   3.658   2.632   4.557 -0.2553 -0.3147  0.1246
18328TIP3    H176399   3.594   2.691   4.596  0.4296  0.9992 -0.6652
18328TIP3    H276400   3.679   2.672   4.473  0.0157 -1.8555 -0.5746
18329TIP3   OH276401   1.303   3.711   3.065  0.7473  0.2296  1.0669
18329TIP3    H176402   1.336   3.693   3.153 -0.6108  1.7347  1.9239
18329TIP3    H276403   1.376   3.756   3.021  0.0719  3.3686  2.8831
18330TIP3   OH276404   0.555   6.589  14.233  0.0466 -0.6585 -0.2838
18330TIP3    H176405   0.621   6.619  14.296  0.6790  0.5053 -1.4575
18330TIP3    H276406   0.575   6.497  14.218  1.0147 -0.4687 -0.1730
18331TIP3   OH276407   4.159   6.070  11.458  0.2923  0.0686  0.1621
18331TIP3    H176408   4.192   6.130  11.525 -0.0462 -0.3377  0.7039
18331TIP3    H276409   4.120   6.126  11.392 -0.1244  0.4436  0.7228
18332TIP3   OH276410   0.744   2.093  11.662 -0.5308 -0.4880 -0.7076
18332TIP3    H176411   0.758   2.175  11.710  1.2156 -1.5823  0.7561
18332TIP3    H276412   0.727   2.121  11.572 -1.4894  1.5275  0.0354
18333TIP3   OH276413   6.261   4.850  13.358 -0.5119 -0.5849  0.3795
18333TIP3    H176414   6.187   4.910  13.371  0.0059  0.3196 -0.6563
18333TIP3    H276415   6.246   4.812  13.271  0.3518 -0.2054  0.0528
18334TIP3   OH276416   2.526   3.335  15.094 -0.0505 -0.6387 -0.6010
18334TIP3    H176417   2.584   3.393  15.045  1.7321 -3.6859 -2.3739
18334TIP3    H276418   2.448   3.327  15.040 -0.9005  1.0263  0.2966
18335TIP3   OH276419   2.528   3.743  16.390  0.2054 -0.2834 -0.4401
18335TIP3    H176420   2.527   3.816  16.452  0.5172 -0.6924  0.0601
18335TIP3    H276421   2.502   3.667  16.443 -2.1654 -0.2010 -1.4041
18336TIP3   OH276422   1.135   1.217  12.193  0.1400 -0.0766  0.2948
18336TIP3    H176423   1.124   1.155  12.121  0.3786  1.5683 -1.2557
18336TIP3    H276424   1.224   1.202  12.224  1.3316  1.3769 -2.0767
18337TIP3   OH276425   5.348   2.104   3.341 -0.3444  0.7125 -0.5399
18337TIP3    H176426   5.438   2.106   3.373 -0.2540  0.8987 -0.8001
18337TIP3    H276427   5.323   2.011   3.343 -0.3746  0.7281  0.1499
18338TIP3   OH276428   1.176   6.193   4.079  0.7563  0.0573  0.7522
18338TIP3    H176429   1.145   6.276   4.044  1.5116  0.0180 -0.0638
18338TIP3    H276430   1.255   6.174   4.027 -0.5023 -2.1665 -0.4881
18339TIP3   OH276431   0.545   6.662   4.850  0.1762 -0.0843 -0.2944
18339TIP3    H176432   0.630   6.704   4.855 -0.0966  0.6143 -1.1551
18339TIP3    H276433   0.483   6.729   4.880  0.0214 -1.0512  1.7427
18340TIP3   OH276434   6.018   3.197   4.684 -0.4579 -0.0957 -0.4958
18340TIP3    H176435   6.003   3.126   4.623 -0.2164  0.1924 -0.8903
18340TIP3    H276436   5.968   3.172   4.762 -2.6617  0.5938 -1.5966
18341TIP3   OH276437   2.976   1.911  14.177  0.6740  0.0505 -0.0254
18341TIP3    H176438   3.050   1.853  14.161 -0.4049 -1.4598  0.2713
18341TIP3    H276439   2.900   1.862  14.147 -0.4136  0.7867  1.3820
18342TIP3   OH276440   1.028   0.150  14.997  0.2488 -0.2682  0.2186
18342TIP3    H176441   1.014   0.057  15.017  2.0621 -0.4518  0.8219
18342TIP3    H276442   1.032   0.153  14.901  0.0470 -0.7969  0.1911
18343TIP3   OH276443   5.412   4.033   3.067  0.3531 -0.7030  0.3762
18343TIP3    H176444   5.360   3.953   3.073 -0.4448 -0.1378  1.4688
18343TIP3    H276445   5.503   4.003   3.061  0.0580 -1.6919  0.6522
18344TIP3   OH276446   1.269   4.954   6.571  0.0198 -0.0364  0.1909
18344TIP3    H176447   1.302   5.010   6.501 -0.6627 -0.7132 -0.6978
18344TIP3    H276448   1.342   4.945   6.632  0.8054  0.1237 -0.7128
18345TIP3   OH276449   5.650   4.399   3.919  0.4482 -0.6794 -0.2830
18345TIP3    H176450   5.568   4.429   3.881 -0.7169 -1.2584  1.6146
18345TIP3    H276451   5.701   4.479   3.933  0.6287 -0.3984 -2.3047
18346TIP3   OH276452   2.922   4.163  13.084  0.2684  0.2986  0.1678
18346TIP3    H176453   2.934   4.103  13.158 -1.7763  0.5370  0.7416
18346TIP3    H276454   2.989   4.137  13.021 -0.5416 -2.6401  0.3870
18347TIP3   OH276455   1.848   3.577   5.725 -0.3355 -0.8567  0.0093
18347TIP3    H176456   1.922   3.626   5.763 -0.8811 -0.3186  0.4191
18347TIP3    H276457   1.785   3.571   5.797 -2.0841  1.5546 -1.1610
18348TIP3   OH276458   5.271   0.436  11.050  0.4138  0.6166 -0.3218
18348TIP3    H176459   5.203   0.378  11.086 -0.0266  2.0078  1.1901
18348TIP3    H276460   5.244   0.450  10.959  0.0875 -0.8831 -0.4867
18349TIP3   OH276461   4.996   3.668  11.908 -0.0559  0.3116  0.2811
18349TIP3    H176462   5.082   3.706  11.924 -0.2926  0.2939  1.8065
18349TIP3    H276463   4.988   3.664  11.813  0.9292  1.8987  0.0999
18350TIP3   OH276464   0.727   1.790  10.586 -0.2278 -0.1338 -0.5696
18350TIP3    H176465   0.641   1.825  10.561 -0.6767 -0.2063  0.7787
18350TIP3    H276466   0.774   1.865  10.622  0.4484 -0.0079 -1.6544
18351TIP3   OH276467   2.352   6.448   1.143  0.6246 -0.3448 -0.4321
18351TIP3    H176468   2.401   6.515   1.096  0.2465 -0.4362 -0.9683
18351TIP3    H276469   2.404   6.368   1.130  0.0753 -0.5578 -1.4675
18352TIP3   OH276470   2.890   4.554   0.280  0.3472 -0.1653 -0.6368
18352TIP3    H176471   2.870   4.476   0.228  0.4174  1.8355 -3.9596
18352TIP3    H276472   2.982   4.545   0.303  0.3000 -1.1310 -0.7940
18353TIP3   OH276473   3.242   2.684  11.500  0.3441  0.3170  1.0286
18353TIP3    H176474   3.298   2.708  11.427  0.4825  1.5345  1.5191
18353TIP3    H276475   3.276   2.600  11.530  1.1022  0.4359  0.5198
18354TIP3   OH276476   0.080   4.108  16.073  0.4264 -0.4845  0.0947
18354TIP3    H176477   0.040   4.038  16.022 -2.3346 -0.1384  1.5929
18354TIP3    H276478   0.121   4.164  16.008  0.1999 -1.9502 -1.3902
18355TIP3   OH276479   6.096   5.063  11.138  0.0048 -0.1700  0.0013
18355TIP3    H176480   6.009   5.100  11.129 -0.7898 -1.0758  2.8429
18355TIP3    H276481   6.130   5.101  11.220  1.7404 -0.8422 -0.3549
18356TIP3   OH276482   1.100   4.478  13.532 -0.0120  0.4147 -0.1685
18356TIP3    H176483   1.154   4.499  13.456 -0.5473 -0.8200 -0.9225
18356TIP3    H276484   1.033   4.419  13.498 -1.3209  1.2173  0.9143
18357TIP3   OH276485   1.352   0.449   2.361  0.0818  0.2462  0.0379
18357TIP3    H176486   1.311   0.434   2.276  1.1384  1.2085 -0.6787
18357TIP3    H276487   1.333   0.540   2.382  0.5500  0.2647  0.4122
18358TIP3   OH276488   3.747   4.672  11.195 -0.2050  0.3444  0.1752
18358TIP3    H176489   3.786   4.642  11.113 -0.2734  0.0565  0.2459
18358TIP3    H276490   3.686   4.602  11.219 -0.4848  0.6159  0.2592
18359TIP3   OH276491   4.852   6.227  12.797  0.2821 -0.3662 -0.2169
18359TIP3    H176492   4.788   6.187  12.738  0.4612  0.2336 -0.8501
18359TIP3    H276493   4.886   6.155  12.849 -0.1306 -0.8650 -0.6222
18360TIP3   OH276494   2.576   6.244   5.349 -0.3590 -0.3949 -0.0565
18360TIP3    H176495   2.555   6.172   5.290  0.1092 -2.4950  2.1890
18360TIP3    H276496   2.503   6.246   5.411 -0.4679  1.2436 -0.1946
18361TIP3   OH276497   5.388   3.520   5.305  0.0919  0.8309  0.6589
18361TIP3    H176498   5.396   3.439   5.355  1.4598  1.9948  2.4568
18361TIP3    H276499   5.453   3.511   5.235  1.7077  1.1440  2.0569
18362TIP3   OH276500   6.325   3.355   0.726 -0.6150  0.3143  0.1446
18362TIP3    H176501   6.306   3.329   0.816 -0.7718  0.0280  0.0306
18362TIP3    H276502   6.405   3.407   0.732  2.0073 -3.2917  0.0113
18363TIP3   OH276503   6.263   0.797   5.365 -0.6329  0.2062 -0.0987
18363TIP3    H176504   6.264   0.763   5.455 -1.4267  0.4621  0.0107
18363TIP3    H276505   6.275   0.891   5.375  0.4546  0.1172 -0.3437
18364TIP3   OH276506   4.133   4.108   5.309  0.0267 -0.3020  0.4532
18364TIP3    H176507   4.171   4.150   5.386 -0.3069  0.2142  0.3341
18364TIP3    H276508   4.123   4.178   5.245  0.4856 -0.7582 -0.1411
18365TIP3   OH276509   2.331   1.971   2.473  0.6993 -0.3637 -0.7915
18365TIP3    H176510   2.306   1.920   2.396  1.4121 -0.9152 -0.6718
18365TIP3    H276511   2.345   1.905   2.542 -2.1157  0.2253  0.4862
18366TIP3   OH276512   2.645   0.870  16.520 -0.5544 -0.0682 -0.1456
18366TIP3    H176513   2.582   0.893  16.451  0.6132 -0.9287 -1.5577
18366TIP3    H276514   2.590   0.854  16.597 -1.8028  2.1085 -0.4887
18367TIP3   OH276515   2.585   3.721   5.208 -0.2798  0.2005 -0.1035
18367TIP3    H176516   2.651   3.756   5.269 -1.9510  1.2604  1.2055
18367TIP3    H276517   2.629   3.648   5.164  1.9891  1.3092  0.1590
18368TIP3   OH276518   4.898   3.422   2.792  0.2125 -0.1737 -0.2776
18368TIP3    H176519   4.828   3.371   2.833  0.5272 -0.0259  0.4682
18368TIP3    H276520   4.859   3.507   2.774  0.4372  0.2153  0.9724
18369TIP3   OH276521   4.848   6.088   0.039 -0.4005 -0.6623 -0.0476
18369TIP3    H176522   4.843   6.087   0.135 -2.3465 -2.1194 -0.0888
18369TIP3    H276523   4.800   6.009   0.012  2.1172 -1.6102 -2.1879
18370TIP3   OH276524   2.136   6.420  16.713  0.0023 -0.4498  0.4625
18370TIP3    H176525   2.099   6.334  16.692 -0.4901 -0.3460  0.8999
18370TIP3    H276526   2.094   6.445  16.795 -0.5209  0.6073 -0.1039
18371TIP3   OH276527   0.940   6.341  16.318 -0.0688 -0.1122  0.1548
18371TIP3    H176528   0.997   6.411  16.286  1.5293 -1.8814 -1.0932
18371TIP3    H276529   0.977   6.261  16.281 -1.9639 -1.6215  1.3220
18372TIP3   OH276530   3.437   0.601  17.085  0.3943 -0.0119 -0.0627
18372TIP3    H176531   3.451   0.643  17.000  1.1876  1.1123  0.5981
18372TIP3    H276532   3.405   0.672  17.141 -1.7166 -1.0950  0.1789
18373TIP3   OH276533   5.385   0.262   2.747  0.2423  0.5785 -0.6170
18373TIP3    H176534   5.434   0.180   2.749 -2.1982 -0.9954  1.2420
18373TIP3    H276535   5.444   0.328   2.783  1.7426 -0.6835 -0.7205
18374TIP3   OH276536   6.652   6.623   5.489 -0.2549  0.9705  0.5625
18374TIP3    H176537   6.683   6.654   5.404 -0.5244  1.0234  0.4811
18374TIP3    H276538   6.618   6.535   5.471 -1.9238  1.6363  0.2462
18375TIP3   OH276539   0.150   3.809  14.039 -0.4418 -0.0312  0.3689
18375TIP3    H176540   0.180   3.828  14.128  2.7466  0.6966 -0.7459
18375TIP3    H276541   0.192   3.726  14.017 -1.5722 -0.4452 -0.3337
18376TIP3   OH276542   3.874   1.391  13.187 -0.3253  0.6203  0.0991
18376TIP3    H176543   3.870   1.303  13.223 -0.1954  0.2318 -0.8171
18376TIP3    H276544   3.791   1.432  13.213  0.1523  0.6705  1.6185
18377TIP3   OH276545   6.022   2.103   3.467 -0.4846 -0.1403 -0.1057
18377TIP3    H176546   5.936   2.063   3.456 -0.0252 -1.1659 -0.1158
18377TIP3    H276547   6.074   2.035   3.510  0.6719 -0.0016 -1.2402
18378TIP3   OH276548   5.448   6.235   4.083  0.1753  0.2093 -0.2271
18378TIP3    H176549   5.534   6.228   4.041  1.2574  0.6948  1.7976
18378TIP3    H276550   5.462   6.296   4.156 -1.8094 -0.0016  0.3786
18379TIP3   OH276551   5.812   5.956   1.117  0.4068 -0.1223 -0.3589
18379TIP3    H176552   5.735   6.001   1.082  2.5743  1.7657 -3.2035
18379TIP3    H276553   5.850   5.911   1.042  2.6453 -0.0799  0.6662
18380TIP3   OH276554   0.505   4.429   2.083  0.0501 -0.1532 -0.8043
18380TIP3    H176555   0.535   4.512   2.045  2.0265 -0.6467 -0.4347
18380TIP3    H276556   0.461   4.455   2.163 -1.0512  0.6510 -1.6361
18381TIP3   OH276557   6.043   0.175   5.092  0.5815  0.4812  0.2951
18381TIP3    H176558   6.048   0.135   5.179  1.3316  2.3521  1.1628
18381TIP3    H276559   5.990   0.114   5.041  0.6565 -0.9861  1.8680
18382TIP3   OH276560   5.931   0.846   3.385 -0.7334  0.3072 -0.0395
18382TIP3    H176561   5.932   0.787   3.309  3.0197  0.9166 -0.6346
18382TIP3    H276562   5.878   0.920   3.357  0.8188  0.6646 -2.3076
18383TIP3   OH276563   2.773   1.137  12.695 -0.1329 -0.5946  0.3450
18383TIP3    H176564   2.747   1.179  12.613  1.4233 -0.5726 -0.1778
18383TIP3    H276565   2.864   1.110  12.680  0.9888  1.3723  2.8073
18384TIP3   OH276566   2.018   5.672   6.813 -0.4179 -0.5466  0.5514
18384TIP3    H176567   1.936   5.675   6.762 -0.9390  0.4490  1.4104
18384TIP3    H276568   2.073   5.610   6.765 -0.8871  0.3222 -1.2333
18385TIP3   OH276569   6.173   3.450   6.749  0.2732 -0.2687 -0.1257
18385TIP3    H176570   6.253   3.400   6.733 -0.1271 -1.1817  0.6193
18385TIP3    H276571   6.135   3.465   6.663  0.5296 -1.0429 -0.3720
18386TIP3   OH276572   1.958   4.292   5.524 -0.1336  0.0822  0.2846
18386TIP3    H176573   1.942   4.230   5.453 -0.0176 -0.7596  0.9845
18386TIP3    H276574   1.951   4.240   5.604 -0.6471  1.0970  0.9156
18387TIP3   OH276575   0.376   1.635   3.035 -0.4860  0.6327 -0.0305
18387TIP3    H176576   0.325   1.717   3.028 -0.1845  0.7715 -0.6781
18387TIP3    H276577   0.410   1.621   2.946  0.3653  0.3825  0.3323
18388TIP3   OH276578   6.539   3.143  11.535 -0.1137 -0.4998  0.0709
18388TIP3    H176579   6.541   3.238  11.544 -0.2364 -0.4721 -0.1957
18388TIP3    H276580   6.513   3.128  11.445 -0.3441 -0.7886  0.1835
18389TIP3   OH276581   3.002   5.080   1.813 -0.0692  0.3659 -0.1232
18389TIP3    H176582   2.960   5.075   1.727  0.0309  0.5508 -0.1838
18389TIP3    H276583   3.034   5.170   1.818 -0.3746  0.4527  0.2525
18390TIP3   OH276584   0.969   3.886   4.069 -0.3589  0.5984 -0.2744
18390TIP3    H176585   1.005   3.823   4.130 -0.3014 -0.2392 -1.1521
18390TIP3    H276586   0.874   3.879   4.079 -0.3334  1.1211  0.3638
18391TIP3   OH276587   4.489   2.928  12.573  0.3032  0.0355 -0.0856
18391TIP3    H176588   4.546   2.945  12.498  1.9750 -4.5921 -0.1467
18391TIP3    H276589   4.424   2.865  12.540 -3.1695  2.7907  0.8349
18392TIP3   OH276590   4.949   2.714  13.997 -0.0876 -0.1187  0.1182
18392TIP3    H176591   4.864   2.679  14.020  0.3148 -0.2571  1.4432
18392TIP3    H276592   5.007   2.687  14.068  0.7867  1.0696 -0.1147
18393TIP3   OH276593   5.845   0.296   4.595 -0.5658 -0.1355 -0.4291
18393TIP3    H176594   5.919   0.295   4.655 -1.3080  1.2824  0.5544
18393TIP3    H276595   5.883   0.270   4.511  1.3265  1.6303 -0.2198
18394TIP3   OH276596   2.695   2.316  16.484  0.4853  0.1237 -0.1565
18394TIP3    H176597   2.605   2.305  16.454  0.6972 -0.8037 -0.4677
18394TIP3    H276598   2.748   2.276  16.416  1.2212  1.7774 -0.6043
18395TIP3   OH276599   5.232   4.649  11.133 -0.3898 -0.0419 -0.7537
18395TIP3    H176600   5.161   4.709  11.111 -0.7783 -0.4409 -0.5933
18395TIP3    H276601   5.271   4.687  11.212 -0.2752  0.2968 -0.9673
18396TIP3   OH276602   0.180   4.833  12.058 -0.3567  1.0610  0.0749
18396TIP3    H176603   0.124   4.844  12.134 -1.5091  1.1129 -0.7537
18396TIP3    H276604   0.263   4.801  12.093 -1.2216  0.0257  1.2307
18397TIP3   OH276605   4.517   5.050  12.366 -0.5620  0.0439  0.1323
18397TIP3    H176606   4.467   4.982  12.320  0.6420 -0.3061 -0.7102
18397TIP3    H276607   4.458   5.125  12.369 -1.2331 -0.4337 -0.6166
18398TIP3   OH276608   3.080   4.301   5.342  0.1153 -0.0343 -0.0625
18398TIP3    H176609   3.077   4.253   5.424  2.3782  0.3393  0.3142
18398TIP3    H276610   3.003   4.272   5.294  0.3482 -2.5570  0.9540
18399TIP3   OH276611   1.174   0.752   4.340  0.0988  0.2463 -0.0563
18399TIP3    H176612   1.117   0.741   4.264  1.3320 -0.6349 -0.8876
18399TIP3    H276613   1.144   0.832   4.381 -0.9772  0.4247 -1.1456
18400TIP3   OH276614   6.654   1.071  14.229  0.7016 -0.2891 -0.2460
18400TIP3    H176615   6.739   1.030  14.248  0.9710 -0.1059 -1.0422
18400TIP3    H276616   6.634   1.044  14.140  0.6832  0.9596 -0.6366
18401TIP3   OH276617   0.927   1.114  14.884  0.0209  0.1520  0.0705
18401TIP3    H176618   0.995   1.181  14.891  0.9846 -0.9546  2.9204
18401TIP3    H276619   0.845   1.163  14.883  0.7540  1.4313  0.4492
18402TIP3   OH276620   3.685   0.659  15.132 -0.4202 -0.3878  0.3315
18402TIP3    H176621   3.700   0.754  15.134  0.3009 -0.4604 -1.0566
18402TIP3    H276622   3.737   0.625  15.205  1.2397  0.0478 -0.6150
18403TIP3   OH276623   2.333   1.981   0.452 -0.4962  0.3164  0.0051
18403TIP3    H176624   2.254   2.031   0.473 -1.6721 -1.5820  0.4180
18403TIP3    H276625   2.402   2.024   0.502 -1.3953  1.6251  0.1765
18404TIP3   OH276626   4.374   4.065   5.672 -0.3606  0.0870 -0.2693
18404TIP3    H176627   4.358   4.044   5.764 -2.4365  0.2627 -0.5496
18404TIP3    H276628   4.430   4.143   5.675 -0.3940  0.0881  0.8259
18405TIP3   OH276629   5.314   6.359   2.201  0.1049  0.0302 -0.3556
18405TIP3    H176630   5.325   6.273   2.241  0.0169  0.1453 -0.0761
18405TIP3    H276631   5.248   6.347   2.133 -0.2245 -0.0335 -0.0292
18406TIP3   OH276632   4.626   6.104   3.265 -0.2669 -0.1495  0.4295
18406TIP3    H176633   4.623   6.197   3.242  1.4477 -0.3987 -1.0119
18406TIP3    H276634   4.568   6.062   3.201  0.2338 -0.2495  0.0416
18407TIP3   OH276635   6.530   1.508  15.121 -0.6199  0.1226  0.1717
18407TIP3    H176636   6.496   1.419  15.107 -1.8547  0.5596  0.2927
18407TIP3    H276637   6.620   1.494  15.150 -0.3679 -1.0490 -1.0487
18408TIP3   OH276638   6.276   6.349   6.571 -0.3896 -0.4960  0.1406
18408TIP3    H176639   6.209   6.408   6.606  1.6629  1.4216  1.0595
18408TIP3    H276640   6.292   6.286   6.641  1.5770  1.5366  1.6732
18409TIP3   OH276641   0.680   4.095  11.507 -0.1223 -0.2844  0.0872
18409TIP3    H176642   0.710   4.186  11.498 -1.1408 -0.0234 -1.0147
18409TIP3    H276643   0.586   4.103  11.522 -0.0936 -1.1541  0.8048
18410TIP3   OH276644   1.138   4.294   2.070  0.2374 -0.2191 -0.1594
18410TIP3    H176645   1.075   4.264   2.136 -0.0590 -0.1918 -0.4299
18410TIP3    H276646   1.096   4.370   2.029  1.1138  0.7886  0.7388
18411TIP3   OH276647   4.206   1.931   3.264  0.0851 -0.4854 -0.5238
18411TIP3    H176648   4.225   1.911   3.172  0.2225 -0.6310 -0.4639
18411TIP3    H276649   4.117   1.897   3.277 -0.2149  0.1762 -0.7970
18412TIP3   OH276650   3.497   2.656   0.225  0.9184  0.3926  0.2366
18412TIP3    H176651   3.476   2.718   0.155  1.4668  1.3406  0.8711
18412TIP3    H276652   3.436   2.584   0.214  0.1828  1.1117 -0.4707
18413TIP3   OH276653   0.511   2.928   3.891 -0.0448  0.1223  0.2294
18413TIP3    H176654   0.469   3.002   3.936  0.2048  0.0942  0.5117
18413TIP3    H276655   0.532   2.962   3.803  3.3017  1.6242  1.4197
18414TIP3   OH276656   2.877   3.581   2.217 -0.1897 -0.0264 -0.1395
18414TIP3    H176657   2.787   3.584   2.250 -0.0560  0.8203  0.1728
18414TIP3    H276658   2.929   3.563   2.295 -0.0155  0.2951 -0.1841
18415TIP3   OH276659   2.923   0.782  13.675  0.5189  0.2591  0.0918
18415TIP3    H176660   2.949   0.690  13.674  0.1948  0.1234 -2.7125
18415TIP3    H276661   2.933   0.808  13.767  3.7979 -1.6263  0.4421
18416TIP3   OH276662   0.032   6.718   5.279 -1.0586 -0.7039  0.1906
18416TIP3    H176663   0.028   6.812   5.299 -3.0527 -1.2360  3.0488
18416TIP3    H276664   0.009   6.712   5.186 -0.6440  1.6348 -0.1255
18417TIP3   OH276665   6.077   1.602  12.029  0.4973 -0.0137  0.4203
18417TIP3    H176666   5.999   1.606  11.974  0.2848 -1.4683  0.5750
18417TIP3    H276667   6.081   1.687  12.071 -1.2776 -0.0525  0.7596
18418TIP3   OH276668   6.566   0.371   0.888 -0.0831  0.1491  0.1973
18418TIP3    H176669   6.504   0.441   0.907  0.1067  0.4883 -0.3916
18418TIP3    H276670   6.645   0.417   0.857  1.9710  0.0397  4.5598
18419TIP3   OH276671   1.799   0.832  13.607 -0.1894 -0.5057 -0.1151
18419TIP3    H176672   1.809   0.746  13.566  0.8055 -0.0466 -0.8842
18419TIP3    H276673   1.888   0.855  13.635  0.1004  1.3681 -2.2430
18420TIP3   OH276674   6.053   2.713  15.872 -0.1812 -0.0421 -0.1714
18420TIP3    H176675   6.108   2.672  15.805 -0.5916 -0.7484 -0.0919
18420TIP3    H276676   6.095   2.796  15.891  0.5637 -0.3388 -0.4985
18421TIP3   OH276677   5.752   1.420   4.070 -0.6417  0.1371  0.1667
18421TIP3    H176678   5.801   1.338   4.079  1.0460  1.3861  4.5102
18421TIP3    H276679   5.807   1.475   4.015  0.1011 -0.3866  0.3628
18422TIP3   OH276680   6.125   5.044  13.070  0.5185  0.2338  0.2440
18422TIP3    H176681   6.095   5.035  13.160  0.6902 -0.5663  0.2286
18422TIP3    H276682   6.134   4.954  13.038 -1.2341  0.5014 -1.1388
18423TIP3   OH276683   2.859   0.199  13.015  0.2396 -0.1044 -0.1306
18423TIP3    H176684   2.902   0.259  12.954 -0.4335  1.4327  0.8467
18423TIP3    H276685   2.929   0.170  13.074  0.2891  1.0206  0.3869
18424TIP3   OH276686   5.981   2.685  12.583  0.1105  0.9094  0.2384
18424TIP3    H176687   5.989   2.594  12.612 -1.3440  0.6942  0.0257
18424TIP3    H276688   6.060   2.701  12.531 -0.5096 -0.8807 -1.3774
18425TIP3   OH276689   0.553   6.428   2.676  0.4473  0.3125  0.3206
18425TIP3    H176690   0.509   6.477   2.746  0.9223  0.3035  0.6314
18425TIP3    H276691   0.481   6.389   2.625 -0.0284  2.7691 -1.0361
18426TIP3   OH276692   3.250   0.017   2.665  0.2387 -0.0349  0.2112
18426TIP3    H176693   3.242   0.070   2.744  0.6040  0.1753  0.1119
18426TIP3    H276694   3.229  -0.072   2.693 -2.7838  0.4798 -0.1208
18427TIP3   OH276695   2.857   3.006   4.891  0.8083 -0.3229  0.4454
18427TIP3    H176696   2.904   3.088   4.880  2.6496 -1.4615 -0.7245
18427TIP3    H276697   2.925   2.942   4.912 -0.6154 -1.5157  1.6094
18428TIP3   OH276698   0.522   6.706  14.502  0.0972 -0.2027 -0.1784
18428TIP3    H176699   0.589   6.747  14.557  1.9062 -0.6450 -1.9436
18428TIP3    H276700   0.482   6.780  14.455  0.1665 -0.0363  0.0221
18429TIP3   OH276701   1.460   3.295  12.032  0.0288 -0.1205 -0.0970
18429TIP3    H176702   1.441   3.311  11.940  0.8024 -0.6515 -0.3614
18429TIP3    H276703   1.546   3.254  12.032 -1.3034 -3.2454  0.5693
18430TIP3   OH276704   3.860   5.754  15.999 -0.4850 -0.2324 -0.0717
18430TIP3    H176705   3.768   5.739  16.020 -0.3797 -1.0153 -0.1720
18430TIP3    H276706   3.861   5.842  15.959 -1.3633 -0.7029 -1.1763
18431TIP3   OH276707   1.531   5.112   4.331 -0.4770 -0.3525  0.0792
18431TIP3    H176708   1.574   5.088   4.249 -0.4665  0.9260 -0.3024
18431TIP3    H276709   1.546   5.206   4.340  0.4337 -0.6568  2.1027
18432TIP3   OH276710   5.368   4.452   4.914  0.0572 -0.2239  0.6910
18432TIP3    H176711   5.375   4.357   4.906 -1.6959 -0.3969  0.8179
18432TIP3    H276712   5.319   4.465   4.996 -0.2456  0.7523  0.3635
18433TIP3   OH276713   4.983   5.233  16.606  0.2919 -0.6900 -0.4107
18433TIP3    H176714   4.961   5.179  16.682 -0.1362 -1.2144 -0.9011
18433TIP3    H276715   4.945   5.187  16.532  0.2041  0.1244 -0.8823
18434TIP3   OH276716   1.890   1.070  11.485 -0.2034  0.2486 -0.0271
18434TIP3    H176717   1.811   1.107  11.523  1.3925  3.2017  0.7030
18434TIP3    H276718   1.938   1.033  11.560  0.1121  0.4622 -0.1209
18435TIP3   OH276719   3.381   1.710  13.010  0.6907 -0.0299  0.0718
18435TIP3    H176720   3.308   1.648  13.009  2.3531 -2.1069  0.9647
18435TIP3    H276721   3.432   1.686  13.087  1.5042  2.4086  0.3928
18436TIP3   OH276722   3.123   3.357  16.779 -0.2553  0.2711 -0.2093
18436TIP3    H176723   3.082   3.325  16.699  1.5960 -1.8453 -0.4172
18436TIP3    H276724   3.062   3.422  16.814 -1.5028  0.6231 -2.8576
18437TIP3   OH276725   4.727   5.820  17.063 -0.4450  0.2286  0.1064
18437TIP3    H176726   4.822   5.809  17.075 -0.5411  1.1359  2.2063
18437TIP3    H276727   4.693   5.833  17.152 -2.4276  0.8172 -0.6834
18438TIP3   OH276728   0.245   2.269  11.771 -0.1894 -0.1474 -0.4953
18438TIP3    H176729   0.252   2.208  11.844 -0.5782 -1.1150 -1.2465
18438TIP3    H276730   0.179   2.230  11.713 -1.6432  1.7738 -0.2433
18439TIP3   OH276731   5.663   3.312  17.106  0.4078 -0.2966 -0.3814
18439TIP3    H176732   5.671   3.295  17.200  0.7942  0.0830 -0.3447
18439TIP3    H276733   5.645   3.406  17.100  0.9483 -0.2118 -0.7159
18440TIP3   OH276734   0.961   6.337  15.830  0.4268  0.8111 -0.3915
18440TIP3    H176735   1.038   6.288  15.859 -0.3419 -1.1487 -1.4499
18440TIP3    H276736   0.943   6.399  15.900  1.3875 -0.5448  1.0977
18441TIP3   OH276737   1.344   6.738  11.131  0.1600 -0.6981 -0.2033
18441TIP3    H176738   1.342   6.800  11.058 -0.9170  0.0025  0.3894
18441TIP3    H276739   1.281   6.670  11.107 -1.5850  0.4797  0.8321
18442TIP3   OH276740   0.365   6.048  16.943  0.1220 -0.5963  0.0715
18442TIP3    H176741   0.396   5.962  16.916 -0.9295 -0.8725 -0.2879
18442TIP3    H276742   0.293   6.031  17.004 -1.3415 -0.0206 -1.4183
18443TIP3   OH276743   3.627   5.956  17.019 -0.0154  0.3357  0.2438
18443TIP3    H176744   3.567   5.947  17.093 -0.4893 -1.3074 -0.2911
18443TIP3    H276745   3.662   5.867  17.007  0.0713  0.5815 -1.4797
18444TIP3   OH276746   3.573   5.416  15.371 -0.1251  0.3867 -0.8299
18444TIP3    H176747   3.498   5.475  15.367  1.2202  2.2282 -0.4145
18444TIP3    H276748   3.649   5.475  15.375  1.2013 -1.2640  3.0939
18445TIP3   OH276749   3.897   3.635   5.495  0.1028  0.2470  0.2231
18445TIP3    H176750   3.855   3.584   5.427 -0.8563 -1.4839  1.9969
18445TIP3    H276751   3.894   3.725   5.464  0.6841 -0.5822 -2.4478
18446TIP3   OH276752   3.241   2.262  15.160 -0.2695 -0.4047  0.1658
18446TIP3    H176753   3.286   2.343  15.134 -1.7291  0.0560 -1.0967
18446TIP3    H276754   3.300   2.192  15.133  0.6148  0.2148  0.4569
18447TIP3   OH276755   2.671   4.095  15.826  0.4106  0.3301  0.0415
18447TIP3    H176756   2.667   4.006  15.861  0.6587  0.0471 -0.6205
18447TIP3    H276757   2.580   4.121  15.816  0.2842 -0.5243 -1.3781
18448TIP3   OH276758   0.198   6.227   4.055  1.2564 -0.4403 -0.3886
18448TIP3    H176759   0.191   6.300   3.993  0.3673 -1.1265 -1.1249
18448TIP3    H276760   0.141   6.160   4.019  0.6647 -0.8378  1.2389
18449TIP3   OH276761   4.707   4.078   2.818 -0.0730  0.7719 -0.3971
18449TIP3    H176762   4.649   4.005   2.799  0.8085  0.4240 -1.8820
18449TIP3    H276763   4.656   4.134   2.877 -1.1570 -0.4832 -0.0893
18450TIP3   OH276764   5.986   0.533   2.420 -0.4365  0.2482 -0.2930
18450TIP3    H176765   6.048   0.461   2.431 -0.1739  0.3481 -1.0825
18450TIP3    H276766   5.915   0.495   2.368  0.3526  0.9108 -1.9193
18451TIP3   OH276767   6.533   5.850   4.241 -0.3122 -0.1328  1.2028
18451TIP3    H176768   6.523   5.764   4.283  1.3620  0.5547  3.2290
18451TIP3    H276769   6.627   5.855   4.221 -0.8782  0.0001 -1.8857
18452TIP3   OH276770   1.762   4.798   3.271 -0.1270  0.2631 -0.4229
18452TIP3    H176771   1.772   4.837   3.184 -2.1578  0.9714 -0.3912
18452TIP3    H276772   1.809   4.858   3.329 -0.0870  0.6420 -0.8369
18453TIP3   OH276773   2.704   6.129  12.685  0.2341  0.0751 -0.6259
18453TIP3    H176774   2.617   6.142  12.647  0.8354 -1.3887 -2.7152
18453TIP3    H276775   2.762   6.127  12.609  1.8384 -0.8117  0.5812
18454TIP3   OH276776   0.540   6.158   0.094 -0.6914 -0.6668 -0.1765
18454TIP3    H176777   0.562   6.237   0.144 -1.6112 -0.6192  0.1625
18454TIP3    H276778   0.499   6.191   0.014  1.1858 -0.7220 -1.2263
18455TIP3   OH276779   3.490   4.028   3.322 -0.1384 -0.2636  0.2929
18455TIP3    H176780   3.538   3.947   3.303  0.5203  0.5858 -1.9651
18455TIP3    H276781   3.473   4.024   3.416  2.6933 -1.5095  0.8582
18456TIP3   OH276782   0.554   4.272  12.565 -0.0132  0.1994  0.3508
18456TIP3    H176783   0.479   4.229  12.524  1.3412 -2.2930  0.2789
18456TIP3    H276784   0.564   4.354  12.517 -1.0882 -0.6446 -1.4181
18457TIP3   OH276785   5.744   5.618   0.973  0.0314  0.2450  0.0347
18457TIP3    H176786   5.673   5.680   0.956  0.2827  0.2770 -0.9703
18457TIP3    H276787   5.814   5.645   0.913  0.4389 -0.5240  0.1557
18458TIP3   OH276788   6.265   2.128  16.434  0.0214  0.4089 -0.2595
18458TIP3    H176789   6.173   2.155  16.425 -0.2414 -0.2510  0.3463
18458TIP3    H276790   6.274   2.104  16.526  0.8537  0.6309 -0.2776
18459TIP3   OH276791   3.375   6.413   5.122 -0.2850 -0.0614  0.1897
18459TIP3    H176792   3.302   6.363   5.160 -0.7794  0.0013 -0.6551
18459TIP3    H276793   3.404   6.469   5.193 -1.4046  0.2794  0.3995
18460TIP3   OH276794   0.003   5.882  16.323  0.2647  0.4747 -0.2917
18460TIP3    H176795   0.079   5.939  16.315 -0.5128  1.4050 -1.5028
18460TIP3    H276796  -0.064   5.924  16.269 -0.5671 -1.2233 -0.6633
18461TIP3   OH276797   2.071   1.321  11.657  0.0487  0.2993 -0.3656
18461TIP3    H176798   2.138   1.336  11.591  0.5851 -0.4567 -0.0014
18461TIP3    H276799   1.991   1.356  11.618  1.0254  3.3219  0.1061
18462TIP3   OH276800   2.075   4.825   1.845 -0.5886 -1.0859  0.4110
18462TIP3    H176801   2.075   4.857   1.936 -1.0044  0.7958 -0.2011
18462TIP3    H276802   2.166   4.830   1.818 -0.4629 -1.6552  0.7135
18463TIP3   OH276803   6.635   6.701  11.249 -0.5086  0.4894  0.1174
18463TIP3    H176804   6.637   6.708  11.345 -1.0265  1.7672  0.0462
18463TIP3    H276805   6.581   6.774  11.220 -1.0857 -0.3919 -1.1187
18464TIP3   OH276806   3.206   4.022  12.349  0.1421  0.0633  0.3300
18464TIP3    H176807   3.139   4.040  12.283  1.0226 -0.2450 -0.6787
18464TIP3    H276808   3.280   3.987  12.299  0.2804 -1.6912  1.6363
18465TIP3   OH276809   6.136   2.854  13.613  0.2109 -0.6650 -0.3295
18465TIP3    H176810   6.212   2.796  13.616  0.4031 -0.4273 -0.5501
18465TIP3    H276811   6.070   2.804  13.564  0.4919 -0.5655 -0.8201
18466TIP3   OH276812   3.506   4.539   6.154 -0.6950 -0.4325 -0.5496
18466TIP3    H176813   3.583   4.570   6.201 -0.4399 -0.5559 -0.8805
18466TIP3    H276814   3.462   4.481   6.215  0.8833 -2.4611 -1.2547
18467TIP3   OH276815   3.413   0.561   1.736  0.2327 -0.1257  0.2454
18467TIP3    H176816   3.503   0.536   1.715  0.2788 -0.1676  0.4916
18467TIP3    H276817   3.420   0.610   1.818 -0.0400 -0.6818  0.6032
18468TIP3   OH276818   1.882   5.895  15.488 -0.0959 -0.2316 -0.4825
18468TIP3    H176819   1.932   5.938  15.557 -0.9042  1.3944 -0.8670
18468TIP3    H276820   1.828   5.965  15.450 -2.1189 -1.7434 -0.5614
18469TIP3   OH276821   3.099   5.893  15.770 -0.4296 -0.5624  0.4686
18469TIP3    H176822   3.028   5.952  15.794 -0.3747 -0.0019 -0.6631
18469TIP3    H276823   3.102   5.897  15.674  1.4378 -0.1725  0.5024
18470TIP3   OH276824   4.036   3.985   4.186  0.3056  1.2226  0.0545
18470TIP3    H176825   3.943   4.007   4.178  0.1879  2.0820  2.6959
18470TIP3    H276826   4.080   4.054   4.137 -0.4199  1.8101  0.1951
18471TIP3   OH276827   4.519   2.159  12.365  0.0037 -0.0016  0.6534
18471TIP3    H176828   4.518   2.081  12.421 -1.6611 -0.3448  0.2036
18471TIP3    H276829   4.551   2.229  12.421  0.7224 -0.8300  1.3143
18472TIP3   OH276830   5.402   3.136   2.284 -0.0186  0.2212 -0.5822
18472TIP3    H176831   5.363   3.118   2.369  2.1380 -0.5807  0.3245
18472TIP3    H276832   5.490   3.169   2.305  0.2629  0.8042 -2.4967
18473TIP3   OH276833   5.138   3.134   3.754  0.3526  0.6031 -0.0187
18473TIP3    H176834   5.118   3.111   3.845  0.4904  0.7103  0.0392
18473TIP3    H276835   5.052   3.148   3.714  0.0791 -2.6162 -0.7893
18474TIP3   OH276836   3.662   2.404  13.408  0.5193  0.2660 -0.2634
18474TIP3    H176837   3.746   2.438  13.377  0.8144 -1.1187 -1.0621
18474TIP3    H276838   3.633   2.468  13.474  2.8963  0.0107  1.1283
18475TIP3   OH276839   0.232   4.630  12.983  0.4077 -0.1288 -0.0891
18475TIP3    H176840   0.299   4.676  13.034 -0.9344  0.0885  1.5618
18475TIP3    H276841   0.166   4.697  12.965 -0.4107 -0.8338  0.2282
18476TIP3   OH276842   1.614   4.673  13.523 -0.0187 -0.0613  0.3503
18476TIP3    H176843   1.680   4.730  13.483 -0.8607  1.3188  0.8677
18476TIP3    H276844   1.533   4.692  13.474 -0.0698 -1.7607 -0.3098
18477TIP3   OH276845   6.405   5.188  15.462 -0.7307  0.6297 -0.5176
18477TIP3    H176846   6.455   5.152  15.389 -0.8824 -1.4309  0.2977
18477TIP3    H276847   6.462   5.177  15.538 -1.1077  1.4343 -0.1074
18478TIP3   OH276848   1.471   2.584  11.661 -0.1372 -0.1109 -0.2220
18478TIP3    H176849   1.449   2.491  11.649 -1.0876  0.0625  0.0820
18478TIP3    H276850   1.513   2.587  11.747 -2.3708  0.0628  0.9452
18479TIP3   OH276851   4.108   2.110   5.899  0.1341  0.0991  0.4114
18479TIP3    H176852   4.118   2.058   5.979  0.8673 -0.6741 -0.1485
18479TIP3    H276853   4.149   2.056   5.831  0.4775  1.2034 -0.2915
18480TIP3   OH276854   4.230   4.304  12.471  0.4995  0.4676 -0.1284
18480TIP3    H176855   4.236   4.370  12.540  0.1765  0.3472  0.0150
18480TIP3    H276856   4.309   4.317  12.418  0.9025  0.3646  0.4410
18481TIP3   OH276857   2.560   0.425  15.811 -0.8848 -0.1236  0.8338
18481TIP3    H176858   2.493   0.458  15.871 -0.0766 -1.1739  2.3832
18481TIP3    H276859   2.614   0.367  15.865  0.9788  0.2955 -0.4932
18482TIP3   OH276860   6.472   1.185  16.449  0.0230  0.3526  0.1518
18482TIP3    H176861   6.510   1.182  16.537 -1.0276  0.0602  0.6140
18482TIP3    H276862   6.538   1.230  16.396  0.5197  0.8704  1.1735
18483TIP3   OH276863   2.044   2.853  15.776 -0.0648 -0.2337  0.2741
18483TIP3    H176864   2.008   2.899  15.700 -1.0433 -1.2546  0.0948
18483TIP3    H276865   2.137   2.843  15.755 -0.1278  0.3404 -0.3408
18484TIP3   OH276866   6.264   3.413  14.608 -0.3233  0.2685  0.0062
18484TIP3    H176867   6.353   3.405  14.640 -0.3116 -0.2003 -0.1444
18484TIP3    H276868   6.272   3.417  14.513 -0.5140 -0.4813 -0.0432
18485TIP3   OH276869   0.430   6.345  12.252 -0.0580  0.8493  0.4073
18485TIP3    H176870   0.357   6.287  12.276  0.1975  0.1153 -0.5226
18485TIP3    H276871   0.463   6.379  12.335  0.7910 -1.5664  1.1327
18486TIP3   OH276872   4.131   4.052   2.595 -0.4210 -0.6082 -0.0155
18486TIP3    H176873   4.155   3.974   2.544  1.6420  1.6747 -2.8718
18486TIP3    H276874   4.104   4.017   2.680  2.4583 -4.3723 -0.3500
18487TIP3   OH276875   3.424   5.896  14.868  0.4047 -0.1279 -0.4891
18487TIP3    H176876   3.399   5.821  14.814  2.9597 -2.6463  1.5424
18487TIP3    H276877   3.512   5.920  14.838  0.6816  0.3212  0.6052
18488TIP3   OH276878   0.969   3.320  13.650 -0.3451  0.3126 -0.2072
18488TIP3    H176879   1.064   3.330  13.656 -0.4630  0.9624  0.6234
18488TIP3    H276880   0.952   3.316  13.556  0.5668 -0.4678 -0.3589
18489TIP3   OH276881   3.911   2.763   1.840  0.2241  0.5257 -0.3483
18489TIP3    H176882   3.980   2.718   1.890  1.0145 -0.2839 -2.0666
18489TIP3    H276883   3.939   2.854   1.837 -0.6448  0.9201  1.9493
18490TIP3   OH276884   3.022   3.255   5.011 -0.2327 -0.1880  0.3430
18490TIP3    H176885   2.928   3.270   5.012 -0.1701  0.9050 -2.2818
18490TIP3    H276886   3.054   3.297   5.091 -2.0067 -1.3801  1.7663
18491TIP3   OH276887   4.936   3.262   4.614  0.0936  0.1034 -0.5237
18491TIP3    H176888   4.874   3.234   4.547  1.0146  0.7282 -1.6947
18491TIP3    H276889   5.020   3.269   4.567  0.5136  1.7754  0.4007
18492TIP3   OH276890   3.182   1.397  16.377 -0.0139  0.4450 -0.6157
18492TIP3    H176891   3.263   1.371  16.332  2.2775  4.4312  0.7266
18492TIP3    H276892   3.203   1.388  16.470 -2.6919 -2.2088 -0.0881
18493TIP3   OH276893   0.687   4.541  17.186  0.2262  0.0857 -0.0240
18493TIP3    H176894   0.752   4.471  17.201  2.8346  2.1577 -0.8240
18493TIP3    H276895   0.675   4.543  17.092  0.6319  1.0622 -0.0686
18494TIP3   OH276896   1.456   2.387  13.364  0.0784  0.0933 -0.9333
18494TIP3    H176897   1.393   2.404  13.434 -0.1183 -0.9559 -0.8365
18494TIP3    H276898   1.531   2.443  13.385  0.8146 -1.5796  1.2124
18495TIP3   OH276899   1.127   1.415   2.858  0.3697 -0.4220  0.1554
18495TIP3    H176900   1.068   1.430   2.932 -0.3454 -0.0588 -0.4602
18495TIP3    H276901   1.150   1.323   2.863 -0.4446 -0.6262  0.2826
18496TIP3   OH276902   6.480   0.453   5.414  0.0874 -0.3182 -0.4144
18496TIP3    H176903   6.559   0.508   5.422  1.6610 -2.5805  0.6871
18496TIP3    H276904   6.430   0.473   5.493 -0.4879  1.1214 -1.1105
18497TIP3   OH276905   6.281   6.348  14.337 -0.3143  0.8092 -0.2241
18497TIP3    H176906   6.228   6.371  14.414  0.9432  0.7869  0.6827
18497TIP3    H276907   6.220   6.305  14.277 -1.1577  0.0880  1.1140
18498TIP3   OH276908   0.940   1.806  11.331 -0.0832 -0.3583  0.2749
18498TIP3    H176909   0.974   1.888  11.295 -2.3993  0.9728  0.8805
18498TIP3    H276910   0.869   1.782  11.271 -0.2263 -1.2794  0.7992
18499TIP3   OH276911   4.573   1.016   0.566 -0.0080  0.2186  0.2154
18499TIP3    H176912   4.503   0.964   0.605  2.1617 -2.4673  0.8267
18499TIP3    H276913   4.592   0.971   0.483  1.1686  0.7306  0.1956
18500TIP3   OH276914   2.599   2.152   0.995 -0.1951 -0.0959  0.1662
18500TIP3    H176915   2.587   2.118   1.083 -2.5786  2.4964  0.9999
18500TIP3    H276916   2.530   2.110   0.943  0.2398 -0.4782 -0.1129
18501TIP3   OH276917   0.005   4.311   2.621 -0.1799  0.0360  0.0258
18501TIP3    H176918   0.058   4.282   2.547 -2.1663 -1.2910 -0.9482
18501TIP3    H276919   0.027   4.404   2.631  2.1484 -0.4158 -0.4133
18502TIP3   OH276920   1.096   6.105  14.743 -0.5123  0.0398 -0.1785
18502TIP3    H176921   1.072   6.067  14.658  0.2019 -0.6148 -0.0997
18502TIP3    H276922   1.016   6.100  14.795 -0.8266  0.0053 -0.6524
18503TIP3   OH276923   3.804   5.803   4.216 -0.0846  0.3298 -0.0128
18503TIP3    H176924   3.774   5.739   4.281  0.4778  2.2704  2.2804
18503TIP3    H276925   3.894   5.822   4.242 -1.0036  3.8978  1.0038
18504TIP3   OH276926   5.102   3.358  12.690  0.2968  0.2740 -0.0258
18504TIP3    H176927   5.084   3.362  12.596  0.0569  1.3418  0.0549
18504TIP3    H276928   5.130   3.268  12.705 -0.2069 -0.0642 -1.0210
18505TIP3   OH276929   1.820   3.344   3.107 -0.1802  0.9192 -0.6753
18505TIP3    H176930   1.793   3.411   3.170  1.0321 -1.3666  2.5177
18505TIP3    H276931   1.915   3.355   3.100 -0.0675  0.0249 -0.6594
18506TIP3   OH276932   0.922   4.537   3.217  0.0014  0.1843  0.0479
18506TIP3    H176933   1.000   4.519   3.269 -1.4183 -2.6542  1.4384
18506TIP3    H276934   0.906   4.455   3.170 -0.3018  1.7855 -2.9201
18507TIP3   OH276935   0.847   1.403   2.031  0.9469 -0.3706 -0.8320
18507TIP3    H176936   0.755   1.397   2.057  1.0656  1.8473  0.3807
18507TIP3    H276937   0.849   1.370   1.941 -1.2337  0.4828 -1.2590
18508TIP3   OH276938   2.768   0.716   5.982 -0.7874 -0.2452 -0.0433
18508TIP3    H176939   2.686   0.747   6.020 -0.1885  1.7453 -0.2580
18508TIP3    H276940   2.743   0.646   5.922 -2.0635 -1.2885  1.6269
18509TIP3   OH276941   5.293   0.981   6.595 -0.7379  0.2148  0.1836
18509TIP3    H176942   5.202   0.956   6.612 -0.5411 -1.3440 -0.8978
18509TIP3    H276943   5.289   1.030   6.513 -0.6191  0.3821  0.2762
18510TIP3   OH276944   2.185   2.602   2.566 -0.3288 -0.8480  0.4610
18510TIP3    H176945   2.131   2.595   2.645 -1.5123  2.6412  0.1519
18510TIP3    H276946   2.124   2.589   2.494  0.1176 -0.9964  0.1044
18511TIP3   OH276947   1.232   5.552   1.397 -0.0864  0.3097  0.5053
18511TIP3    H176948   1.246   5.486   1.328 -1.2675 -1.8719  2.1996
18511TIP3    H276949   1.313   5.551   1.447  1.0400  2.3896 -1.1086
18512TIP3   OH276950   3.475   3.081   3.314  0.6089 -0.2957  0.4203
18512TIP3    H176951   3.561   3.110   3.283  1.0447 -0.7840  1.1528
18512TIP3    H276952   3.417   3.095   3.239  0.9838  1.5571  0.4280
18513TIP3   OH276953   3.089   0.477   3.933 -0.2034  0.5813  0.2628
18513TIP3    H176954   3.011   0.484   3.878 -1.6393 -1.8190  1.8240
18513TIP3    H276955   3.066   0.525   4.013 -0.5633 -1.0391  1.1677
18514TIP3   OH276956   2.406   5.532  13.366 -0.3926  0.0684  0.0589
18514TIP3    H176957   2.438   5.460  13.312 -1.8004 -1.0726  0.6715
18514TIP3    H276958   2.418   5.502  13.456 -0.5075  0.8320  0.3425
18515TIP3   OH276959   2.032   4.435   0.654  0.2254 -0.4739  0.7889
18515TIP3    H176960   2.033   4.529   0.673  0.0572 -0.1270 -0.7477
18515TIP3    H276961   1.959   4.401   0.705 -1.0421  0.6287 -0.2105
18516TIP3   OH276962   6.654   5.847   2.308 -0.1429  0.1913 -0.3937
18516TIP3    H176963   6.635   5.932   2.346  0.6834  0.1135  0.2051
18516TIP3    H276964   6.691   5.796   2.380 -2.5573 -1.3884 -0.1455
18517TIP3   OH276965   4.761   3.750  13.086  0.2353 -0.3389  0.2198
18517TIP3    H176966   4.745   3.836  13.045 -0.6076 -0.5521  0.0944
18517TIP3    H276967   4.823   3.707  13.027  0.7772  0.2323  0.3559
18518TIP3   OH276968   0.339   3.221  10.985  0.1755  0.1418 -0.3115
18518TIP3    H176969   0.292   3.303  10.968 -2.6517 -0.5914  2.9194
18518TIP3    H276970   0.282   3.153  10.947 -0.3813 -0.6228  1.7813
18519TIP3   OH276971   0.498   0.452   1.494 -0.4075 -0.0250 -0.3293
18519TIP3    H176972   0.460   0.451   1.582 -1.3403 -1.6949 -0.7005
18519TIP3    H276973   0.528   0.362   1.480  0.5008  0.4221 -1.4110
18520TIP3   OH276974   6.501   3.394   3.409 -0.0543  0.3782  0.2172
18520TIP3    H176975   6.471   3.303   3.409 -0.6809  0.5519 -1.5565
18520TIP3    H276976   6.467   3.431   3.328  0.5525  2.0919  0.6952
18521TIP3   OH276977   5.491   5.826   0.601  0.2559 -0.0939  0.5890
18521TIP3    H176978   5.482   5.806   0.694  2.0352 -0.4732  0.7038
18521TIP3    H276979   5.457   5.916   0.592  1.5324  0.5521  1.9061
18522TIP3   OH276980   3.874   4.515   1.922 -0.0449 -0.2416  0.0290
18522TIP3    H176981   3.958   4.499   1.880  0.4848  1.5647  0.3442
18522TIP3    H276982   3.821   4.557   1.855  0.0377  0.5819  0.4705
18523TIP3   OH276983   0.108   6.192  11.055 -0.1290 -0.1521 -0.3489
18523TIP3    H176984   0.178   6.169  10.994 -0.0057  1.9493 -1.0893
18523TIP3    H276985   0.029   6.192  11.001 -0.0596  1.4640 -0.4974
18524TIP3   OH276986   1.762   1.622  13.255  0.0699 -0.0082  0.0582
18524TIP3    H176987   1.847   1.606  13.295  0.6063  0.8203 -0.7101
18524TIP3    H276988   1.703   1.636  13.329  0.8145  0.3790  0.5885
18525TIP3   OH276989   3.104   1.853  14.827  0.2883  0.5521  0.0378
18525TIP3    H176990   3.064   1.809  14.902  0.2481  0.0388 -0.2828
18525TIP3    H276991   3.033   1.866  14.765  0.2341  1.3666  0.2610
18526TIP3   OH276992   0.464   0.589   2.792  0.1302 -0.0767 -0.3843
18526TIP3    H176993   0.514   0.577   2.711 -0.2037 -0.4112 -0.5436
18526TIP3    H276994   0.527   0.625   2.854  0.5158 -0.2918 -0.6473
18527TIP3   OH276995   3.489   2.102   0.354 -0.2676  0.1365  0.1760
18527TIP3    H176996   3.519   2.135   0.439 -2.9525  0.7583  0.9857
18527TIP3    H276997   3.393   2.112   0.357 -0.6239 -1.7283 -2.1424
18528TIP3   OH276998   5.846   6.209   0.362  0.0371 -0.2984 -0.3967
18528TIP3    H176999   5.919   6.150   0.344  2.6297  3.0046 -1.7572
18528TIP3    H277000   5.883   6.274   0.422 -2.2759  0.7100  0.0237
18529TIP3   OH277001   5.484   1.975  11.059  0.5548  0.0298  0.1720
18529TIP3    H177002   5.505   1.881  11.060 -1.5100 -0.4823 -0.2567
18529TIP3    H277003   5.388   1.978  11.058  0.5850  2.1548 -0.0590
18530TIP3   OH277004   1.291   5.223  12.640 -0.5162  0.5848 -0.2110
18530TIP3    H177005   1.256   5.284  12.576  0.9791  0.2293 -1.4374
18530TIP3    H277006   1.336   5.278  12.704 -0.0108  0.8475 -0.7768
18531TIP3   OH277007   4.318   0.905   0.680 -0.0178 -0.2492  0.3613
18531TIP3    H177008   4.300   0.843   0.610  0.3036 -0.0843  0.1291
18531TIP3    H277009   4.234   0.916   0.724 -0.0166 -1.0437  0.5701
18532TIP3   OH277010   6.621   1.623  14.872  0.4330 -0.1049 -0.3277
18532TIP3    H177011   6.699   1.674  14.893  1.4636 -1.2995 -1.1396
18532TIP3    H277012   6.574   1.615  14.955  0.2843  2.0298 -0.1487
18533TIP3   OH277013   6.659   0.056  12.754  0.1730  0.3928  0.2954
18533TIP3    H177014   6.568   0.044  12.727  0.5705 -0.2387 -0.8341
18533TIP3    H277015   6.704  -0.022  12.721  0.4068 -1.4481  4.3673
18534TIP3   OH277016   5.706   3.276   3.873 -0.3460 -0.2550 -0.4332
18534TIP3    H177017   5.618   3.305   3.850 -0.2655  0.4326  0.1193
18534TIP3    H277018   5.764   3.327   3.816 -0.2058  0.6978  0.5358
18535TIP3   OH277019   0.228   1.466   4.424 -0.2515  0.4278 -0.2911
18535TIP3    H177020   0.148   1.454   4.476  0.5626  0.2696  0.9539
18535TIP3    H277021   0.217   1.551   4.381 -0.5948  0.9330  0.7760
18536TIP3   OH277022   0.423   3.615   4.308 -0.4438  0.4154 -0.0966
18536TIP3    H177023   0.482   3.635   4.380  0.0168  0.7997 -0.5732
18536TIP3    H277024   0.364   3.548   4.343 -0.3874  0.7767  0.7093
18537TIP3   OH277025   5.017   5.607  11.117  0.3056 -0.4662 -0.2369
18537TIP3    H177026   5.052   5.520  11.096 -1.7159 -1.5105  0.4101
18537TIP3    H277027   4.933   5.611  11.070 -0.4807  0.3878  1.1613
18538TIP3   OH277028   5.200   0.228   4.734 -0.3216 -0.2547  0.2594
18538TIP3    H177029   5.270   0.263   4.788 -1.4043 -1.1609  2.3726
18538TIP3    H277030   5.244   0.197   4.655  1.5957 -0.3299  1.2913
18539TIP3   OH277031   5.885   5.079  15.759  0.2023  0.3038  0.1003
18539TIP3    H177032   5.845   5.151  15.809 -0.0410  0.0645  0.2520
18539TIP3    H277033   5.967   5.116  15.726 -0.3829  0.9775 -0.6612
18540TIP3   OH277034   4.578   1.354   2.092 -0.0207  0.4853  0.5931
18540TIP3    H177035   4.617   1.434   2.058 -1.2168  0.8532  0.0585
18540TIP3    H277036   4.586   1.291   2.020  1.4007 -0.0588  1.1966
18541TIP3   OH277037   4.916   6.150   1.214 -0.1970  0.4186  0.5837
18541TIP3    H177038   4.821   6.153   1.203 -0.3258  1.7811  1.7492
18541TIP3    H277039   4.930   6.176   1.305  1.3932  2.4118 -0.1390
18542TIP3   OH277040   3.775   4.736   1.457  0.3155  0.5425 -0.0921
18542TIP3    H177041   3.870   4.740   1.469  0.3980  2.5420 -1.1267
18542TIP3    H277042   3.761   4.654   1.409  1.0917 -1.6144  3.0520
18543TIP3   OH277043   0.638   5.235   5.223  0.0770 -0.2174  0.2980
18543TIP3    H177044   0.710   5.297   5.230 -0.5682  0.5348  0.4551
18543TIP3    H277045   0.560   5.286   5.247 -0.2700 -1.5121  2.1567
18544TIP3   OH277046   2.317   0.697   0.276  0.2781 -0.2839 -0.2685
18544TIP3    H177047   2.242   0.673   0.222  0.7936 -0.8187 -0.7659
18544TIP3    H277048   2.368   0.756   0.220  0.2822 -0.0049  0.0288
18545TIP3   OH277049   2.918   5.819   5.787  0.0230 -0.1725  0.0564
18545TIP3    H177050   2.838   5.842   5.835 -0.2816 -0.0748 -0.4890
18545TIP3    H277051   2.965   5.902   5.779  0.8907 -0.4707  1.6332
18546TIP3   OH277052   0.203   4.433   3.958 -0.2696  0.4063 -0.1224
18546TIP3    H177053   0.126   4.376   3.958 -0.2579  0.3535 -1.8036
18546TIP3    H277054   0.193   4.488   3.881  1.0148  0.9130  0.0433
18547TIP3   OH277055   0.556   0.797  13.449 -0.5459  0.0540 -0.4599
18547TIP3    H177056   0.536   0.728  13.386 -1.2722  0.1487 -0.3371
18547TIP3    H277057   0.568   0.751  13.532 -0.9713  0.0668 -0.3894
18548TIP3   OH277058   0.582   3.724   2.129  0.2297  0.0931 -0.2104
18548TIP3    H177059   0.627   3.730   2.044 -0.6590 -0.2657 -0.7230
18548TIP3    H277060   0.536   3.640   2.125 -1.8641  1.1873 -0.4035
18549TIP3   OH277061   1.842   3.750   5.956 -0.3440 -0.0767  0.2609
18549TIP3    H177062   1.892   3.808   6.014  1.3529 -2.1992  1.0773
18549TIP3    H277063   1.753   3.750   5.992 -0.2689  1.6208  0.4969
18550TIP3   OH277064   3.853   4.588  13.783  0.1154 -0.0298  0.3975
18550TIP3    H177065   3.805   4.509  13.805  0.3226 -0.0355  0.8384
18550TIP3    H277066   3.791   4.659  13.798  0.2873 -0.0262  1.1075
18551TIP3   OH277067   6.422   1.605  12.765 -0.3707 -0.6191  0.3102
18551TIP3    H177068   6.513   1.583  12.745 -0.6714 -0.0620 -2.0147
18551TIP3    H277069   6.372   1.528  12.738 -0.7787  0.0523 -0.9436
18552TIP3   OH277070   1.177   1.658   4.649  0.9488  0.0663 -0.3444
18552TIP3    H177071   1.122   1.730   4.680  1.2400  0.8960 -1.6864
18552TIP3    H277072   1.234   1.637   4.723 -0.7296 -0.3976  0.8687
18553TIP3   OH277073   5.113   2.386  13.700 -0.0577 -0.0864  0.5003
18553TIP3    H177074   5.164   2.467  13.690 -0.7365  0.6502  2.5060
18553TIP3    H277075   5.068   2.376  13.616  1.1137  0.8296 -0.2848
18554TIP3   OH277076   5.686   3.681   2.282 -0.1356  0.2249 -0.2803
18554TIP3    H177077   5.664   3.762   2.327  0.1638 -0.9575  2.1837
18554TIP3    H277078   5.779   3.667   2.299 -0.4688 -1.2695  0.5266
18555TIP3   OH277079   2.456   6.151   4.645 -0.7788 -1.0090 -0.1968
18555TIP3    H177080   2.453   6.178   4.737 -0.1596 -1.8033  0.0686
18555TIP3    H277081   2.483   6.059   4.648 -1.5011 -1.2615 -1.1412
18556TIP3   OH277082   5.863   5.173  11.467  0.1469 -0.6324 -0.1098
18556TIP3    H177083   5.904   5.122  11.397  0.9356  2.5110 -2.1349
18556TIP3    H277084   5.929   5.176  11.536 -0.3714 -3.1964  0.5966
18557TIP3   OH277085   5.557   3.502  14.268 -0.3302 -0.3020 -0.2767
18557TIP3    H177086   5.584   3.493  14.177  0.7843 -0.9871  0.1084
18557TIP3    H277087   5.638   3.517  14.317 -0.9026 -0.0014  0.6197
18558TIP3   OH277088   5.582   4.927  16.701  0.2828  0.1552 -0.8993
18558TIP3    H177089   5.574   5.012  16.657  0.6265 -0.1099 -1.4742
18558TIP3    H277090   5.556   4.945  16.791  1.3063  1.0937 -0.7698
18559TIP3   OH277091   2.965   4.017  13.299 -0.2107  0.0544  0.0658
18559TIP3    H177092   2.900   4.001  13.368 -0.9233 -2.2313 -1.0552
18559TIP3    H277093   2.970   3.935  13.251 -0.0194  1.6620 -2.8714
18560TIP3   OH277094   6.505   4.001   2.927 -0.1693 -0.5526 -0.1609
18560TIP3    H177095   6.554   4.083   2.935 -0.9190 -0.2235  1.7692
18560TIP3    H277096   6.571   3.935   2.907  0.5035  0.4363 -1.3547
18561TIP3   OH277097   2.161   3.882  11.439 -0.1088 -0.3834  0.5892
18561TIP3    H177098   2.142   3.810  11.378 -0.8487 -0.4997  0.9476
18561TIP3    H277099   2.152   3.843  11.526 -0.6476  0.1775  0.7885
18562TIP3   OH277100   4.586   4.171   4.412 -0.3383 -0.3209 -0.0156
18562TIP3    H177101   4.524   4.218   4.467 -0.7376 -2.2645  1.2920
18562TIP3    H277102   4.667   4.168   4.462  0.4719  1.0933 -1.1692
18563TIP3   OH277103   1.812   4.345   0.795  0.4343 -0.2265  0.2318
18563TIP3    H177104   1.729   4.306   0.769  0.6801 -0.8974  0.4265
18563TIP3    H277105   1.837   4.297   0.874  1.4389 -0.6409 -0.3231
18564TIP3   OH277106   2.597   6.076   2.444  0.2333 -0.2924 -0.2376
18564TIP3    H177107   2.649   6.001   2.473  2.0543 -0.1259 -2.6876
18564TIP3    H277108   2.517   6.037   2.408  0.8382 -1.0459 -0.8126
18565TIP3   OH277109   0.051   1.130   6.515  0.5221 -0.8381  0.2368
18565TIP3    H177110   0.104   1.151   6.592 -0.7631 -1.6185  1.3704
18565TIP3    H277111  -0.003   1.208   6.502  0.7958 -0.6749  0.0762
18566TIP3   OH277112   4.747   1.660   2.344 -0.0015  0.2218  0.5835
18566TIP3    H177113   4.706   1.603   2.280  0.4479 -0.0022  0.4886
18566TIP3    H277114   4.734   1.749   2.310 -0.3542  0.1518  0.5307
18567TIP3   OH277115   4.766   4.507   1.404 -0.0810 -0.3838 -0.4890
18567TIP3    H177116   4.743   4.596   1.375  0.6970  0.4891  1.4037
18567TIP3    H277117   4.683   4.468   1.429 -0.2164  0.8284  1.1956
18568TIP3   OH277118   5.663   5.666  12.040 -0.2424 -0.2782  0.3450
18568TIP3    H177119   5.579   5.626  12.065 -1.4500 -0.1794 -3.1060
18568TIP3    H277120   5.638   5.751  12.004  1.5974  0.5887  1.0205
18569TIP3   OH277121   0.456   5.864   4.491  0.4703 -0.0174  0.5280
18569TIP3    H177122   0.502   5.948   4.502 -0.1279  0.1695  1.8304
18569TIP3    H277123   0.372   5.877   4.536 -0.9930 -0.2827 -1.9357
18570TIP3   OH277124   0.658   0.146  16.727 -0.1534 -1.1849  0.2076
18570TIP3    H177125   0.580   0.182  16.683 -0.5742 -1.0096  1.0712
18570TIP3    H277126   0.708   0.104  16.657  0.7524  1.6894 -1.0252
18571TIP3   OH277127   6.454   3.519  13.402  0.4745 -0.0278  0.0595
18571TIP3    H177128   6.360   3.515  13.421  0.4481 -0.7308 -0.1977
18571TIP3    H277129   6.495   3.523  13.489  0.1784  1.3218  0.1606
18572TIP3   OH277130   3.179   3.254   3.244 -0.0465  0.8439  0.3111
18572TIP3    H177131   3.250   3.272   3.306  0.8075 -0.9271 -0.1072
18572TIP3    H277132   3.099   3.267   3.295  0.4572  3.7579  0.5679
18573TIP3   OH277133   1.188   0.928  15.456  0.3756  0.4199  0.3738
18573TIP3    H177134   1.142   0.852  15.421  2.1849 -0.6434  0.2189
18573TIP3    H277135   1.220   0.975  15.379  0.0194  0.8700  0.4933
18574TIP3   OH277136   2.367   4.198   2.090  0.0279 -0.3145 -0.0777
18574TIP3    H177137   2.311   4.217   2.166  1.1099  0.0441  0.6600
18574TIP3    H277138   2.340   4.110   2.063  0.2014 -0.8198  1.2736
18575TIP3   OH277139   0.554   4.366  13.279  0.5558 -0.1980  0.0261
18575TIP3    H177140   0.504   4.285  13.265  0.0075  0.3750 -1.6042
18575TIP3    H277141   0.642   4.337  13.301  0.3102 -1.2526 -0.3245
18576TIP3   OH277142   1.412   4.528  15.986  0.0293  0.2356  0.3924
18576TIP3    H177143   1.373   4.555  15.903 -1.5678  1.3076  1.4227
18576TIP3    H277144   1.496   4.574  15.988 -0.4626  1.2099 -0.1103
18577TIP3   OH277145   6.605   1.688   1.782 -0.6218 -0.2492  0.0002
18577TIP3    H177146   6.658   1.622   1.826  0.2540  1.2937  1.3675
18577TIP3    H277147   6.527   1.696   1.837  0.8202  2.2386  1.9112
18578TIP3   OH277148   5.313   1.049   3.868 -0.2505 -0.7876  0.3753
18578TIP3    H177149   5.368   0.977   3.900  1.1402  0.5577  1.1209
18578TIP3    H277150   5.366   1.127   3.878 -1.0812  0.1900 -2.0012
18579TIP3   OH277151   6.588   6.253   6.664 -0.1925 -0.0283 -0.1206
18579TIP3    H177152   6.561   6.280   6.577  0.3849 -1.2620 -0.7119
18579TIP3    H277153   6.514   6.203   6.698  0.6024 -1.9406 -1.0559
18580TIP3   OH277154   5.790   1.913  16.754  0.4849 -0.3188 -0.2421
18580TIP3    H177155   5.793   1.821  16.728  0.0777 -0.4052  0.0102
18580TIP3    H277156   5.709   1.946  16.715  0.8551  0.0501 -0.7095
18581TIP3   OH277157   5.456   3.193   3.980 -0.4018  0.2462  0.0823
18581TIP3    H177158   5.531   3.141   4.009  0.8054  2.9163  2.1732
18581TIP3    H277159   5.391   3.182   4.050 -0.0052  1.6720  0.7203
18582TIP3   OH277160   3.512   3.984  13.467  0.4014  0.0913 -0.5600
18582TIP3    H177161   3.505   4.048  13.396  0.5151 -0.5224 -1.1378
18582TIP3    H277162   3.598   3.945  13.457  0.0333 -0.7122 -0.7126
18583TIP3   OH277163   1.259   4.539  15.737 -1.2062  0.3375 -0.1810
18583TIP3    H177164   1.216   4.456  15.758  2.7837 -1.6055  1.4495
18583TIP3    H277165   1.269   4.537  15.642 -0.3226 -1.6252 -0.1001
18584TIP3   OH277166   0.241   0.925   1.774  0.1053 -0.1064  0.5274
18584TIP3    H177167   0.246   0.876   1.692 -0.2945  0.3897  0.2042
18584TIP3    H277168   0.331   0.954   1.790  0.0374  0.4863 -0.1611
18585TIP3   OH277169   1.097   2.853   4.933 -0.3159 -0.4549  0.5573
18585TIP3    H177170   1.154   2.808   4.995  0.7217 -0.8728 -0.6522
18585TIP3    H277171   1.024   2.884   4.986 -0.6366 -2.7775  1.6013
18586TIP3   OH277172   3.632   3.585   4.409  0.3638 -0.0901  0.2330
18586TIP3    H177173   3.554   3.620   4.451 -0.0081 -0.1446 -0.4090
18586TIP3    H277174   3.704   3.638   4.444 -0.3173  2.3167 -1.7725
18587TIP3   OH277175   5.606   1.986   2.243 -0.0977  0.0330 -0.7421
18587TIP3    H177176   5.657   1.934   2.304  0.8717  1.4647 -0.2797
18587TIP3    H277177   5.518   1.947   2.245 -0.0468 -0.0625  1.4304
18588TIP3   OH277178   4.788   1.302   3.782  0.1597  0.0310 -0.7496
18588TIP3    H177179   4.884   1.308   3.785  0.0647  2.7215 -0.0515
18588TIP3    H277180   4.763   1.281   3.872  0.0627  0.2271 -0.7308
18589TIP3   OH277181   1.596   4.957  11.867 -0.6468 -0.1424  0.1737
18589TIP3    H177182   1.600   5.010  11.947  0.2097  0.7027 -0.3940
18589TIP3    H277183   1.676   4.981  11.820 -0.0342 -2.2716  0.0668
18590TIP3   OH277184   0.876   1.007  16.723  0.0089 -0.1265 -0.2143
18590TIP3    H177185   0.882   1.043  16.812  1.1054 -2.8346  0.9246
18590TIP3    H277186   0.798   0.953  16.725  0.5935 -0.9991 -0.5642
18591TIP3   OH277187   2.388   4.689  13.086  0.2310  0.5508  0.0094
18591TIP3    H177188   2.390   4.728  13.173  0.5470  0.1283  0.1914
18591TIP3    H277189   2.413   4.598  13.099 -0.7879  0.1942 -0.3715
18592TIP3   OH277190   1.090   3.894  14.980  0.1221  0.2044  0.1253
18592TIP3    H177191   1.107   3.903  14.887 -0.7775  2.1889  0.0921
18592TIP3    H277192   1.172   3.861  15.017  0.8260  0.3755 -1.2276
18593TIP3   OH277193   0.496   0.695   4.042 -0.4009  0.0681 -0.9303
18593TIP3    H177194   0.521   0.615   3.996  0.1795  0.3342 -1.0808
18593TIP3    H277195   0.454   0.749   3.975 -1.3620 -0.3544 -0.6913
18594TIP3   OH277196   0.606   1.555  16.493  0.4727 -0.0620 -0.3934
18594TIP3    H177197   0.700   1.572  16.501  0.2747  0.5667  0.7950
18594TIP3    H277198   0.575   1.624  16.434  0.6927 -0.0206 -0.4622
18595TIP3   OH277199   4.522   6.015  11.973 -0.4762  0.0202  0.1010
18595TIP3    H177200   4.512   5.957  11.898  0.1033  1.0656 -0.8056
18595TIP3    H277201   4.560   5.959  12.041 -1.2230 -0.9916 -0.2879
18596TIP3   OH277202   1.279   1.239   3.102 -0.2382  0.1780 -0.4185
18596TIP3    H177203   1.350   1.226   3.038  0.7747 -0.6579  0.8339
18596TIP3    H277204   1.317   1.295   3.169 -0.9861  0.2842 -0.0726
18597TIP3   OH277205   2.724   5.576  11.759  0.0645 -0.2403  0.4195
18597TIP3    H177206   2.644   5.600  11.807  0.0678  0.8014 -0.0851
18597TIP3    H277207   2.713   5.617  11.673 -0.2517 -2.6246 -0.7549
18598TIP3   OH277208   1.400   1.362   3.613  0.2689 -0.3771  0.1566
18598TIP3    H177209   1.484   1.403   3.597 -0.2584  1.1127  1.0395
18598TIP3    H277210   1.407   1.276   3.571  2.5768 -0.7006  1.0316
18599TIP3   OH277211   4.317   2.674  15.513  0.4513  1.0828 -0.7443
18599TIP3    H177212   4.231   2.632  15.513  0.0593  1.8252  0.6699
18599TIP3    H277213   4.345   2.673  15.421 -0.3515 -0.5813 -1.0114
18600TIP3   OH277214   4.342   2.215  13.664  0.5991  0.2262 -0.4085
18600TIP3    H177215   4.374   2.284  13.606  0.2520  1.7539  1.1560
18600TIP3    H277216   4.400   2.217  13.739 -0.8346  0.4814  0.7458
18601TIP3   OH277217   5.138   4.846  14.835  0.3488  0.2048 -0.2353
18601TIP3    H177218   5.217   4.856  14.781  1.5605 -0.7736  1.2380
18601TIP3    H277219   5.114   4.754  14.825  1.0008 -0.1728  1.3554
18602TIP3   OH277220   2.416   4.078  16.082 -0.1855 -0.0918  0.7347
18602TIP3    H177221   2.447   4.165  16.108 -2.2694  1.7178 -2.1319
18602TIP3    H277222   2.376   4.092  15.996 -0.0086 -4.0870 -0.1940
18603TIP3   OH277223   4.353   5.304  13.735 -0.2680  0.1820  0.6173
18603TIP3    H177224   4.434   5.289  13.785  0.3978  0.7392 -0.2740
18603TIP3    H277225   4.351   5.399  13.720  0.3148 -0.1039 -1.6404
18604TIP3   OH277226   0.492   4.119  16.339  0.5309 -0.1700 -0.3706
18604TIP3    H177227   0.414   4.131  16.393  0.8479  1.7980 -0.2537
18604TIP3    H277228   0.459   4.116  16.249  0.2997  0.8236 -0.3342
18605TIP3   OH277229   0.719   2.909   0.715 -0.0345 -0.0005 -0.1347
18605TIP3    H177230   0.792   2.895   0.775  0.2372  0.9648 -0.2166
18605TIP3    H277231   0.666   2.976   0.758  0.4833  1.1429 -1.2146
18606TIP3   OH277232   5.621   4.238   2.615 -0.0754  0.0944  0.1068
18606TIP3    H177233   5.638   4.296   2.689  1.5418  2.0651 -1.6901
18606TIP3    H277234   5.696   4.251   2.557 -0.8905 -1.9854 -1.5192
18607TIP3   OH277235   6.253   3.485   5.198 -0.0544 -0.0900 -0.3438
18607TIP3    H177236   6.295   3.562   5.236 -0.0596 -0.4083  0.3296
18607TIP3    H277237   6.176   3.470   5.253 -2.6176  1.9836 -3.0363
18608TIP3   OH277238   2.213   6.031  12.492  0.3831 -0.1929  0.1674
18608TIP3    H177239   2.267   6.024  12.570 -0.5350  0.9594  0.9235
18608TIP3    H277240   2.151   5.958  12.499 -0.4246  0.5759  1.0945
18609TIP3   OH277241   1.481   2.216  11.356  0.8020  0.0150  0.1197
18609TIP3    H177242   1.566   2.247  11.323 -0.7052  1.7522 -2.5445
18609TIP3    H277243   1.423   2.292  11.349 -1.4989 -1.6559 -0.2174
18610TIP3   OH277244   4.013   3.597   3.469  0.2756  0.5598 -0.3154
18610TIP3    H177245   4.015   3.693   3.474  0.0776  0.5024  2.4003
18610TIP3    H277246   3.922   3.574   3.490  0.1906 -0.2584 -1.4632
18611TIP3   OH277247   3.569   1.382   5.649  0.1186  0.0182 -0.0569
18611TIP3    H177248   3.595   1.348   5.563  0.1881 -0.7671  0.2748
18611TIP3    H277249   3.492   1.436   5.630 -1.0698 -1.6941 -0.3831
18612TIP3   OH277250   5.054   6.369  14.358 -0.5731 -0.3065 -0.1838
18612TIP3    H177251   5.093   6.448  14.394 -2.4039  0.5585 -0.0027
18612TIP3    H277252   4.982   6.400  14.303 -0.4195 -1.7888 -1.2924
18613TIP3   OH277253   2.056   3.580   0.624 -0.0637 -0.1601 -0.0592
18613TIP3    H177254   2.136   3.629   0.648 -1.3801  2.0558  0.1030
18613TIP3    H277255   2.060   3.500   0.676  3.1753 -1.2992 -1.7526
18614TIP3   OH277256   2.012   4.738   1.138  0.1864 -0.1293 -0.2346
18614TIP3    H177257   1.976   4.805   1.196 -1.1389  0.7034 -1.9234
18614TIP3    H277258   2.106   4.756   1.135  0.2536 -0.0903  1.4674
18615TIP3   OH277259   4.336   5.563   4.505  0.5498 -0.5709  0.6869
18615TIP3    H177260   4.297   5.582   4.590 -0.6333 -0.4545  0.1347
18615TIP3    H277261   4.369   5.648   4.474 -1.0731 -0.1474  0.0325
18616TIP3   OH277262   1.898   4.932  12.349  0.2181  0.5791  0.7913
18616TIP3    H177263   1.825   4.993  12.360 -0.8817 -0.5820  0.0798
18616TIP3    H277264   1.976   4.988  12.356 -0.7400  1.9975  0.6319
18617TIP3   OH277265   5.458   1.774  15.661 -0.2335  0.6693 -0.2038
18617TIP3    H177266   5.553   1.758  15.663 -0.4430 -0.7383  2.1895
18617TIP3    H277267   5.444   1.848  15.719 -0.5876  1.2406 -0.9917
18618TIP3   OH277268   3.662   0.431   4.599  0.1709 -0.0176 -0.5914
18618TIP3    H177269   3.578   0.388   4.583  0.5818 -1.2798  0.4316
18618TIP3    H277270   3.722   0.393   4.535  0.3128 -0.2701 -0.3123
18619TIP3   OH277271   5.373   4.123  13.842  0.1045  0.1412  0.1979
18619TIP3    H177272   5.371   4.216  13.861 -2.3364  0.2923 -0.5389
18619TIP3    H277273   5.400   4.118  13.750  1.0981  0.0324  0.4792
18620TIP3   OH277274   5.463   2.648  14.276  0.2155  0.5902  0.0523
18620TIP3    H177275   5.492   2.594  14.203 -1.9431 -0.4105 -0.1584
18620TIP3    H277276   5.368   2.645  14.271  0.0273  1.9487  1.8737
18621TIP3   OH277277   4.560   0.957   2.062 -0.4177 -0.4351 -0.3156
18621TIP3    H177278   4.649   0.923   2.051 -0.6340 -1.1587  0.1160
18621TIP3    H277279   4.554   1.029   1.999  0.5450 -0.2351 -0.1822
18622TIP3   OH277280   6.388   1.486   2.184  0.5721  0.2766 -0.1268
18622TIP3    H177281   6.400   1.562   2.241 -0.4168  0.2300  0.1494
18622TIP3    H277282   6.304   1.450   2.209  1.5139 -1.5728  0.5035
18623TIP3   OH277283   4.254   1.374   3.685 -0.3296  0.2723 -0.3216
18623TIP3    H177284   4.340   1.392   3.721  0.4055  0.4570 -2.0450
18623TIP3    H277285   4.197   1.440   3.724  0.1623 -0.1829  1.2434
18624TIP3   OH277286   5.049   3.060  16.089 -0.5073  0.0267 -0.0018
18624TIP3    H177287   5.046   3.009  16.170 -0.1063  1.7564  1.1713
18624TIP3    H277288   5.128   3.113  16.098 -1.6812  1.9482 -0.4155
18625TIP3   OH277289   1.589   5.604  12.324 -0.4668  0.6056 -0.6567
18625TIP3    H177290   1.526   5.544  12.284  1.3343 -1.3657 -0.7204
18625TIP3    H277291   1.546   5.634  12.404 -1.0519 -1.6283 -0.0671
18626TIP3   OH277292   4.185   2.415   4.679  0.4900  0.0669 -0.1129
18626TIP3    H177293   4.176   2.394   4.586  0.3121 -0.6349  0.0572
18626TIP3    H277294   4.195   2.510   4.681  0.5062  0.0893 -0.8498
18627TIP3   OH277295   2.736   1.708   4.337  0.1073  0.2282  0.4791
18627TIP3    H177296   2.778   1.755   4.265 -0.9436  0.9952  0.3384
18627TIP3    H277297   2.698   1.778   4.391  0.2428 -0.3759  1.3670
18628TIP3   OH277298   4.323   5.645  12.353  0.8267 -0.0637 -0.2027
18628TIP3    H177299   4.321   5.729  12.308  2.2351 -0.5629 -1.2879
18628TIP3    H277300   4.410   5.641  12.392  0.4036 -0.5902  0.7095
18629TIP3   OH277301   3.818   3.146   1.059 -0.2699 -0.1078  0.2752
18629TIP3    H177302   3.766   3.135   0.980 -2.7771 -1.8011  1.9970
18629TIP3    H277303   3.894   3.091   1.046 -1.3932 -1.5681 -0.4236
18630TIP3   OH277304   6.230   3.642  14.269  0.1308  0.1822 -0.3820
18630TIP3    H177305   6.289   3.575  14.303  1.1466  1.2305 -0.0259
18630TIP3    H277306   6.150   3.633  14.322  0.9964  0.5371  1.0467
18631TIP3   OH277307   2.169   1.667  12.952 -0.0786  0.1074 -0.6331
18631TIP3    H177308   2.250   1.618  12.964 -0.0150  0.2761 -0.3574
18631TIP3    H277309   2.187   1.753  12.990 -0.0358  0.5111 -1.5383
18632TIP3   OH277310   1.721   6.365  14.248 -0.3873 -0.5585  0.3380
18632TIP3    H177311   1.691   6.376  14.158  2.0388  0.7660 -0.3820
18632TIP3    H277312   1.766   6.281  14.249 -1.1663 -0.9787  0.5545
18633TIP3   OH277313   0.596   2.106  15.227 -0.3963  0.0238  0.0783
18633TIP3    H177314   0.648   2.181  15.257 -0.5070 -0.8611  2.8070
18633TIP3    H277315   0.515   2.112  15.277 -0.9504 -1.1887 -0.6507
18634TIP3   OH277316   1.372   4.870   4.425  0.1426 -0.1147  0.2515
18634TIP3    H177317   1.408   4.953   4.395  1.5422 -1.0841 -0.8751
18634TIP3    H277318   1.278   4.877   4.405 -0.0434  1.6937  1.4648
18635TIP3   OH277319   3.363   0.197  13.436 -0.0074  0.7213 -0.4436
18635TIP3    H177320   3.330   0.211  13.525  0.5417 -1.8025  0.2447
18635TIP3    H277321   3.313   0.122  13.405 -0.0571  1.4637 -2.2298
18636TIP3   OH277322   5.470   6.546   2.307  0.2460  0.6249  0.3339
18636TIP3    H177323   5.407   6.475   2.296 -0.1728  1.0376  0.0136
18636TIP3    H277324   5.549   6.515   2.262  0.0306  0.4081  0.1005
18637TIP3   OH277325   4.586   3.273   5.828 -0.5298 -0.1156  0.6696
18637TIP3    H177326   4.560   3.276   5.736 -0.9866  0.7114  0.8221
18637TIP3    H277327   4.617   3.361   5.847  1.0954 -0.7093  0.8827
18638TIP3   OH277328   5.919   1.472  14.815 -0.0221 -0.1725  0.4721
18638TIP3    H177329   5.961   1.527  14.881  0.3090  0.0374  0.0973
18638TIP3    H277330   5.826   1.481  14.831 -0.0034  1.0441 -0.0096
18639TIP3   OH277331   3.242   2.702  14.269 -0.1070  0.1639  0.4232
18639TIP3    H177332   3.271   2.729  14.182  0.3829 -0.9174  0.2300
18639TIP3    H277333   3.318   2.657  14.306 -0.5757 -0.0949  1.0933
18640TIP3   OH277334   1.931   3.954  13.304 -0.0988  0.1272  0.1291
18640TIP3    H177335   1.920   3.864  13.272 -0.6213 -0.2412  1.3014
18640TIP3    H277336   2.026   3.968  13.304 -0.0579 -0.0831 -0.9506
18641TIP3   OH277337   2.899   6.648  11.122  0.1857 -0.5377  0.3357
18641TIP3    H177338   2.903   6.553  11.133  0.7685 -0.4709  0.7497
18641TIP3    H277339   2.866   6.660  11.033 -1.9344 -1.1127  0.9827
18642TIP3   OH277340   4.838   4.808  13.482 -0.7730  0.1747 -0.1433
18642TIP3    H177341   4.825   4.783  13.573  0.4856  0.2763  0.0864
18642TIP3    H277342   4.856   4.726  13.436  1.6221  0.3778  0.2921
18643TIP3   OH277343   3.151   2.603  12.059  0.1442  0.0823 -0.0193
18643TIP3    H177344   3.128   2.511  12.067 -0.6869  0.3093  0.3554
18643TIP3    H277345   3.194   2.624  12.142 -1.5679  0.5332  0.8055
18644TIP3   OH277346   0.303   5.986   4.915 -0.3030  0.5723 -0.0264
18644TIP3    H177347   0.263   5.926   4.852 -0.1338 -0.4804  0.8264
18644TIP3    H277348   0.363   6.039   4.863  1.0030 -1.3099 -0.5742
18645TIP3   OH277349   2.693   3.918   2.205  0.2917 -0.6564 -0.1740
18645TIP3    H177350   2.696   4.014   2.200 -0.3351 -0.6683 -1.0419
18645TIP3    H277351   2.779   3.890   2.174  0.2613 -0.3868 -0.5084
18646TIP3   OH277352   5.155   1.829  16.362 -0.7229  0.0043  0.4627
18646TIP3    H177353   5.231   1.772  16.350 -0.3652  0.1547  1.8549
18646TIP3    H277354   5.086   1.771  16.394 -0.3743  0.3042  1.8317
18647TIP3   OH277355   5.180   5.096   3.023  0.4118 -0.2203 -0.0906
18647TIP3    H177356   5.212   5.128   2.938 -0.9031 -1.7740 -1.2549
18647TIP3    H277357   5.159   5.004   3.007  0.1403 -0.5633  1.9570
18648TIP3   OH277358   6.014   4.113  16.064  0.5565 -0.1577  0.2083
18648TIP3    H177359   6.028   4.173  16.137 -0.5127  0.8563 -0.3868
18648TIP3    H277360   5.920   4.093  16.066  0.3411  0.5544 -1.3637
18649TIP3   OH277361   1.386   1.403  15.024 -0.4074 -0.0907 -0.7325
18649TIP3    H177362   1.462   1.455  15.050 -0.1388 -0.7399 -0.1934
18649TIP3    H277363   1.343   1.455  14.957  0.2356  0.5144 -0.6818
18650TIP3   OH277364   2.550   3.611  14.597 -0.3043 -0.3382  0.3672
18650TIP3    H177365   2.516   3.607  14.686  1.9889 -3.0253  1.2597
18650TIP3    H277366   2.641   3.583  14.605  0.4185  0.7708 -2.6620
18651TIP3   OH277367   2.979   2.485   6.243 -0.3229 -0.1402  0.4187
18651TIP3    H177368   2.911   2.441   6.193 -1.2538  0.7502  0.8731
18651TIP3    H277369   2.938   2.509   6.326  0.5305  0.4286  0.6980
18652TIP3   OH277370   3.324   1.533  14.247  0.0208 -0.0052  0.0012
18652TIP3    H177371   3.372   1.596  14.301 -2.7460  0.7275  1.8370
18652TIP3    H277372   3.354   1.448  14.277 -1.2944  0.3757  2.7645
18653TIP3   OH277373   0.274   5.086   1.933 -0.6325  0.1372 -0.4795
18653TIP3    H177374   0.252   5.176   1.959  0.4691 -0.2618  2.1791
18653TIP3    H277375   0.190   5.045   1.916 -1.1235  1.8781 -2.7930
18654TIP3   OH277376   6.259   1.161   6.092 -0.5782  0.4121 -0.6653
18654TIP3    H177377   6.303   1.105   6.028 -1.2649  2.0251 -2.6283
18654TIP3    H277378   6.198   1.102   6.137 -0.6071 -0.6367 -2.0048
18655TIP3   OH277379   0.518   2.762  12.174  0.0608 -0.9609 -0.4521
18655TIP3    H177380   0.448   2.699  12.156  0.0438 -0.8500 -0.7840
18655TIP3    H277381   0.535   2.803  12.089  1.3844 -1.8693 -0.6580
18656TIP3   OH277382   4.177   2.738   4.719 -0.2276  0.3963  0.1193
18656TIP3    H177383   4.103   2.726   4.778 -2.1541  0.2711 -2.1534
18656TIP3    H277384   4.169   2.827   4.687 -0.8112 -0.2931 -1.8315
18657TIP3   OH277385   6.252   6.174   1.501  0.0673 -0.1909  0.2208
18657TIP3    H177386   6.323   6.238   1.490  0.5773 -0.9376 -1.1570
18657TIP3    H277387   6.172   6.225   1.491  0.4611  0.0435 -2.7792
18658TIP3   OH277388   4.096   5.460  12.386  0.2209  0.2613  0.1085
18658TIP3    H177389   4.155   5.535  12.379  1.3246 -0.5395  0.5708
18658TIP3    H277390   4.152   5.384  12.373 -0.8625 -0.5017 -0.2433
18659TIP3   OH277391   0.813   3.567   2.346 -0.4933 -0.8216 -0.5408
18659TIP3    H177392   0.865   3.578   2.266 -0.7070  1.4729 -0.4464
18659TIP3    H277393   0.878   3.565   2.416 -0.3702 -1.4241 -0.6721
18660TIP3   OH277394   3.060   5.955   1.414 -0.1177  0.3172  0.1558
18660TIP3    H177395   3.027   5.895   1.347 -1.2109  0.5186  0.4942
18660TIP3    H277396   3.069   6.039   1.369 -0.4958  0.3645  0.1666
18661TIP3   OH277397   0.858   0.695   3.922  0.1861  0.5102 -0.0894
18661TIP3    H177398   0.817   0.760   3.865  1.2738  1.2583 -0.0591
18661TIP3    H277399   0.947   0.686   3.888  0.6797  0.5537  1.1385
18662TIP3   OH277400   3.952   1.939   3.630  0.0873  0.1269 -0.6553
18662TIP3    H177401   3.951   1.845   3.645 -0.6248  0.4556  1.7368
18662TIP3    H277402   3.882   1.973   3.685  0.5301  2.0959 -1.2258
18663TIP3   OH277403   1.147   1.347  12.993  0.4043 -0.4099 -0.0786
18663TIP3    H177404   1.236   1.376  13.010  0.2259 -0.4102  0.8768
18663TIP3    H277405   1.128   1.380  12.905  0.9737  0.4841  0.1212
18664TIP3   OH277406   2.763   2.785   5.131 -0.0218  0.0039  0.1546
18664TIP3    H177407   2.850   2.753   5.157 -0.3403 -1.4372 -0.4319
18664TIP3    H277408   2.702   2.735   5.186 -0.5195  0.1285 -0.2745
18665TIP3   OH277409   1.786   0.767  11.941  0.4633 -0.1290 -0.2486
18665TIP3    H177410   1.876   0.798  11.955  0.0128  1.7755 -1.1808
18665TIP3    H277411   1.785   0.737  11.850  0.1922 -0.2517 -0.2055
18666TIP3   OH277412   1.922   3.320  15.257  0.1824  0.5243 -0.0746
18666TIP3    H177413   1.975   3.324  15.337  0.7283  0.3093 -0.4228
18666TIP3    H277414   1.981   3.346  15.187 -0.3703  0.9781 -0.3813
18667TIP3   OH277415   2.316   6.721  12.614 -0.2975 -0.3313  0.0207
18667TIP3    H177416   2.288   6.715  12.706 -1.1669  0.3169 -0.1831
18667TIP3    H277417   2.389   6.660  12.607 -1.7457 -2.2153  0.5600
18668TIP3   OH277418   2.909   1.410  12.838  0.3252 -0.1479 -0.0535
18668TIP3    H177419   2.888   1.481  12.776 -0.4196 -1.5298 -1.4432
18668TIP3    H277420   3.004   1.414  12.847  0.1169  3.1521  2.5766
18669TIP3   OH277421   6.764   0.083  14.940  0.5293  0.2604  0.6207
18669TIP3    H177422   6.761  -0.003  14.983 -0.6204  0.2373  0.5227
18669TIP3    H277423   6.772   0.062  14.847 -2.9745  0.1000  0.2259
18670TIP3   OH277424   2.261   2.977   5.118 -0.3348  0.2336 -0.4977
18670TIP3    H177425   2.342   3.011   5.080  0.2471 -1.1813 -0.5748
18670TIP3    H277426   2.277   2.978   5.213  0.5492 -1.7499 -0.5602
18671TIP3   OH277427   5.778   4.090   5.292  0.0462 -0.2020 -0.3246
18671TIP3    H177428   5.834   4.024   5.251  0.5984 -0.3847  0.6874
18671TIP3    H277429   5.694   4.082   5.247  1.2340  1.1285 -2.9504
18672TIP3   OH277430   4.856   0.652  14.083  0.3665 -0.5776 -0.2422
18672TIP3    H177431   4.825   0.580  14.138 -1.1065 -0.3852 -0.7767
18672TIP3    H277432   4.782   0.673  14.027  0.7877  1.3410 -0.1403
18673TIP3   OH277433   4.828   2.042  13.442  0.3004 -0.6901  0.1474
18673TIP3    H177434   4.753   2.082  13.398 -0.5152 -0.1513  1.9367
18673TIP3    H277435   4.903   2.061  13.385 -0.4399  1.3866 -0.1900
18674TIP3   OH277436   3.925   6.555  10.716 -0.0705  0.0942 -0.3855
18674TIP3    H177437   4.002   6.506  10.688 -1.9376 -2.8758 -0.8445
18674TIP3    H277438   3.956   6.644  10.730  3.4026 -0.9751 -0.4634
18675TIP3   OH277439   4.426   5.878  13.901  0.3793 -0.2176 -0.0517
18675TIP3    H177440   4.397   5.969  13.897  0.1559  0.0170  3.6969
18675TIP3    H277441   4.521   5.883  13.909  0.2466 -0.1263  1.9569
18676TIP3   OH277442   4.275   4.014  15.259  0.0175 -0.0809 -0.0350
18676TIP3    H177443   4.347   4.004  15.196 -1.0595 -0.3089 -1.2861
18676TIP3    H277444   4.271   4.108  15.277  1.4225 -0.2101  1.0373
18677TIP3   OH277445   4.245   1.324  12.420  0.1345  0.5379  0.1016
18677TIP3    H177446   4.279   1.336  12.332  0.5997  0.7439  0.3055
18677TIP3    H277447   4.262   1.407  12.464  1.1447 -0.0070  0.7870
18678TIP3   OH277448   4.383   6.705  16.585  0.0322  0.1596 -0.3138
18678TIP3    H177449   4.423   6.724  16.500  2.1319  1.7073  0.9247
18678TIP3    H277450   4.449   6.655  16.632 -0.9481 -0.3391  0.5702
18679TIP3   OH277451   2.273   3.573  14.677 -0.4367  0.2065 -0.2950
18679TIP3    H177452   2.286   3.599  14.586  1.0714 -0.2530 -0.2389
18679TIP3    H277453   2.250   3.654  14.722  0.1397  0.6890 -0.8520
18680TIP3   OH277454   2.637   6.310   3.420  0.3473  0.5151 -0.4139
18680TIP3    H177455   2.617   6.308   3.326  0.2249 -1.3361 -0.3795
18680TIP3    H277456   2.553   6.294   3.463  0.7439 -0.7254 -0.0714
18681TIP3   OH277457   1.477   3.327   0.725 -0.0155 -0.3872 -0.1189
18681TIP3    H177458   1.478   3.409   0.677 -0.3537 -1.7049 -2.5264
18681TIP3    H277459   1.547   3.275   0.686  0.8818 -0.9378  2.0484
18682TIP3   OH277460   0.958   2.956   0.562 -0.1413  0.4082  0.0815
18682TIP3    H177461   0.942   3.002   0.479  0.0383 -0.3908 -0.4058
18682TIP3    H277462   0.873   2.953   0.605 -0.4660 -0.1309 -0.5792
18683TIP3   OH277463   2.360   1.541  13.312  0.1350  0.1993 -0.2734
18683TIP3    H177464   2.274   1.582  13.300 -0.4878 -1.4910 -2.3767
18683TIP3    H277465   2.408   1.563  13.232  1.1322 -0.0629  0.2452
18684TIP3   OH277466   3.299   3.286  13.175  0.3038 -0.0078 -0.3367
18684TIP3    H177467   3.324   3.203  13.136 -0.4970 -0.2859 -0.2909
18684TIP3    H277468   3.380   3.322  13.211  1.0855  0.3095 -2.3168
18685TIP3   OH277469   2.506   2.261   0.320 -0.8520 -0.4736 -0.2205
18685TIP3    H177470   2.467   2.175   0.305 -2.3256  0.1792 -0.2898
18685TIP3    H277471   2.596   2.252   0.290 -0.8681 -2.0899  0.0985
18686TIP3   OH277472   2.947   6.715   1.779  0.2592  0.4453  0.2173
18686TIP3    H177473   3.004   6.785   1.811 -0.1819  0.4265  1.0677
18686TIP3    H277474   2.872   6.760   1.740  0.2786  0.4572  0.1943
18687TIP3   OH277475   1.426   4.740  11.926  0.2609 -0.0823  0.2037
18687TIP3    H177476   1.486   4.812  11.907 -0.2192  0.1696 -0.3878
18687TIP3    H277477   1.475   4.683  11.984  1.4280 -0.3594 -1.0080
18688TIP3   OH277478   6.393   3.939   0.513  0.5048 -0.5279 -0.0063
18688TIP3    H177479   6.471   3.936   0.458  0.7388  1.0571  0.1791
18688TIP3    H277480   6.344   4.015   0.481 -0.2423 -0.6427  0.8074
18689TIP3   OH277481   3.968   5.387   3.607  0.0369  0.3708  0.4501
18689TIP3    H177482   4.017   5.384   3.689  0.9091 -0.1769 -0.0877
18689TIP3    H277483   3.901   5.454   3.623  1.4216  1.7085  0.9361
18690TIP3   OH277484   2.458   5.140   2.885 -0.2946 -0.3018 -0.2872
18690TIP3    H177485   2.535   5.129   2.941 -0.0050  0.3998 -0.5356
18690TIP3    H277486   2.423   5.051   2.874 -0.8216 -0.3676  1.6355
18691TIP3   OH277487   6.087   4.150  12.336 -0.1818 -0.5108 -0.2825
18691TIP3    H177488   6.107   4.068  12.290  1.1938 -1.0440  1.1898
18691TIP3    H277489   5.995   4.141  12.362 -0.3822 -1.0617 -1.1401
18692TIP3   OH277490   0.695   5.643   5.724  0.6493 -0.0449 -0.0027
18692TIP3    H177491   0.728   5.574   5.782  2.0142 -0.4669 -1.2394
18692TIP3    H277492   0.715   5.724   5.771  0.8810 -0.4113  0.5473
18693TIP3   OH277493   2.872   3.021  13.796  0.3891 -0.1726 -0.5409
18693TIP3    H177494   2.947   3.071  13.828 -0.1031  0.6066 -0.5906
18693TIP3    H277495   2.828   3.079  13.734 -0.9327 -0.1541  0.3647
18694TIP3   OH277496   6.470   0.899   0.143 -0.6131 -0.1305  0.7923
18694TIP3    H177497   6.458   0.983   0.099  0.4363 -0.2276  0.2888
18694TIP3    H277498   6.400   0.844   0.108 -1.3128  0.5350  1.1356
18695TIP3   OH277499   3.645   4.159   5.562 -0.6026  0.2361  0.4476
18695TIP3    H177500   3.739   4.166   5.576 -0.5911  2.8770 -0.4663
18695TIP3    H277501   3.635   4.095   5.492  0.5128 -0.1228  0.6085
18696TIP3   OH277502   3.291   3.782  12.993  0.0310 -0.2466  0.3415
18696TIP3    H177503   3.329   3.801  12.907  0.6627 -0.0675  0.6551
18696TIP3    H277504   3.304   3.687  13.005 -2.8656 -0.9409 -1.0982
18697TIP3   OH277505   1.060   3.763   5.063  0.1418 -0.2203  0.0850
18697TIP3    H177506   1.093   3.786   5.150 -0.1976 -0.2159  0.2155
18697TIP3    H277507   1.138   3.753   5.009  0.3812 -0.6989  0.5098
18698TIP3   OH277508   1.751   6.294  14.869  0.4387  0.1490  0.1874
18698TIP3    H177509   1.743   6.239  14.947 -0.6342 -0.5994 -0.4187
18698TIP3    H277510   1.730   6.236  14.796 -4.2281  1.9615 -0.3026
18699TIP3   OH277511   6.402   5.324  15.781  0.6414  0.2049  0.2502
18699TIP3    H177512   6.495   5.345  15.768  0.8795 -1.4030 -0.9494
18699TIP3    H277513   6.397   5.230  15.768 -1.0338  0.1264  1.2326
18700TIP3   OH277514   0.546   3.011  15.376  0.4475  0.5773 -0.6191
18700TIP3    H177515   0.553   2.949  15.303 -0.1267  0.8174 -0.8863
18700TIP3    H277516   0.459   3.050  15.365  0.3836  0.6550  0.1650
18701TIP3   OH277517   1.990   5.761  17.308  1.0708 -0.1201  0.2388
18701TIP3    H177518   1.963   5.669  17.311 -0.6762  0.3784  2.7219
18701TIP3    H277519   1.909   5.811  17.318  2.1806  1.6265  1.0821
18702TIP3   OH277520   3.627   1.912  15.259 -0.0416  0.4562 -0.3934
18702TIP3    H177521   3.640   1.977  15.328  0.3403 -0.0344  0.0121
18702TIP3    H277522   3.592   1.836  15.305 -0.7540  0.4665 -0.9066
18703TIP3   OH277523   1.094   5.452  12.809 -0.0060  0.3206  0.2098
18703TIP3    H177524   1.071   5.362  12.787  0.9419  0.3493 -0.9593
18703TIP3    H277525   1.148   5.444  12.888 -0.9151 -0.0112  0.8262
18704TIP3   OH277526   2.367   3.752   4.959 -0.3435  0.1318 -0.3366
18704TIP3    H177527   2.378   3.710   5.045  3.5135 -1.0255 -1.2138
18704TIP3    H277528   2.410   3.837   4.968  1.7778 -0.7382 -1.4848
18705TIP3   OH277529   6.642   1.421   1.876 -0.3870  0.2351 -0.2922
18705TIP3    H177530   6.646   1.330   1.848  0.1503 -0.2423  1.2296
18705TIP3    H277531   6.660   1.418   1.970 -3.0888  1.6167  0.3632
18706TIP3   OH277532   2.996   2.138  12.179 -0.1229  0.3498  0.5593
18706TIP3    H177533   3.087   2.135  12.152 -0.4730 -1.0639 -0.6169
18706TIP3    H277534   2.983   2.059  12.231 -0.7345  0.3994  0.4953
18707TIP3   OH277535   0.942   6.089  16.483  0.5484 -0.6566 -0.4648
18707TIP3    H177536   0.963   6.168  16.533  1.5904 -1.0984 -0.1928
18707TIP3    H277537   1.026   6.053  16.457  0.2108 -2.6748  0.9707
18708TIP3   OH277538   0.190   2.678  17.281  0.0152  0.2331 -0.1957
18708TIP3    H177539   0.173   2.769  17.259 -0.6619  0.8204  2.4110
18708TIP3    H277540   0.283   2.675  17.304 -0.3570  0.7163  1.4783
18709TIP3   OH277541   4.269   2.155   4.807  0.0779 -0.0672 -1.1260
18709TIP3    H177542   4.221   2.092   4.861  1.7835 -0.7350 -0.3137
18709TIP3    H277543   4.202   2.216   4.775 -1.0609  0.1625  1.4823
18710TIP3   OH277544   0.531   0.406  16.185 -0.4877  0.6299  0.6488
18710TIP3    H177545   0.435   0.406  16.186 -0.5075  1.0458 -0.0144
18710TIP3    H277546   0.554   0.362  16.103 -0.0967  0.1875  0.9862
18711TIP3   OH277547   4.270   3.417   5.550 -0.2664 -0.3625 -0.4194
18711TIP3    H177548   4.239   3.363   5.623 -3.4164  0.7533 -0.7448
18711TIP3    H277549   4.330   3.480   5.590 -3.1923  1.3356  1.7299
18712TIP3   OH277550   3.395   2.248   1.019  0.4954  0.3054 -0.4074
18712TIP3    H177551   3.483   2.229   1.052 -0.4497 -1.4337  1.3372
18712TIP3    H277552   3.349   2.164   1.024 -2.5470  1.9268  2.8941
18713TIP3   OH277553   2.140   5.162  12.215  0.0317 -0.1099 -0.2990
18713TIP3    H177554   2.121   5.177  12.122  0.5356  1.6025 -0.1641
18713TIP3    H277555   2.139   5.250  12.254  3.1828 -0.3759  0.6593
18714TIP3   OH277556   0.488   6.094  12.538 -0.4288 -0.0228 -0.5084
18714TIP3    H177557   0.460   6.158  12.603  0.0745 -2.9689  2.8920
18714TIP3    H277558   0.583   6.091  12.546 -0.3727 -0.6035 -1.2348
18715TIP3   OH277559   2.386   2.110  13.533  0.3609  0.5865  0.0240
18715TIP3    H177560   2.482   2.118  13.536  0.6004 -1.6549  3.0482
18715TIP3    H277561   2.355   2.173  13.598 -0.0858  0.2484  0.1460
18716TIP3   OH277562   6.523   3.403   5.275  0.5620  0.3102  0.1235
18716TIP3    H177563   6.583   3.368   5.340 -1.5686  0.1464  2.1091
18716TIP3    H277564   6.439   3.363   5.295 -0.2323  0.3422 -2.6954
18717TIP3   OH277565   0.977   0.483  12.227  0.2953 -0.0220 -0.0005
18717TIP3    H177566   0.989   0.469  12.321  1.2367  0.1039 -0.0915
18717TIP3    H277567   0.955   0.576  12.220 -0.2303 -0.1348  0.1309
18718TIP3   OH277568   3.134   4.145   2.427 -0.4568 -0.4298  0.0300
18718TIP3    H177569   3.046   4.135   2.464 -0.7788 -0.2307 -0.6680
18718TIP3    H277570   3.121   4.139   2.333  0.2906 -0.4522 -0.0778
18719TIP3   OH277571   5.577   2.962  14.698  0.1039 -0.2894 -0.4431
18719TIP3    H177572   5.491   2.944  14.737 -0.3894 -2.4747 -2.3317
18719TIP3    H277573   5.640   2.930  14.762 -0.4385  1.0978  0.8455
18720TIP3   OH277574   6.046   4.681   0.575 -0.1414 -0.4974  0.4090
18720TIP3    H177575   6.121   4.648   0.625 -1.3360 -0.9059  2.0442
18720TIP3    H277576   5.995   4.602   0.554 -0.3606 -0.1822 -0.2693
18721TIP3   OH277577   2.918   6.654   5.558  0.3245 -0.0465  0.2653
18721TIP3    H177578   2.973   6.723   5.520  1.4441 -1.0922 -0.0519
18721TIP3    H277579   2.977   6.580   5.571 -1.2016 -1.5947 -1.0946
18722TIP3   OH277580   4.882   0.399  11.132  0.1370  0.4286 -0.2472
18722TIP3    H177581   4.960   0.345  11.142 -0.4273 -0.4034 -0.1713
18722TIP3    H277582   4.837   0.361  11.056 -0.1055  1.0046 -0.3958
18723TIP3   OH277583   5.668   0.804  16.218 -0.1741 -0.3294 -0.3860
18723TIP3    H177584   5.652   0.714  16.247 -1.2928  0.3495  1.3111
18723TIP3    H277585   5.583   0.833  16.183  0.5127 -0.3175 -2.1162
18724TIP3   OH277586   1.354   3.677  12.448  0.6163 -0.0412 -0.5621
18724TIP3    H177587   1.304   3.755  12.471  0.2231 -0.9866  2.1104
18724TIP3    H277588   1.355   3.677  12.352 -1.5402  1.8659 -0.6768
18725TIP3   OH277589   5.044   1.490   3.226  0.7816  0.2793  0.3661
18725TIP3    H177590   5.024   1.396   3.226  2.0709 -0.0073  1.1359
18725TIP3    H277591   4.959   1.532   3.236 -0.1456 -0.7049 -2.3409
18726TIP3   OH277592   0.222   4.407  16.849 -0.1923  0.0117 -0.0377
18726TIP3    H177593   0.288   4.392  16.917  1.2340  1.0818 -1.1253
18726TIP3    H277594   0.178   4.487  16.877 -1.6307 -1.1224  1.0984
18727TIP3   OH277595   1.387   4.323  11.911 -0.0884 -0.6162 -0.0855
18727TIP3    H177596   1.465   4.365  11.948  0.2545 -0.9742 -0.3962
18727TIP3    H277597   1.378   4.241  11.959 -0.9487 -0.0715  0.7487
18728TIP3   OH277598   5.049   3.976   0.228 -0.6988  0.3795  0.2114
18728TIP3    H177599   5.136   4.001   0.197 -0.4653 -1.2006 -0.4608
18728TIP3    H277600   5.060   3.888   0.263 -2.3594 -0.5573 -1.4576
18729TIP3   OH277601   2.588   2.971   1.214  0.0356 -0.0390  0.7424
18729TIP3    H177602   2.555   2.881   1.226  1.1018 -0.5612 -0.1217
18729TIP3    H277603   2.623   2.972   1.126 -1.7161  1.8162 -0.0108
18730TIP3   OH277604   2.256   4.731  15.812 -0.1690  0.6097 -0.2602
18730TIP3    H177605   2.349   4.747  15.801 -0.0939  0.7093  0.4589
18730TIP3    H277606   2.217   4.756  15.729  0.4847  0.2310 -0.6897
18731TIP3   OH277607   0.443   3.135   6.273 -0.2907  0.4954 -0.3582
18731TIP3    H177608   0.433   3.230   6.267  0.9881  0.6593 -0.2910
18731TIP3    H277609   0.538   3.121   6.270 -0.4461 -0.7591 -0.0413
18732TIP3   OH277610   4.327   2.969  15.449 -0.4720 -0.0182  0.5838
18732TIP3    H177611   4.417   2.994  15.469 -0.9185  0.3611  2.3767
18732TIP3    H277612   4.324   2.874  15.462  0.0550 -0.3143 -1.2485
18733TIP3   OH277613   2.480   1.313   2.447  0.2194 -0.3278  0.4690
18733TIP3    H177614   2.566   1.346   2.473  0.0980 -0.2667  0.8017
18733TIP3    H277615   2.447   1.378   2.384  0.6210 -0.6052 -0.0349
18734TIP3   OH277616   3.318   4.794   3.723 -0.1912 -0.6697 -0.2466
18734TIP3    H177617   3.298   4.829   3.636  0.5069 -1.3861 -0.7047
18734TIP3    H277618   3.400   4.747   3.712  0.3241 -0.1025  0.9913
18735TIP3   OH277619   5.066   0.382   5.214 -0.1764 -0.7660  0.0154
18735TIP3    H177620   4.987   0.407   5.261 -0.3515 -1.4911  0.1202
18735TIP3    H277621   5.132   0.371   5.282  0.9667  3.0001 -0.2685
18736TIP3   OH277622   5.134   3.695  14.556 -0.2718  0.4292  0.0987
18736TIP3    H177623   5.094   3.717  14.640 -2.0199  2.7310 -1.2077
18736TIP3    H277624   5.111   3.603  14.541  0.0276  0.0009  2.0467
18737TIP3   OH277625   2.423   6.255   0.822 -0.0820  0.3123  0.8681
18737TIP3    H177626   2.419   6.160   0.819 -0.2203  0.3361  0.1598
18737TIP3    H277627   2.377   6.278   0.903 -0.8506 -0.1814  0.5864
18738TIP3   OH277628   2.027   3.425   4.905 -0.4018  0.4034 -0.3955
18738TIP3    H177629   1.948   3.469   4.937  0.0802 -0.1104  1.6549
18738TIP3    H277630   1.999   3.380   4.825 -2.4513 -0.5178  0.7696
18739TIP3   OH277631   3.463   1.777  16.939  0.1346 -0.1668 -0.3523
18739TIP3    H177632   3.432   1.791  16.849 -0.7350 -1.5051 -0.2959
18739TIP3    H277633   3.558   1.768  16.929 -0.0735 -1.6634 -1.3673
18740TIP3   OH277634   2.919   4.795  15.352 -1.0790  0.1575 -0.1274
18740TIP3    H177635   2.950   4.824  15.438 -1.2745 -1.4707  0.5229
18740TIP3    H277636   2.849   4.733  15.371 -0.7319 -0.6857 -1.4450
18741TIP3   OH277637   5.989   4.473   3.922  0.1404  0.3612  0.0385
18741TIP3    H177638   5.975   4.404   3.987  0.4941  1.3797  1.2298
18741TIP3    H277639   5.921   4.538   3.941  0.2234  0.6523 -0.6377
18742TIP3   OH277640   4.046   2.775  16.869 -0.2545 -0.6134  0.3180
18742TIP3    H177641   3.994   2.791  16.791 -0.8738 -1.2152  0.5990
18742TIP3    H277642   4.123   2.727  16.838  0.2219  0.3807 -0.1132
18743TIP3   OH277643   5.047   6.099   0.433 -0.3121  0.4371  0.2779
18743TIP3    H177644   5.051   6.019   0.486 -1.0048 -0.2848 -0.7313
18743TIP3    H277645   5.018   6.167   0.494  0.5994  0.0022  1.2218
18744TIP3   OH277646   3.575   1.137   5.222 -0.6663  0.5376 -0.7433
18744TIP3    H177647   3.553   1.043   5.219 -1.9088  0.7285  1.0050
18744TIP3    H277648   3.649   1.146   5.161  0.0857 -1.7411 -0.2771
18745TIP3   OH277649   4.000   4.121  13.793  1.2305 -1.2758  0.7271
18745TIP3    H177650   4.027   4.033  13.767  0.0056 -1.4346 -0.1140
18745TIP3    H277651   3.922   4.138  13.741  0.4309 -0.3747  2.1380
18746TIP3   OH277652   5.354   1.606  11.541  0.0609  0.2273 -0.4852
18746TIP3    H177653   5.260   1.612  11.560  0.2382  0.0578  0.4960
18746TIP3    H277654   5.382   1.524  11.582  1.1310  1.5029  1.5083
18747TIP3   OH277655   1.063   4.004   1.391  0.1096  0.5924  0.5897
18747TIP3    H177656   1.154   3.975   1.387 -0.4995 -1.3339 -0.9395
18747TIP3    H277657   1.046   4.014   1.485  1.7992  0.7168  0.9211
18748TIP3   OH277658   1.610   1.546   4.816  0.1535 -0.3405 -0.4950
18748TIP3    H177659   1.650   1.588   4.741 -0.6757 -0.6994 -1.1628
18748TIP3    H277660   1.681   1.498   4.859  1.0936  1.6153  0.2270
18749TIP3   OH277661   4.882   3.634   0.163  0.4306  0.5547  0.7593
18749TIP3    H177662   4.911   3.564   0.104 -0.8146 -0.0733  0.8653
18749TIP3    H277663   4.963   3.678   0.189  1.0248  0.8534 -1.4051
18750TIP3   OH277664   6.105   1.792  17.322 -0.0603  0.1954 -0.5874
18750TIP3    H177665   6.196   1.781  17.294 -0.0466 -0.5719 -0.2933
18750TIP3    H277666   6.089   1.886  17.318  0.2659  0.2131 -2.1046
18751TIP3   OH277667   0.083   2.684  14.919  0.3999 -0.6177 -0.2997
18751TIP3    H177668   0.138   2.668  14.996 -1.2414  1.1926  1.3763
18751TIP3    H277669   0.114   2.769  14.885 -0.0031 -0.5826 -0.5819
18752TIP3   OH277670   0.089   3.099  11.704  0.0362  0.1409 -0.5583
18752TIP3    H177671   0.119   3.186  11.675  1.7108 -0.7402 -1.6244
18752TIP3    H277672   0.047   3.062  11.626 -0.9119  0.0761 -0.0251
18753TIP3   OH277673   0.724   5.118  17.310  0.0805  0.1121 -0.1888
18753TIP3    H177674   0.734   5.185  17.377  1.6307  0.3765 -0.6491
18753TIP3    H277675   0.712   5.037  17.359  1.4855  0.2546  0.4474
18754TIP3   OH277676   0.957   2.143  14.961  0.5140  0.1029 -0.1580
18754TIP3    H177677   0.884   2.141  14.899  0.7713 -0.8217 -0.4565
18754TIP3    H277678   0.931   2.083  15.031  1.0369 -0.3584 -0.3449
18755TIP3   OH277679   0.954   1.383   1.210  0.3441 -0.2671  0.4273
18755TIP3    H177680   0.910   1.467   1.216  0.3153 -0.3333  1.3410
18755TIP3    H277681   1.045   1.404   1.187 -0.4589 -0.2151 -3.4293
18756TIP3   OH277682   3.893   3.726   4.717  0.5180 -0.5950 -0.2526
18756TIP3    H177683   3.986   3.751   4.713  0.7672 -1.1679  1.3662
18756TIP3    H277684   3.852   3.775   4.645  2.3894 -1.7781 -2.2753
18757TIP3   OH277685   1.287   2.318  12.009  0.2623 -0.1273 -0.1201
18757TIP3    H177686   1.355   2.270  12.057  0.0249  0.2403  0.5955
18757TIP3    H277687   1.335   2.377  11.952  0.5727 -1.4481 -1.2961
18758TIP3   OH277688   2.911   5.319  13.040 -0.0682 -0.0165 -0.1306
18758TIP3    H177689   2.857   5.312  12.961 -0.3946 -0.3915  0.1223
18758TIP3    H277690   3.000   5.306  13.009 -0.0966  0.8177 -0.5842
18759TIP3   OH277691   2.048   6.534   5.084 -0.1390  0.2900  0.1400
18759TIP3    H177692   2.051   6.626   5.057 -0.2255 -0.0151 -0.9176
18759TIP3    H277693   2.065   6.537   5.179 -1.2133  1.4840  0.3189
18760TIP3   OH277694   2.590   1.713  12.321 -0.8043  0.9194  0.2621
18760TIP3    H177695   2.680   1.739  12.342  0.2042 -0.7828 -1.6091
18760TIP3    H277696   2.551   1.790  12.280 -0.4913  1.9120  1.7353
18761TIP3   OH277697   4.674   4.791  11.858 -0.1438  0.1122 -0.0860
18761TIP3    H177698   4.682   4.696  11.851  4.1694  0.1399  1.2023
18761TIP3    H277699   4.632   4.805  11.944 -0.2482 -0.6258 -0.0118
18762TIP3   OH277700   4.103   4.448  13.548 -0.1869  0.0331  0.1599
18762TIP3    H177701   4.033   4.489  13.598  0.2913  1.3099 -0.1750
18762TIP3    H277702   4.080   4.463  13.456 -0.4171 -1.1839  0.0041
18763TIP3   OH277703   3.101   3.163  14.357 -0.0952  0.7090  0.0777
18763TIP3    H177704   3.034   3.180  14.291 -0.4197 -2.6805 -0.6671
18763TIP3    H277705   3.053   3.141  14.436  0.1851  0.2622  0.1265
18764TIP3   OH277706   3.453   3.880   5.074 -0.1066  0.0403  0.4092
18764TIP3    H177707   3.548   3.880   5.080  0.0057 -1.8309 -0.3906
18764TIP3    H277708   3.424   3.945   5.137  1.7628  2.3932 -1.0059
18765TIP3   OH277709   6.710   3.622  16.271  0.1384 -0.0167 -0.1180
18765TIP3    H177710   6.766   3.602  16.196 -1.1012 -0.2107 -1.0251
18765TIP3    H277711   6.687   3.714  16.261  1.2593  0.4066  0.9357
18766TIP3   OH277712   5.121   4.362  14.288 -0.1820 -0.3352 -0.3250
18766TIP3    H177713   5.121   4.269  14.266  0.7470 -0.1886 -1.0201
18766TIP3    H277714   5.149   4.406  14.207  0.9684  0.4052  0.4427
18767TIP3   OH277715   2.305   0.152   3.275 -0.4029  0.0793 -0.0586
18767TIP3    H177716   2.356   0.233   3.280 -0.7808  0.2526  1.5601
18767TIP3    H277717   2.221   0.174   3.316 -0.9367 -0.8251 -0.6346
18768TIP3   OH277718   3.302   6.610  14.038  0.2994 -0.2734  0.3685
18768TIP3    H177719   3.317   6.605  14.133 -0.4276  1.2608  0.6038
18768TIP3    H277720   3.275   6.522  14.013 -0.5684 -0.4512  1.7919
18769TIP3   OH277721   6.455   3.992  10.620  0.0335  0.2953  0.2277
18769TIP3    H177722   6.373   4.032  10.647  0.0973  0.6545 -0.1024
18769TIP3    H277723   6.446   3.979  10.526  0.2025 -0.0268  0.2536
18770TIP3   OH277724   2.037   3.369   0.838 -0.0538  0.9980  0.3888
18770TIP3    H177725   2.005   3.379   0.928 -0.6583  0.0038  0.2943
18770TIP3    H277726   2.056   3.275   0.830 -1.9161  0.7118 -1.1488
18771TIP3   OH277727   2.480   0.916   2.449  0.2816 -0.7874 -0.1821
18771TIP3    H177728   2.423   0.908   2.372  0.8145  0.0131 -0.6759
18771TIP3    H277729   2.430   0.876   2.520 -1.0321  0.1660 -0.5330
18772TIP3   OH277730   5.177   3.886  17.342  0.3019 -0.2763 -0.3110
18772TIP3    H177731   5.141   3.802  17.372  0.5619 -0.4054 -0.3599
18772TIP3    H277732   5.202   3.870  17.251  1.6669 -0.5701  0.0932
18773TIP3   OH277733   1.148   4.260   5.418  0.2930 -0.4431  0.3307
18773TIP3    H177734   1.078   4.290   5.475  1.4607 -0.4358  1.8262
18773TIP3    H277735   1.132   4.166   5.408  0.5292 -0.6180  1.4008
18774TIP3   OH277736   5.081   4.523   2.812  0.1711  0.6986  0.0305
18774TIP3    H177737   5.049   4.464   2.744  0.1595  0.8537 -0.0988
18774TIP3    H277738   5.132   4.588   2.765  1.1171  0.1618  0.2866
18775TIP3   OH277739   6.753   1.323   6.295 -0.7454  0.2318 -0.3773
18775TIP3    H177740   6.765   1.380   6.371  1.6038  1.0461 -1.2653
18775TIP3    H277741   6.822   1.349   6.234 -1.6495 -1.3729 -2.2069
18776TIP3   OH277742   2.978   5.357   1.537 -0.0890  0.0855 -0.1894
18776TIP3    H177743   2.969   5.317   1.451 -3.0128 -0.7483  0.3664
18776TIP3    H277744   2.915   5.429   1.537  0.3024  0.4608  1.0460
18777TIP3   OH277745   5.716   5.007   2.002  0.4835  0.2906 -0.3522
18777TIP3    H177746   5.808   4.985   2.012 -0.2567 -3.2102  0.1912
18777TIP3    H277747   5.703   5.018   1.908  1.4061  0.6330 -0.4451
18778TIP3   OH277748   0.276   3.260  15.890 -0.4472 -0.6591 -0.8847
18778TIP3    H177749   0.232   3.184  15.929 -0.0228 -0.8939 -0.8583
18778TIP3    H277750   0.332   3.222  15.822  1.0857 -0.5415  0.2831
18779TIP3   OH277751   1.359   5.116  16.782 -0.1483 -0.1688  0.3002
18779TIP3    H177752   1.326   5.079  16.700 -1.0584 -1.4130  1.1816
18779TIP3    H277753   1.319   5.203  16.787 -0.4306 -0.2560 -0.3752
18780TIP3   OH277754   1.351   0.386  12.472 -0.7686 -0.3439  0.2432
18780TIP3    H177755   1.357   0.464  12.417 -1.1654  0.6818  1.5878
18780TIP3    H277756   1.422   0.329  12.442  0.8992  1.4533  0.5996
18781TIP3   OH277757   4.880   0.632   5.623 -0.0809 -0.3190 -0.3236
18781TIP3    H177758   4.857   0.642   5.715  0.6862  0.8696 -0.2408
18781TIP3    H277759   4.796   0.638   5.577 -0.2874  0.8550  0.1785
18782TIP3   OH277760   0.653   5.747  17.136  0.6344 -0.5635  0.3028
18782TIP3    H177761   0.656   5.659  17.099  2.7923 -0.4387  0.0914
18782TIP3    H277762   0.691   5.803  17.068  1.2377  0.2073  1.2511
18783TIP3   OH277763   4.360   6.367  14.941  0.0987  0.3841  0.1145
18783TIP3    H177764   4.266   6.355  14.957 -0.0013  0.3157 -0.4743
18783TIP3    H277765   4.365   6.446  14.887  0.4810  1.0385  1.0949
18784TIP3   OH277766   6.203   1.178  12.032  0.4434 -0.6042  0.8493
18784TIP3    H177767   6.131   1.237  12.056 -1.0558 -1.5473 -1.0364
18784TIP3    H277768   6.204   1.112  12.101  0.6702  0.3743  1.8041
18785TIP3   OH277769   5.963   4.885   2.075 -0.2990 -0.0906  0.2106
18785TIP3    H177770   5.934   4.801   2.110  1.5506 -0.7796  0.2209
18785TIP3    H277771   6.029   4.862   2.009 -0.7908  1.3134 -0.8220
18786TIP3   OH277772   4.308   0.115  13.781 -0.0430  0.4088 -0.2001
18786TIP3    H177773   4.268   0.120  13.868  0.0080  1.0011 -0.2066
18786TIP3    H277774   4.253   0.053  13.733  1.0699 -1.4905  0.8476
18787TIP3   OH277775   4.366   6.048  16.083 -0.7969  0.2890  0.6005
18787TIP3    H177776   4.418   6.118  16.122 -2.7643  2.8606 -1.0407
18787TIP3    H277777   4.300   6.027  16.149 -1.7652  1.9049  0.2150
18788TIP3   OH277778   1.496   0.302  13.216 -0.8526 -0.2759 -0.5041
18788TIP3    H177779   1.461   0.386  13.187  0.7434 -0.1775 -2.4108
18788TIP3    H277780   1.581   0.324  13.255 -0.1651 -1.0049 -1.5237
18789TIP3   OH277781   5.617   5.458   2.950  0.3097 -0.7730 -0.3265
18789TIP3    H177782   5.537   5.509   2.961 -0.3570 -1.6065 -1.1587
18789TIP3    H277783   5.603   5.408   2.869  1.3360 -1.5343 -0.0595
18790TIP3   OH277784   3.678   0.338   0.172  0.1348 -0.3274 -0.6211
18790TIP3    H177785   3.752   0.286   0.205 -1.4550 -2.8509 -0.7454
18790TIP3    H277786   3.639   0.377   0.250  0.4222 -0.6050 -0.3355
18791TIP3   OH277787   1.222   1.328  12.512 -0.0741  0.3775 -0.0556
18791TIP3    H177788   1.171   1.370  12.442 -0.7697  1.6465  1.1754
18791TIP3    H277789   1.313   1.353  12.494  0.2433 -1.9960 -2.3380
18792TIP3   OH277790   3.545   2.841   4.992 -0.0971 -0.0456  0.3040
18792TIP3    H177791   3.607   2.796   4.935 -1.7421  1.1755 -2.6631
18792TIP3    H277792   3.498   2.771   5.037  1.0957 -1.0758 -0.0179
18793TIP3   OH277793   0.001   4.091   0.493  0.4541  0.3272 -0.1271
18793TIP3    H177794   0.065   4.133   0.435  0.4604 -1.4477 -1.4718
18793TIP3    H277795  -0.055   4.040   0.435 -0.9408  0.2207  1.2327
18794TIP3   OH277796   0.911   1.378   3.041 -0.3261 -0.1042  0.6554
18794TIP3    H177797   0.944   1.288   3.040  0.3141  0.0962  2.0620
18794TIP3    H277798   0.930   1.410   3.129 -0.0983  1.5805  0.0218
18795TIP3   OH277799   5.532   0.186   4.282  0.6488 -0.4845  0.3537
18795TIP3    H177800   5.461   0.235   4.323  2.4307  1.3571  1.4003
18795TIP3    H277801   5.545   0.228   4.198 -0.5490 -1.9006 -0.5844
18796TIP3   OH277802   1.049   4.137   4.135  0.0682 -0.1433 -0.2885
18796TIP3    H177803   0.999   4.121   4.215  0.3298  2.3713  0.4755
18796TIP3    H277804   1.027   4.064   4.078 -3.2277 -0.0229  0.6014
18797TIP3   OH277805   0.305   4.777   4.788 -0.1479 -0.1171  0.1023
18797TIP3    H177806   0.401   4.775   4.783 -0.0852 -0.9970  1.3305
18797TIP3    H277807   0.284   4.743   4.875 -1.6033 -0.5523 -0.3829
18798TIP3   OH277808   3.705   0.525   0.680 -0.0965  0.3521  0.6478
18798TIP3    H177809   3.649   0.602   0.691  0.9083  1.0996  0.6983
18798TIP3    H277810   3.794   0.557   0.699  0.3833 -0.7357  0.3182
18799TIP3   OH277811   3.001   0.379   3.284  0.5059  0.0187  0.0761
18799TIP3    H177812   3.009   0.322   3.207  0.4398  1.3920 -0.9740
18799TIP3    H277813   2.907   0.387   3.298  0.5236 -0.8998  0.8412
18800TIP3   OH277814   1.357   5.748  16.038 -0.5868  0.1770 -0.1446
18800TIP3    H177815   1.358   5.689  15.962 -3.4407  1.4993 -1.3677
18800TIP3    H277816   1.344   5.835  16.000  1.8789  1.4679  1.7086
18801TIP3   OH277817   4.381   1.573  15.523  0.2508 -0.2681 -0.6649
18801TIP3    H177818   4.349   1.485  15.542  0.3998 -0.4177 -1.0969
18801TIP3    H277819   4.302   1.626  15.514  0.1556  0.1295  1.7375
18802TIP3   OH277820   4.857   5.391  14.429 -0.2613 -0.0751  1.0397
18802TIP3    H177821   4.941   5.437  14.426 -0.6504  0.6640  1.3496
18802TIP3    H277822   4.822   5.410  14.515 -1.2468  0.5189  0.5171
18803TIP3   OH277823   2.293   5.596  11.184  0.7468 -0.0253 -0.6773
18803TIP3    H177824   2.263   5.517  11.139 -0.0467  0.4855 -1.0562
18803TIP3    H277825   2.225   5.661  11.168  0.9484  0.4750  0.3993
18804TIP3   OH277826   2.772   2.339   3.169  0.3774  0.0078  0.7117
18804TIP3    H177827   2.771   2.308   3.079 -0.0925  1.2402  0.2714
18804TIP3    H277828   2.709   2.283   3.215 -0.7965  0.5671 -0.1627
18805TIP3   OH277829   4.465   0.175  16.407 -0.3644  0.3499 -0.0920
18805TIP3    H177830   4.378   0.213  16.409 -1.3480 -1.7693  0.7314
18805TIP3    H277831   4.461   0.110  16.337  0.0548 -0.8030  0.9127
18806TIP3   OH277832   0.467   0.513   0.059  0.2150  0.0017  0.1842
18806TIP3    H177833   0.530   0.443   0.043  0.5028  0.2823  0.0731
18806TIP3    H277834   0.394   0.494   0.001  1.0650  0.7721 -1.1931
18807TIP3   OH277835   5.234   2.405  11.751  0.6875  0.0060 -0.3419
18807TIP3    H177836   5.236   2.490  11.797  1.6033  0.2918 -0.8814
18807TIP3    H277837   5.149   2.368  11.774  0.5033  0.8160  0.3673
18808TIP3   OH277838   6.334   5.706   4.569 -0.5912  0.1023 -0.3084
18808TIP3    H177839   6.250   5.673   4.600  0.1763 -0.5930  1.1218
18808TIP3    H277840   6.329   5.801   4.580  0.3374 -0.1430  4.1014
18809TIP3   OH277841   2.176   1.031   3.377  0.8257  0.1140 -0.0260
18809TIP3    H177842   2.258   1.080   3.376 -0.1693  1.8894  1.2039
18809TIP3    H277843   2.143   1.040   3.288  1.1861  0.7770 -0.1042
18810TIP3   OH277844   4.777   0.002  12.708 -0.4147  0.5918 -0.1364
18810TIP3    H177845   4.722   0.080  12.697 -1.8586 -0.3042  0.3692
18810TIP3    H277846   4.795  -0.001  12.802  0.9606  1.1485 -0.3641
18811TIP3   OH277847   5.612   2.988   1.125  0.5364 -0.3615  0.1223
18811TIP3    H177848   5.548   3.018   1.061 -0.5649  0.4051  1.5152
18811TIP3    H277849   5.664   3.066   1.144 -0.2882 -0.0904  1.4169
18812TIP3   OH277850   1.916   2.549   5.637  0.6020 -0.4096  0.1427
18812TIP3    H177851   1.957   2.632   5.611 -0.7489  1.0451  2.3397
18812TIP3    H277852   1.822   2.568   5.640 -0.1552 -2.9944 -2.4612
18813TIP3   OH277853   4.345   2.171   2.315 -0.2837  0.4603  0.2730
18813TIP3    H177854   4.371   2.080   2.301 -1.1546  0.4829 -1.9069
18813TIP3    H277855   4.410   2.222   2.267 -0.2505  0.9670  0.8390
18814TIP3   OH277856   6.550   2.319  12.655  0.0663  0.3192 -0.3630
18814TIP3    H177857   6.646   2.321  12.663  0.2799 -3.6336  0.2059
18814TIP3    H277858   6.519   2.294  12.742 -1.2441 -0.7851 -1.1109
18815TIP3   OH277859   5.008   0.868   4.208  0.5798  0.0046 -0.4799
18815TIP3    H177860   5.078   0.902   4.264 -0.9362  0.1366  1.4403
18815TIP3    H277861   4.928   0.879   4.260 -0.8774 -0.2054 -2.5599
18816TIP3   OH277862   3.467   5.001  13.316  0.0678  0.0208  0.4193
18816TIP3    H177863   3.395   5.006  13.379 -0.9291  3.1736 -0.8107
18816TIP3    H277864   3.537   5.052  13.356  0.5812 -0.5584  0.2810
18817TIP3   OH277865   6.183   5.902  14.499 -0.1901 -0.0637 -0.1818
18817TIP3    H177866   6.272   5.918  14.531 -0.3243  2.1852 -0.7409
18817TIP3    H277867   6.128   5.901  14.578  0.2267 -0.7963  0.1080
18818TIP3   OH277868   3.709   2.095   3.503 -0.6083  0.4511 -0.0461
18818TIP3    H177869   3.722   2.001   3.496 -0.3316  0.5494 -1.0361
18818TIP3    H277870   3.614   2.106   3.515 -0.3573 -0.1279  4.4535
18819TIP3   OH277871   4.870   4.551   3.329 -0.3290  0.0952 -0.1755
18819TIP3    H177872   4.813   4.624   3.304  0.6030  0.7721 -0.3791
18819TIP3    H277873   4.958   4.579   3.304  0.7627  0.8387  3.7404
18820TIP3   OH277874   1.368   3.227   6.546  0.4233 -0.1055  0.1397
18820TIP3    H177875   1.361   3.322   6.551  0.4508 -0.1109  0.2854
18820TIP3    H277876   1.449   3.206   6.592 -0.5728 -0.3509  1.8838
18821TIP3   OH277877   3.689   2.559  11.239  0.0869 -0.3593  0.5571
18821TIP3    H177878   3.727   2.483  11.194  1.2485 -0.1304  1.1144
18821TIP3    H277879   3.674   2.623  11.169  0.2796 -0.6427  0.2552
18822TIP3   OH277880   4.415   3.580   5.258  0.3347  0.5195 -0.4676
18822TIP3    H177881   4.479   3.581   5.329  1.0612  2.1005 -1.1197
18822TIP3    H277882   4.392   3.487   5.249  2.5864 -0.1100 -0.2785
18823TIP3   OH277883   0.332   3.276   5.231  0.9764 -0.6424  0.0941
18823TIP3    H177884   0.293   3.349   5.279 -3.3565 -0.3668 -3.1987
18823TIP3    H277885   0.290   3.198   5.267  2.5460 -1.1626  0.8906
18824TIP3   OH277886   0.336   0.184  13.678  0.0936 -0.1494 -0.2532
18824TIP3    H177887   0.245   0.206  13.698 -0.0159 -0.5947 -0.2628
18824TIP3    H277888   0.352   0.224  13.593  0.5017  1.5931  0.5958
18825TIP3   OH277889   2.211   0.272  14.404  0.0326 -0.2810 -0.0250
18825TIP3    H177890   2.245   0.355  14.372  0.1829  0.1594  1.2189
18825TIP3    H277891   2.167   0.233  14.329  2.2325 -0.3231 -1.3643
18826TIP3   OH277892   5.566   2.453   3.411  0.3924  0.2086 -0.5444
18826TIP3    H177893   5.639   2.392   3.399  0.5212  0.2777 -0.1446
18826TIP3    H277894   5.509   2.410   3.475  1.1088  1.0403  0.6929
18827TIP3   OH277895   0.890   2.224  17.236  0.4265  0.2160  0.3421
18827TIP3    H177896   0.865   2.316  17.242 -0.5873 -0.0016 -0.3836
18827TIP3    H277897   0.818   2.182  17.190 -0.8518 -1.6383  3.6695
18828TIP3   OH277898   0.249   3.663   1.283 -0.0169 -0.1675  0.2568
18828TIP3    H177899   0.312   3.723   1.323  0.1124 -1.5666  2.2886
18828TIP3    H277900   0.168   3.714   1.278  0.4970  0.6887  0.4065
18829TIP3   OH277901   1.875   5.204   4.699  0.0981  0.0055 -0.0665
18829TIP3    H177902   1.815   5.130   4.712  0.0774  0.0556  0.1270
18829TIP3    H277903   1.872   5.251   4.782  0.3728  0.0325 -0.0735
18830TIP3   OH277904   3.397   0.440  15.106 -0.8065 -0.1729  0.1223
18830TIP3    H177905   3.470   0.389  15.072 -0.7458 -0.3938  0.5772
18830TIP3    H277906   3.328   0.376  15.122 -0.5061 -0.2212  1.3123
18831TIP3   OH277907   1.637   1.701  15.385  0.1094  0.0849  0.8707
18831TIP3    H177908   1.638   1.764  15.457  0.3485  1.6541 -0.4725
18831TIP3    H277909   1.615   1.752  15.308  1.1171 -1.3364 -0.4129
18832TIP3   OH277910   5.281   2.771  15.524  0.4354  0.2115  0.2517
18832TIP3    H177911   5.315   2.699  15.577 -1.5289  0.0039  1.3208
18832TIP3    H277912   5.284   2.847  15.582 -1.6948 -0.0076  0.7080
18833TIP3   OH277913   4.085   5.125  12.541  0.0926 -0.0721  0.2154
18833TIP3    H177914   4.095   5.030  12.537  0.8098 -0.0125  0.5045
18833TIP3    H277915   4.109   5.149  12.631 -0.2449  0.3617  0.1944
18834TIP3   OH277916   2.626   5.565  13.045  0.0897  0.0173  0.2256
18834TIP3    H177917   2.662   5.501  12.983 -0.1388  1.3012 -1.3050
18834TIP3    H277918   2.570   5.513  13.103 -0.6387 -1.0997 -1.3868
18835TIP3   OH277919   5.558   5.912  13.053  0.2845 -0.3849 -0.0650
18835TIP3    H177920   5.497   5.985  13.062  0.6493 -0.2745  1.9180
18835TIP3    H277921   5.624   5.943  12.991  0.2068  0.8249  0.4243
18836TIP3   OH277922   6.582   5.040  14.029 -0.2956  0.1711  0.1074
18836TIP3    H177923   6.660   4.985  14.037 -0.7639 -0.8242 -1.5514
18836TIP3    H277924   6.552   5.054  14.119 -0.0540 -2.1662  0.6060
18837TIP3   OH277925   5.811   0.351   0.495 -0.1576 -0.4928  0.1434
18837TIP3    H177926   5.741   0.411   0.467  0.2399  0.0087  0.2082
18837TIP3    H277927   5.855   0.326   0.414 -0.6815 -1.1551  0.0574
18838TIP3   OH277928   1.715   4.263   1.617 -0.1860  0.4306  0.1721
18838TIP3    H177929   1.749   4.215   1.542  1.1955  1.4001  0.1417
18838TIP3    H277930   1.681   4.345   1.581 -0.8379  0.2883  0.4415
18839TIP3   OH277931   2.693   4.769   3.724  0.5739 -0.3878 -0.2701
18839TIP3    H177932   2.693   4.846   3.666  2.1082  0.3263  0.6040
18839TIP3    H277933   2.728   4.699   3.670 -0.7997 -0.5061 -1.0661
18840TIP3   OH277934   1.135   1.359   1.459 -0.2482  0.3740 -0.0299
18840TIP3    H177935   1.067   1.292   1.452  0.9725 -0.7862 -1.5389
18840TIP3    H277936   1.131   1.406   1.376  1.8049 -0.8114 -0.9000
18841TIP3   OH277937   6.131   5.201   0.135 -0.4183  0.1858 -0.1103
18841TIP3    H177938   6.207   5.148   0.155 -1.0316 -1.4517 -1.7706
18841TIP3    H277939   6.060   5.161   0.184 -0.5498  0.5600  0.0042
18842TIP3   OH277940   3.942   1.216  12.360  0.8174  0.5225  0.3732
18842TIP3    H177941   3.855   1.200  12.323 -0.2835  2.0208  2.1262
18842TIP3    H277942   3.989   1.262  12.291  0.0653  0.0581 -0.4639
18843TIP3   OH277943   4.394   4.890   4.888 -0.2211 -0.8876 -0.3024
18843TIP3    H177944   4.421   4.981   4.903  1.8545 -1.6301  0.8412
18843TIP3    H277945   4.303   4.887   4.916  0.1108  0.5236  1.0697
18844TIP3   OH277946   2.818   5.019   2.139  0.0663  0.4246 -0.1500
18844TIP3    H177947   2.771   5.100   2.119 -1.6835 -0.7146 -0.9032
18844TIP3    H277948   2.800   5.004   2.232  1.3659  1.4523  0.3045
18845TIP3   OH277949   5.563   5.795  12.290  0.2659 -0.1312  0.0329
18845TIP3    H177950   5.523   5.710  12.310  1.3383 -0.9787 -1.2625
18845TIP3    H277951   5.490   5.847  12.255 -0.0184 -1.2350 -1.1142
18846TIP3   OH277952   0.754   3.683  14.639  0.6290  0.2723 -0.4346
18846TIP3    H177953   0.727   3.747  14.572  1.1009 -2.1428 -3.1533
18846TIP3    H277954   0.850   3.686  14.637  0.8799  3.3348  3.6118
18847TIP3   OH277955   0.867   6.373   0.413 -0.6784  0.1806 -0.1695
18847TIP3    H177956   0.943   6.315   0.413  0.6098  1.7547 -1.6794
18847TIP3    H277957   0.858   6.400   0.505 -0.4948 -1.3529  0.3250
18848TIP3   OH277958   1.303   1.348   6.378  0.4216 -0.1480  0.4478
18848TIP3    H177959   1.377   1.397   6.415 -0.8158  2.0194  0.2386
18848TIP3    H277960   1.234   1.413   6.370 -1.9336 -2.3146  1.7405
18849TIP3   OH277961   6.515   0.336  16.524  0.5019 -0.6959 -0.2595
18849TIP3    H177962   6.532   0.247  16.555  1.4290 -0.1976  0.7544
18849TIP3    H277963   6.473   0.325  16.439 -1.8731 -2.1418  1.0031
18850TIP3   OH277964   6.609   6.199  13.271  0.0902 -0.1102  0.1215
18850TIP3    H177965   6.523   6.169  13.244 -0.8694  0.7164  2.0667
18850TIP3    H277966   6.624   6.279  13.221  0.3082 -0.9201 -1.1413
18851TIP3   OH277967   0.734   1.967  15.038 -0.0323  0.6226 -0.3348
18851TIP3    H177968   0.677   2.002  15.106  0.7056  2.0954 -0.4260
18851TIP3    H277969   0.686   1.983  14.956  0.0048  0.8088 -0.3208
18852TIP3   OH277970   5.113   2.926   5.661  0.1733 -0.3802  0.1157
18852TIP3    H177971   5.203   2.901   5.682  0.8772  0.1163 -2.1097
18852TIP3    H277972   5.120   3.017   5.632 -0.7610 -0.8274 -1.6254
18853TIP3   OH277973   2.752   2.387  16.897 -0.8185  0.0417 -0.4044
18853TIP3    H177974   2.740   2.445  16.972  0.0497 -1.6529  1.1269
18853TIP3    H277975   2.796   2.442  16.831 -0.1962  1.1785  0.9031
18854TIP3   OH277976   0.949   3.586   3.359 -0.0876 -0.3111  0.2097
18854TIP3    H177977   0.898   3.566   3.438  0.5604  0.7467  0.9243
18854TIP3    H277978   0.895   3.554   3.287 -0.0993 -2.5186  1.1364
18855TIP3   OH277979   5.292   2.218   2.300  0.4988 -0.5312 -0.0174
18855TIP3    H177980   5.293   2.309   2.272  1.6090 -1.1489 -2.1515
18855TIP3    H277981   5.329   2.220   2.389  1.5412  0.9771 -0.4437
18856TIP3   OH277982   2.959   2.071   1.040 -0.3594 -0.0345  0.1151
18856TIP3    H177983   2.976   2.087   1.133  0.4940  0.3300 -0.0924
18856TIP3    H277984   2.881   2.122   1.021 -1.0703 -0.8228  0.8388
18857TIP3   OH277985   5.408   2.904  15.025 -0.1442 -0.6638 -0.0527
18857TIP3    H177986   5.378   2.943  15.107  0.5505  0.6111 -0.3758
18857TIP3    H277987   5.332   2.908  14.967 -0.0353  0.4522 -0.1440
18858TIP3   OH277988   2.542   6.645  16.464 -0.3453  0.4469  0.0974
18858TIP3    H177989   2.481   6.597  16.520 -1.4671  1.0727 -0.5662
18858TIP3    H277990   2.553   6.589  16.387  1.7861 -0.7770  1.1847
18859TIP3   OH277991   1.700   5.501   1.989  0.1491 -0.6735 -0.0797
18859TIP3    H177992   1.666   5.444   2.058  0.4386 -0.3316  0.3512
18859TIP3    H277993   1.627   5.509   1.928 -1.6199  2.1302  2.1020
18860TIP3   OH277994   1.920   4.896   6.910 -0.2823 -0.0277  0.7627
18860TIP3    H177995   2.010   4.904   6.943 -0.3818 -0.0320  1.0348
18860TIP3    H277996   1.930   4.857   6.823 -0.0352 -0.2245  0.8787
18861TIP3   OH277997   0.975   6.630   0.351 -0.0133  0.5177 -0.9991
18861TIP3    H177998   0.929   6.549   0.369 -0.0078 -0.1035 -3.4226
18861TIP3    H277999   1.040   6.638   0.421 -1.6474 -0.2136  0.6855
18862TIP3   OH278000   6.567   5.029  14.871  0.2269 -0.1841 -0.0294
18862TIP3    H178001   6.522   5.038  14.787 -1.4919  1.9943  1.0008
18862TIP3    H278002   6.632   5.098  14.870 -0.5935  0.6287  0.8367
18863TIP3   OH278003   2.353   0.270  13.406  0.1175 -0.2520  0.0285
18863TIP3    H178004   2.358   0.243  13.498  1.8836 -3.9644 -0.9876
18863TIP3    H278005   2.308   0.199  13.362  0.5719  0.7716 -2.2366
18864TIP3   OH278006   4.424   1.239  15.945 -0.4942  0.0457 -0.2976
18864TIP3    H178007   4.501   1.209  15.897  2.2506  1.5383  2.7284
18864TIP3    H278008   4.404   1.325  15.909 -0.1319  0.0476 -0.4921
18865TIP3   OH278009   3.368   1.363   3.025  0.5427 -0.5035 -0.5612
18865TIP3    H178010   3.338   1.278   3.055 -2.1836  0.2684 -0.8602
18865TIP3    H278011   3.299   1.394   2.967  1.6778  1.7209 -0.8418
18866TIP3   OH278012   4.740   5.571   6.634  0.2856 -0.1050 -0.0899
18866TIP3    H178013   4.815   5.517   6.611  0.4965  0.4807 -0.8177
18866TIP3    H278014   4.717   5.544   6.723  1.7002  0.0953  0.3538
18867TIP3   OH278015   5.152   5.839  17.354 -0.5142 -0.1218  0.1444
18867TIP3    H178016   5.114   5.823  17.440  0.8339 -0.5829  0.6730
18867TIP3    H278017   5.185   5.754  17.326  0.7028  0.3815 -0.0068
18868TIP3   OH278018   1.654   0.841   3.547 -0.2921 -0.5473  0.8623
18868TIP3    H178019   1.615   0.756   3.565 -1.3547  0.0644  1.6149
18868TIP3    H278020   1.730   0.822   3.493 -2.2968 -1.7513 -1.7758
18869TIP3   OH278021   5.798   5.995  17.280 -0.3537 -0.3946 -0.5839
18869TIP3    H178022   5.888   6.008  17.310  0.0289 -0.6475 -1.5873
18869TIP3    H278023   5.746   5.991  17.360  0.5464 -0.3894  0.0098
18870TIP3   OH278024   5.801   6.624   1.787  0.5184  0.5339  0.1298
18870TIP3    H178025   5.766   6.583   1.708  1.5590  1.3185 -0.7705
18870TIP3    H278026   5.890   6.591   1.793  1.4105  2.6156 -0.6542
18871TIP3   OH278027   4.398   2.304  12.797 -0.2964  0.0615  0.2114
18871TIP3    H178028   4.347   2.226  12.820 -1.4009  0.7373  0.1010
18871TIP3    H278029   4.334   2.367  12.766  0.8141  0.1842 -2.1238
18872TIP3   OH278030   1.352   5.732  11.287  0.0680 -0.2678 -0.0129
18872TIP3    H178031   1.431   5.738  11.234 -1.1108  0.3329 -1.7683
18872TIP3    H278032   1.346   5.639  11.311  1.0040 -0.4090 -0.3101
18873TIP3   OH278033   3.113   3.504  14.702 -0.5247  0.0053 -0.4412
18873TIP3    H178034   3.158   3.425  14.672 -3.4983 -1.5900 -1.0839
18873TIP3    H278035   3.147   3.573  14.645 -0.0517 -1.4048 -1.9683
18874TIP3   OH278036   2.370   0.207  11.010  0.8388 -0.5411 -0.1942
18874TIP3    H178037   2.429   0.134  10.995  0.2170 -0.8638 -1.1805
18874TIP3    H278038   2.427   0.284  11.015  1.2866 -0.7241 -1.9977
18875TIP3   OH278039   4.272   3.427   1.431  0.5698 -0.6960 -0.0915
18875TIP3    H178040   4.275   3.404   1.524 -0.5530  0.5684  0.2841
18875TIP3    H278041   4.341   3.493   1.421  0.1370 -0.2230  0.0299
18876TIP3   OH278042   2.482   6.703  11.117 -0.1318 -0.8215 -0.4573
18876TIP3    H178043   2.397   6.700  11.074 -0.4776  0.9901 -0.0150
18876TIP3    H278044   2.480   6.632  11.181 -1.6751 -0.2936  0.1314
18877TIP3   OH278045   3.608   2.477   1.244 -0.0601  0.2840 -0.1407
18877TIP3    H178046   3.671   2.484   1.315  0.8849 -0.8644 -0.8345
18877TIP3    H278047   3.650   2.519   1.170  0.1271 -0.9213 -0.7415
18878TIP3   OH278048   2.173   2.260  11.351 -0.3533  0.4895  0.5146
18878TIP3    H178049   2.093   2.212  11.371 -0.8055  0.4169 -1.2783
18878TIP3    H278050   2.243   2.198  11.367 -0.8462 -0.3555 -0.4642
18879TIP3   OH278051   4.403   2.536  12.329  0.2007  0.2987  0.3887
18879TIP3    H178052   4.325   2.510  12.281 -0.1556  2.1682 -0.1182
18879TIP3    H278053   4.473   2.480  12.294 -0.6094 -0.3552 -0.2153
18880TIP3   OH278054   3.854   0.836   3.769  0.1147  0.2995  0.0082
18880TIP3    H178055   3.889   0.868   3.852 -2.9627  1.2628  1.0939
18880TIP3    H278056   3.805   0.910   3.733 -1.2049 -1.0349 -1.0930
18881TIP3   OH278057   4.439   0.399  11.684  0.1053  0.2609  0.1939
18881TIP3    H178058   4.526   0.375  11.652 -0.1734 -0.3218 -0.1420
18881TIP3    H278059   4.399   0.315  11.708 -0.5394  0.4793 -0.1017
18882TIP3   OH278060   2.258   2.120   1.152  0.2397  0.0928  0.1290
18882TIP3    H178061   2.269   2.033   1.114 -1.2894 -0.1223  0.0933
18882TIP3    H278062   2.215   2.171   1.083 -1.5369  0.0128  1.0996
18883TIP3   OH278063   4.049   3.243   5.220  0.1942  0.0910  0.6077
18883TIP3    H178064   3.980   3.260   5.156  1.9612  1.6239 -1.0307
18883TIP3    H278065   4.077   3.330   5.249  1.9089 -0.4411  0.6693
18884TIP3   OH278066   4.747   5.225   1.109  0.1511 -0.4004  0.4621
18884TIP3    H178067   4.795   5.249   1.188  0.9451  0.5730 -0.2794
18884TIP3    H278068   4.674   5.287   1.105  1.0760  0.6638 -0.4259
18885TIP3   OH278069   1.566   5.174   2.992 -0.0205  0.0006  0.6412
18885TIP3    H178070   1.524   5.093   3.021 -0.0667  0.0645  0.7502
18885TIP3    H278071   1.628   5.195   3.062 -0.6538  0.5554  1.0376
18886TIP3   OH278072   4.113   5.757  14.746  0.1747 -0.3892 -0.1558
18886TIP3    H178073   4.170   5.763  14.824  1.0155  1.8488 -0.8616
18886TIP3    H278074   4.147   5.824  14.687 -1.4620 -0.9516 -1.8118
18887TIP3   OH278075   5.407   5.351  11.645 -0.9385  0.2367 -0.0128
18887TIP3    H178076   5.382   5.287  11.578 -0.1367  0.5304 -0.5985
18887TIP3    H278077   5.441   5.426  11.595 -0.5628  0.5570  0.7180
18888TIP3   OH278078   3.722   6.176   3.810 -0.0906  0.0413 -0.0849
18888TIP3    H178079   3.744   6.183   3.903 -0.3679 -0.3334  0.0112
18888TIP3    H278080   3.708   6.267   3.782  0.2115  0.1713  0.1865
18889TIP3   OH278081   2.748   4.030   4.137 -0.4432  0.1532 -0.3785
18889TIP3    H178082   2.756   3.984   4.220  0.1168  0.8328 -0.0502
18889TIP3    H278083   2.654   4.035   4.121 -0.6073  0.9697  0.7578
18890TIP3   OH278084   1.556   4.223  13.087 -0.3196  0.8063 -0.0581
18890TIP3    H178085   1.623   4.168  13.128 -0.9356  2.5902  3.7292
18890TIP3    H278086   1.598   4.309  13.080 -0.4494  0.7476 -2.9416
18891TIP3   OH278087   5.028   4.784  16.975  0.1024  0.4362  0.0239
18891TIP3    H178088   5.116   4.751  16.992  0.4004  1.3309  0.2579
18891TIP3    H278089   5.003   4.830  17.055 -0.4701  0.4226 -0.1386
18892TIP3   OH278090   4.448   0.284   1.716  0.7625  0.1078  0.2507
18892TIP3    H178091   4.438   0.211   1.655  0.4001 -0.8540  1.4184
18892TIP3    H278092   4.359   0.314   1.732  0.7023 -0.5826  1.3683
18893TIP3   OH278093   4.870   0.580   1.710  0.0963 -0.2062 -0.1312
18893TIP3    H178094   4.815   0.616   1.779  1.2160  0.7211  0.2914
18893TIP3    H278095   4.820   0.504   1.678 -0.9476  0.0010  0.9232
18894TIP3   OH278096   0.665   2.596   4.936 -0.5928  0.0308 -0.7055
18894TIP3    H178097   0.727   2.613   4.864 -0.6388  2.2913 -0.2649
18894TIP3    H278098   0.579   2.598   4.894 -0.5020 -1.3430 -1.0102
18895TIP3   OH278099   0.402   3.454  12.882  0.1771  0.3421 -0.0119
18895TIP3    H178100   0.473   3.504  12.922 -0.6063  0.8028  0.8185
18895TIP3    H278101   0.339   3.439  12.952 -0.4832 -0.2003 -0.6944
18896TIP3   OH278102   4.694   1.983  10.962 -0.5825 -0.8238 -0.6952
18896TIP3    H178103   4.607   1.948  10.979  0.6761 -3.7369  0.5859
18896TIP3    H278104   4.687   2.026  10.877 -3.5056  0.1447 -0.0517
18897TIP3   OH278105   4.210   1.206   1.994 -0.2416 -0.0584  0.6332
18897TIP3    H178106   4.244   1.243   2.076 -1.4990  1.3430  0.5754
18897TIP3    H278107   4.136   1.152   2.022 -0.0771 -0.3655  0.4827
18898TIP3   OH278108   5.278   6.632  11.320 -0.4052 -0.0213 -0.7354
18898TIP3    H178109   5.349   6.568  11.326 -0.2706  0.2161  0.5535
18898TIP3    H278110   5.202   6.581  11.292  0.1008 -0.4137 -1.4104
18899TIP3   OH278111   3.501   1.674  13.270 -0.6140 -0.1432  0.1882
18899TIP3    H178112   3.429   1.628  13.314  0.3625 -2.2838 -0.2767
18899TIP3    H278113   3.580   1.635  13.308  0.2748 -1.2603 -2.5568
18900TIP3   OH278114   0.273   0.385  14.819  0.2912 -0.0993 -0.1421
18900TIP3    H178115   0.336   0.445  14.859  1.9131 -2.1763  0.5931
18900TIP3    H278116   0.222   0.441  14.760  1.6532  1.9995  0.5311
18901TIP3   OH278117   2.251   1.348   5.649  0.8525  0.0213 -0.2549
18901TIP3    H178118   2.249   1.354   5.744 -1.5986 -0.8038 -0.1845
18901TIP3    H278119   2.259   1.439   5.619 -0.9298  0.5448  0.7575
18902TIP3   OH278120   2.813   3.320  16.011 -0.4064 -0.1718 -0.4121
18902TIP3    H178121   2.775   3.254  16.068  1.7862 -1.4638 -0.3699
18902TIP3    H278122   2.877   3.365  16.065  0.5973 -0.3695 -1.4068
18903TIP3   OH278123   4.633   0.452   1.843 -0.2497  0.7289 -0.1506
18903TIP3    H178124   4.650   0.401   1.764 -0.7306  1.7799 -0.9442
18903TIP3    H278125   4.544   0.429   1.868  0.4362 -0.8321  1.0482
18904TIP3   OH278126   2.689   1.490   3.653  0.2156  0.2066  0.2019
18904TIP3    H178127   2.780   1.476   3.627 -0.6195 -2.8809 -1.5672
18904TIP3    H278128   2.678   1.436   3.731 -0.1374  0.4899  0.3509
18905TIP3   OH278129   1.503   6.769  15.647 -0.1684 -0.0768  0.3672
18905TIP3    H178130   1.598   6.765  15.632  0.0187 -0.7502  1.6117
18905TIP3    H278131   1.466   6.708  15.583  0.0367  1.5209 -1.3789
18906TIP3   OH278132   1.769   6.292  10.661 -0.1904 -0.3053 -0.0074
18906TIP3    H178133   1.842   6.231  10.674  0.9890  1.0176 -0.1937
18906TIP3    H278134   1.811   6.377  10.648 -1.7611  1.2426  3.5183
18907TIP3   OH278135   0.999   5.316   5.793 -0.3364 -0.0670  0.9072
18907TIP3    H178136   0.973   5.394   5.744 -1.7318 -0.3219  1.1990
18907TIP3    H278137   1.001   5.345   5.885 -0.5976 -0.2976  0.9886
18908TIP3   OH278138   0.821   1.658   4.410  0.4097 -0.1470  0.2197
18908TIP3    H178139   0.771   1.657   4.492  1.1265 -4.5921  0.8448
18908TIP3    H278140   0.768   1.610   4.348  1.5515 -0.2092 -0.7481
18909TIP3   OH278141   3.374   5.582   0.949  0.1603 -0.3579 -0.0459
18909TIP3    H178142   3.325   5.503   0.925 -0.0500 -0.5063  0.8476
18909TIP3    H278143   3.466   5.558   0.936  0.2433 -1.4736  2.1627
18910TIP3   OH278144   5.997   1.225  15.706  0.0685 -0.3341  0.2808
18910TIP3    H178145   5.938   1.236  15.632  0.1674  0.1838  0.2708
18910TIP3    H278146   6.059   1.298  15.698 -0.0865 -0.1125  1.0187
18911TIP3   OH278147   3.985   5.209   0.384  0.0304 -0.1023 -0.1314
18911TIP3    H178148   4.076   5.180   0.383 -0.0834 -0.6201  1.4163
18911TIP3    H278149   3.991   5.304   0.377  0.6774 -0.1560 -0.4175
18912TIP3   OH278150   0.779   2.732  13.898  0.2895 -0.0130  0.6458
18912TIP3    H178151   0.744   2.759  13.813 -0.6787 -2.1360  0.3008
18912TIP3    H278152   0.865   2.694  13.877  0.3165  0.0189  0.6994
18913TIP3   OH278153   3.891   4.467   6.278  0.1520  0.1301  0.1226
18913TIP3    H178154   3.955   4.536   6.257 -1.1181  1.4858  0.5025
18913TIP3    H278155   3.943   4.399   6.321  1.3916  1.0684  0.1972
18914TIP3   OH278156   4.156   5.556  14.103  0.2226  0.5252  0.8239
18914TIP3    H178157   4.170   5.595  14.190 -1.6440  1.6619  0.6596
18914TIP3    H278158   4.241   5.566  14.060  1.5161 -1.0451  2.8437
18915TIP3   OH278159   6.428   5.496  12.592 -0.5011 -0.2373 -0.2759
18915TIP3    H178160   6.481   5.517  12.515 -0.4305 -0.3168 -0.2503
18915TIP3    H278161   6.338   5.504  12.563 -0.4919  1.5047  0.1165
18916TIP3   OH278162   6.204   4.972   1.534  0.0477 -0.0806 -0.0719
18916TIP3    H178163   6.290   4.982   1.575 -0.1296  1.7566 -0.0776
18916TIP3    H278164   6.220   4.991   1.441 -0.4584  0.9503  0.0360
18917TIP3   OH278165   2.079   1.338   3.610 -0.1884  0.6228 -0.2477
18917TIP3    H178166   2.155   1.334   3.552 -1.0173 -2.1710 -1.2704
18917TIP3    H278167   2.028   1.412   3.576  1.9851  2.6111  0.5067
18918TIP3   OH278168   6.081   4.948  15.526  0.6584 -0.4238  0.1711
18918TIP3    H178169   6.137   4.968  15.451  1.3122  1.0607  1.0067
18918TIP3    H278170   6.052   5.034  15.557 -1.1797 -1.1104  0.4466
18919TIP3   OH278171   4.679   0.123  13.230  0.4145  0.3117  0.3006
18919TIP3    H178172   4.633   0.201  13.261  1.6765  1.0832  0.2833
18919TIP3    H278173   4.771   0.137  13.254  0.7472 -0.9662 -0.1056
18920TIP3   OH278174   1.681   5.841  13.603 -0.1752 -0.1829 -0.3756
18920TIP3    H178175   1.596   5.826  13.645 -0.1765 -0.6333 -0.5386
18920TIP3    H278176   1.705   5.930  13.630  0.1609 -0.7064  1.1848
18921TIP3   OH278177   4.201   0.000   1.235  0.0350  0.2074 -0.2129
18921TIP3    H178178   4.147  -0.065   1.189  0.6804 -0.1717 -0.4425
18921TIP3    H278179   4.270  -0.051   1.277 -1.9726  0.1636  3.4615
18922TIP3   OH278180   4.268   0.590   4.158 -0.0877  0.2058  0.1098
18922TIP3    H178181   4.293   0.503   4.127  0.0301  0.8200 -1.6370
18922TIP3    H278182   4.179   0.578   4.193  0.9099 -1.1098  2.4089
18923TIP3   OH278183   1.898   6.736   1.123 -0.4739  0.3649 -0.1628
18923TIP3    H178184   1.893   6.824   1.161 -0.0705  0.5184 -0.4552
18923TIP3    H278185   1.913   6.678   1.197  2.8496  0.9059 -0.2575
18924TIP3   OH278186   3.627   4.771  13.278 -0.1956  0.2263 -0.0021
18924TIP3    H178187   3.573   4.848  13.295 -1.5838 -0.7867  0.4075
18924TIP3    H278188   3.679   4.794  13.201 -2.0608  0.8552 -1.1365
18925TIP3   OH278189   1.270   0.988   4.447 -0.3543  0.2291 -0.7238
18925TIP3    H178190   1.335   0.970   4.514 -1.2721 -0.2137  0.0768
18925TIP3    H278191   1.228   1.069   4.474 -1.0185 -0.1751 -0.5175
18926TIP3   OH278192   0.255   6.208   3.711 -0.7030 -0.0762 -0.0964
18926TIP3    H178193   0.315   6.203   3.786 -0.6080 -0.2245 -0.1814
18926TIP3    H278194   0.286   6.140   3.651  1.0151  1.8891 -1.5842
18927TIP3   OH278195   2.174   5.911  11.192  0.0952  0.3810  0.0087
18927TIP3    H178196   2.162   5.916  11.287 -1.3953  0.0245 -0.1254
18927TIP3    H278197   2.214   5.995  11.168  1.3668  0.1070  1.0390
18928TIP3   OH278198   1.883   4.065   6.647  0.9561 -0.1560  0.2087
18928TIP3    H178199   1.827   4.005   6.597 -0.9855  0.4853  1.4952
18928TIP3    H278200   1.956   4.010   6.677  1.1369 -0.9864 -1.6430
18929TIP3   OH278201   1.521   0.948  13.714  0.8560 -0.1715 -0.5989
18929TIP3    H178202   1.587   0.912  13.655  0.0585 -0.0524 -1.6017
18929TIP3    H278203   1.525   1.043  13.701  1.6731 -0.0160  0.6457
18930TIP3   OH278204   2.299   4.133  12.750 -0.1629 -0.2674  0.0634
18930TIP3    H178205   2.388   4.109  12.725  0.4361  0.7191  1.1824
18930TIP3    H278206   2.290   4.224  12.722 -0.5797 -0.1432  0.5870
18931TIP3   OH278207   0.145   4.218   0.299  0.2407  0.3163 -0.7415
18931TIP3    H178208   0.138   4.190   0.208  1.1791 -0.0907 -0.6979
18931TIP3    H278209   0.099   4.301   0.302  0.3644  0.4287 -1.6334
18932TIP3   OH278210   2.313   4.497  10.587  0.4650 -0.3138 -0.2780
18932TIP3    H178211   2.382   4.435  10.562  0.4272 -0.8401  0.8654
18932TIP3    H278212   2.351   4.583  10.571  1.1248 -0.6108 -0.3357
18933TIP3   OH278213   1.154   4.827   3.395 -0.0968  0.3199 -0.4928
18933TIP3    H178214   1.183   4.801   3.308  0.2544  1.3845 -0.7062
18933TIP3    H278215   1.230   4.867   3.435 -0.8271  1.7627 -0.4913
18934TIP3   OH278216   6.314   5.459  14.254 -0.6597  0.6709  0.1249
18934TIP3    H178217   6.393   5.421  14.215 -2.1786  0.0428 -2.5976
18934TIP3    H278218   6.326   5.448  14.348  1.4645 -1.5340 -0.3029
18935TIP3   OH278219   1.145   3.292   7.048  0.1852 -0.0879  0.4271
18935TIP3    H178220   1.121   3.292   6.955  2.1679 -0.2754 -0.1492
18935TIP3    H278221   1.207   3.219   7.056  2.2998  1.6770  1.2086
18936TIP3   OH278222   3.424   3.308   0.252  0.0215  0.2431  0.0066
18936TIP3    H178223   3.335   3.302   0.218 -0.7795  1.3010  1.7679
18936TIP3    H278224   3.467   3.372   0.196 -0.3396 -0.2240 -0.8152
18937TIP3   OH278225   4.963   0.918  14.063 -0.6051  0.1459 -0.7123
18937TIP3    H178226   4.944   0.824  14.067  0.3744 -0.1593 -2.3557
18937TIP3    H278227   4.882   0.958  14.031 -1.0098 -0.1277 -0.0492
18938TIP3   OH278228   5.145   4.705  12.984  0.5277  0.0180 -0.2236
18938TIP3    H178229   5.227   4.663  13.008  1.7589  2.3936 -0.0341
18938TIP3    H278230   5.112   4.742  13.065 -0.4675 -0.4238 -0.4095
18939TIP3   OH278231   6.011   1.899   2.421  0.6615 -0.0026  0.1029
18939TIP3    H178232   6.056   1.914   2.338 -1.4434 -0.1867 -1.1457
18939TIP3    H278233   6.049   1.964   2.481 -0.0221  2.4270 -1.9298
18940TIP3   OH278234   0.086   4.498   4.275  0.7149 -0.1560  0.0578
18940TIP3    H178235   0.011   4.485   4.217  0.5369  0.6613  0.0838
18940TIP3    H278236   0.132   4.415   4.275  0.0334 -0.5416 -0.2889
18941TIP3   OH278237   2.815   2.203  14.969 -0.0886 -0.1301 -0.2841
18941TIP3    H178238   2.772   2.287  14.951  0.1000 -0.2769 -1.4591
18941TIP3    H278239   2.773   2.141  14.910  0.9040 -0.5250 -0.5993
18942TIP3   OH278240   2.602   1.285  11.862  0.4757  0.2166 -0.0154
18942TIP3    H178241   2.600   1.191  11.880  0.4178 -0.2046 -1.9222
18942TIP3    H278242   2.512   1.307  11.838  0.9471  0.1831 -1.9798
18943TIP3   OH278243   3.636   4.660  11.975  0.3029  0.2250  0.4734
18943TIP3    H178244   3.716   4.698  12.011 -0.3949  2.0799  0.2136
18943TIP3    H278245   3.648   4.667  11.880  1.3268 -2.8854  0.2624
18944TIP3   OH278246   0.331   5.860  13.635 -0.6519  0.1620 -0.0780
18944TIP3    H178247   0.378   5.935  13.599  1.6578 -1.1838 -0.0896
18944TIP3    H278248   0.326   5.798  13.562 -0.4738 -0.5735  0.5131
18945TIP3   OH278249   0.831   1.456   5.918  0.6597  0.1844 -0.0794
18945TIP3    H178250   0.846   1.361   5.913  2.5267  0.4918 -1.6867
18945TIP3    H278251   0.807   1.472   6.009  0.9293 -1.7560  0.3754
18946TIP3   OH278252   1.209   1.929  16.230 -0.0960 -0.0814 -0.9780
18946TIP3    H178253   1.243   2.002  16.178  1.1163  0.1639  0.1048
18946TIP3    H278254   1.214   1.854  16.171  0.6910  0.2995 -1.4138
18947TIP3   OH278255   2.151   4.403  15.556  0.4002 -0.4598  0.0868
18947TIP3    H178256   2.204   4.359  15.488 -0.0204 -0.2095 -0.4092
18947TIP3    H278257   2.100   4.333  15.595 -0.2326 -0.4408 -0.6709
18948TIP3   OH278258   4.903   1.664   3.392  0.0603  0.3113 -0.1077
18948TIP3    H178259   4.995   1.640   3.382  0.3055  1.3546 -0.4007
18948TIP3    H278260   4.899   1.756   3.366 -1.3402 -0.1485 -1.7424
18949TIP3   OH278261   5.888   2.835   1.767 -0.0243  0.0801 -0.2196
18949TIP3    H178262   5.850   2.791   1.692  0.3490 -0.3889 -0.1373
18949TIP3    H278263   5.862   2.927   1.757 -0.1187 -0.0095 -0.8257
18950TIP3   OH278264   3.498   0.076  16.575  0.1853 -0.4444  0.2397
18950TIP3    H178265   3.561   0.025  16.626  1.8726  1.1479 -0.1368
18950TIP3    H278266   3.541   0.088  16.490 -0.2689  1.2847  0.2099
18951TIP3   OH278267   5.576   6.443   2.898 -0.4509  0.5484  0.6123
18951TIP3    H178268   5.592   6.396   2.979 -1.3323  0.7182  0.8960
18951TIP3    H278269   5.511   6.510   2.921  0.0595  1.2697 -0.0012
18952TIP3   OH278270   4.273   0.660   4.494 -0.5364 -0.2985  0.4144
18952TIP3    H178271   4.258   0.565   4.488 -1.2660 -0.0981 -2.2056
18952TIP3    H278272   4.206   0.698   4.438  0.2439  1.7389  0.7983
18953TIP3   OH278273   2.222   2.944  14.671  0.9211  0.1254 -0.0588
18953TIP3    H178274   2.183   2.919  14.755 -0.5112 -0.4219 -0.8470
18953TIP3    H278275   2.163   3.012  14.637  1.7742  0.7021 -0.4033
18954TIP3   OH278276   0.992   3.140  17.188 -0.0326 -0.0321  0.3644
18954TIP3    H178277   1.001   3.218  17.133 -0.5135  0.4582  0.9703
18954TIP3    H278278   1.055   3.078  17.151 -0.9441 -0.0467 -1.2943
18955TIP3   OH278279   3.717   5.124   0.804  1.0170 -0.0563  0.8778
18955TIP3    H178280   3.637   5.158   0.764  2.2557  1.3289 -0.5525
18955TIP3    H278281   3.710   5.029   0.794  0.5758  0.1510 -1.3057
18956TIP3   OH278282   5.673   0.756  13.405 -0.3583  0.2467 -0.2008
18956TIP3    H178283   5.695   0.849  13.400 -0.9639  0.3138 -2.7352
18956TIP3    H278284   5.663   0.739  13.499 -2.2453  3.2199  0.2691
18957TIP3   OH278285   3.696   2.082   1.335  0.2625  0.0441 -0.0408
18957TIP3    H178286   3.743   2.121   1.409  2.8789 -1.1564 -0.9626
18957TIP3    H278287   3.639   2.016   1.375 -0.8149  1.5854  1.1086
18958TIP3   OH278288   0.674   3.624   0.399  0.6584  0.0737 -0.3868
18958TIP3    H178289   0.650   3.696   0.340  1.2830 -0.2184 -1.0185
18958TIP3    H278290   0.620   3.638   0.477  0.6520  1.1311 -0.5629
18959TIP3   OH278291   2.237   1.147   2.968 -0.2803 -0.0789 -0.0335
18959TIP3    H178292   2.183   1.223   2.991 -0.5408 -0.3258  0.1717
18959TIP3    H278293   2.288   1.177   2.892  0.7522  0.8166  0.9772
18960TIP3   OH278294   6.277   1.561  11.175 -0.0538 -0.5980 -0.0239
18960TIP3    H178295   6.290   1.606  11.091 -0.9025  1.0170  0.6537
18960TIP3    H278296   6.224   1.484  11.154 -0.3763 -0.1331 -0.9636
18961TIP3   OH278297   2.679   5.436  11.123  0.4809  0.6189 -0.5579
18961TIP3    H178298   2.693   5.501  11.055  1.9553 -0.8033 -1.6853
18961TIP3    H278299   2.585   5.421  11.124  0.4756  0.3524 -2.6054
18962TIP3   OH278300   6.618   5.450   3.610  0.5334  0.2132 -0.1222
18962TIP3    H178301   6.701   5.481   3.572  0.6421  0.3080  0.1881
18962TIP3    H278302   6.643   5.411   3.694  0.8861 -3.7965 -1.8661
18963TIP3   OH278303   4.713   2.558   5.146 -0.1346 -0.6932 -0.3703
18963TIP3    H178304   4.658   2.492   5.104 -0.1281 -0.3066 -0.9868
18963TIP3    H278305   4.656   2.599   5.211 -0.8459  0.2845 -1.5753
18964TIP3   OH278306   5.957   0.263   0.932 -0.2161  0.1552 -0.4149
18964TIP3    H178307   5.945   0.222   0.847 -0.8785  0.9636 -0.7283
18964TIP3    H278308   5.880   0.319   0.943 -1.4121 -1.7541  1.8002
18965TIP3   OH278309   4.015   2.453   2.442 -0.4324  0.4945 -0.6077
18965TIP3    H178310   4.031   2.360   2.456 -0.3625  0.5658 -0.2092
18965TIP3    H278311   4.005   2.490   2.530  2.2591  1.3340 -0.5387
18966TIP3   OH278312   4.294   6.207  10.605 -0.1591 -0.0221 -0.7313
18966TIP3    H178313   4.271   6.292  10.643 -0.5653 -0.9666  1.2545
18966TIP3    H278314   4.388   6.214  10.587 -0.5267  1.4463 -2.3323
18967TIP3   OH278315   6.029   2.227  15.809 -0.1997 -0.0561  0.0604
18967TIP3    H178316   6.047   2.257  15.899 -2.3697  1.7372 -0.0155
18967TIP3    H278317   6.066   2.139  15.806 -0.7581 -0.5195  3.0047
18968TIP3   OH278318   2.034   2.874   2.555 -0.1072 -0.5178  0.3067
18968TIP3    H178319   2.124   2.875   2.588 -0.4000  0.0904  1.1224
18968TIP3    H278320   1.997   2.792   2.589  0.0186 -0.5695  0.3183
18969TIP3   OH278321   4.657   3.805   0.676 -0.2156 -0.2379 -0.7810
18969TIP3    H178322   4.641   3.794   0.583 -1.1995 -0.8066 -0.5573
18969TIP3    H278323   4.717   3.733   0.698 -0.8706 -0.7913 -0.7654
18970TIP3   OH278324   5.071   2.921   2.906 -0.7991  0.6178  0.0370
18970TIP3    H178325   4.992   2.874   2.881 -0.8085  1.1528 -0.9930
18970TIP3    H278326   5.050   3.014   2.893  0.7382  0.6966 -2.7160
18971TIP3   OH278327   6.248   0.613   2.048  0.0785 -0.2769  0.5278
18971TIP3    H178328   6.328   0.654   2.082  0.6542 -1.1016  0.2012
18971TIP3    H278329   6.266   0.519   2.051 -0.9314 -0.4845  0.5598
18972TIP3   OH278330   2.676   2.454  13.767  0.1248 -0.8575 -0.5977
18972TIP3    H178331   2.693   2.388  13.834 -0.4347  0.1209  0.5541
18972TIP3    H278332   2.595   2.497  13.795  0.8649  0.8195 -0.8742
18973TIP3   OH278333   4.316   0.933  11.279  0.6640 -0.1435  0.7824
18973TIP3    H178334   4.406   0.934  11.311  0.3553  0.3784  1.6575
18973TIP3    H278335   4.272   1.004  11.326 -0.1105 -0.1342  0.0800
18974TIP3   OH278336   5.778   0.440   2.749 -0.3443  0.0581 -0.7563
18974TIP3    H178337   5.799   0.407   2.837 -0.6230  0.9437 -0.3539
18974TIP3    H278338   5.750   0.362   2.701  0.4896 -0.5548 -0.2707
18975TIP3   OH278339   1.606   5.313  17.080  0.4449 -0.2404 -0.2759
18975TIP3    H178340   1.630   5.228  17.118 -0.5514 -0.9329 -1.1676
18975TIP3    H278341   1.521   5.333  17.119 -0.3265 -0.6897 -1.6676
18976TIP3   OH278342   5.976   5.465   4.504  0.0045 -0.0447  0.8280
18976TIP3    H178343   5.917   5.435   4.573  1.4899 -2.3825  1.1774
18976TIP3    H278344   6.045   5.512   4.551  1.1742 -1.8909  1.0611
18977TIP3   OH278345   3.931   4.096  14.816 -0.3102 -0.0397  0.6513
18977TIP3    H178346   3.862   4.031  14.803  0.0042 -0.2468 -0.0313
18977TIP3    H278347   3.999   4.050  14.864 -0.7845  0.2627  1.6320
18978TIP3   OH278348   1.061   6.302  11.621  0.3703  0.1720 -0.2306
18978TIP3    H178349   1.105   6.382  11.650  0.6308 -0.1825  0.3637
18978TIP3    H278350   1.068   6.242  11.696 -2.4868  0.6359  0.5280
18979TIP3   OH278351   1.845   0.141   4.333  0.2485  0.3931 -0.0786
18979TIP3    H178352   1.815   0.111   4.418 -0.2238  1.9324  0.3274
18979TIP3    H278353   1.885   0.226   4.350 -1.3204  1.5014 -1.5819
18980TIP3   OH278354   0.811   0.039  15.272  0.3847  0.1323 -0.2236
18980TIP3    H178355   0.719   0.017  15.257 -0.1505  0.2741  2.3403
18980TIP3    H278356   0.856  -0.045  15.272  0.1484  0.0039 -0.8475
18981TIP3   OH278357   3.917   1.441   0.045 -0.0600 -0.2361 -0.0859
18981TIP3    H178358   3.840   1.396   0.010 -0.9141  1.0934  0.0568
18981TIP3    H278359   3.990   1.383   0.022 -1.0154 -1.2211 -0.7482
18982TIP3   OH278360   0.008   2.105  11.612 -0.1318  0.1392 -0.3861
18982TIP3    H178361  -0.074   2.129  11.655  0.2825  0.4981  0.2202
18982TIP3    H278362  -0.002   2.134  11.522 -0.1177  1.5078  0.0348
18983TIP3   OH278363   2.065   1.172   1.029  0.5276 -0.3019  1.1457
18983TIP3    H178364   2.148   1.206   1.063  0.4713  0.5544  0.4601
18983TIP3    H278365   2.089   1.123   0.951  0.3814 -0.0042  0.9139
18984TIP3   OH278366   3.223   0.559   5.573 -0.2382  0.4116  0.6311
18984TIP3    H178367   3.230   0.481   5.628  1.0217 -0.8481 -1.1824
18984TIP3    H278368   3.254   0.630   5.628 -0.0114 -0.6156  1.8800
18985TIP3   OH278369   0.580   4.978   5.175  0.1156  0.4097 -0.7923
18985TIP3    H178370   0.635   4.941   5.106  0.2028  0.5534 -0.7999
18985TIP3    H278371   0.598   5.072   5.172 -1.5292  0.7316 -2.0544
18986TIP3   OH278372   3.187   1.528   4.737 -0.2315  0.0542  0.0039
18986TIP3    H178373   3.163   1.598   4.676 -2.3662 -0.2240  0.4367
18986TIP3    H278374   3.151   1.557   4.821  0.1614 -0.8812  0.5018
18987TIP3   OH278375   0.942   5.446  14.865  0.4465  0.2174 -0.1625
18987TIP3    H178376   0.979   5.531  14.842  1.1550 -0.0904 -0.1926
18987TIP3    H278377   0.895   5.418  14.786  1.4428 -0.0708 -0.6710
18988TIP3   OH278378   1.526   1.997  15.720 -0.1520  0.4284 -0.4662
18988TIP3    H178379   1.578   2.069  15.684 -2.8685  1.8899 -1.8071
18988TIP3    H278380   1.498   1.948  15.643 -0.0402 -0.8531  0.2948
18989TIP3   OH278381   3.096   1.978  17.005  0.0218 -0.1222  0.3850
18989TIP3    H178382   3.048   2.055  16.976  0.6852  0.0298 -0.3092
18989TIP3    H278383   3.148   2.008  17.080  0.2938  0.1100  0.1040
18990TIP3   OH278384   3.325   3.937  14.396  0.0935  0.0173 -0.9896
18990TIP3    H178385   3.342   3.939  14.302  0.7483 -0.8511 -0.8939
18990TIP3    H278386   3.253   3.999  14.408  0.1229  0.2732 -2.0337
18991TIP3   OH278387   2.139   0.000  17.051  0.2840  0.1321  0.3495
18991TIP3    H178388   2.074   0.068  17.031  0.9774  1.0094  0.9769
18991TIP3    H278389   2.222   0.037  17.019  0.8889  0.1769  1.8842
18992TIP3   OH278390   3.760   1.634   5.888 -0.2711  0.1105 -0.4369
18992TIP3    H178391   3.675   1.676   5.902 -0.7615 -0.2964 -1.9367
18992TIP3    H278392   3.760   1.612   5.795  1.3440 -0.2266 -0.3836
18993TIP3   OH278393   4.855   1.213   4.908 -1.2041 -0.0967 -0.4028
18993TIP3    H178394   4.767   1.185   4.931 -1.8006 -0.3002 -2.6927
18993TIP3    H278395   4.896   1.134   4.871 -0.6255  0.4213 -0.8850
18994TIP3   OH278396   4.826   0.619  10.615  0.0138 -0.4201  0.1661
18994TIP3    H178397   4.886   0.573  10.556  0.7364  0.2977  0.3154
18994TIP3    H278398   4.845   0.712  10.601  0.8664 -0.2322  2.1401
18995TIP3   OH278399   0.584   5.825   3.229 -0.4525  0.1728 -0.1242
18995TIP3    H178400   0.633   5.822   3.147 -0.9606  1.3233 -0.4851
18995TIP3    H278401   0.635   5.771   3.289  0.8237  0.6884 -0.7126
18996TIP3   OH278402   5.417   0.934  12.640 -0.5660  0.3256  0.3742
18996TIP3    H178403   5.450   0.887  12.716  3.9887 -1.5906 -2.3402
18996TIP3    H278404   5.330   0.897  12.625  0.5064 -3.1489  1.7322
18997TIP3   OH278405   3.659   1.772  14.782  0.3151 -0.4997 -0.2539
18997TIP3    H178406   3.570   1.752  14.813  0.4173  1.1305  1.2220
18997TIP3    H278407   3.695   1.832  14.847  2.0741 -0.1450 -1.4663
18998TIP3   OH278408   6.107   6.669   0.307 -0.3734  0.3826 -0.5094
18998TIP3    H178409   6.086   6.718   0.386  1.5208  1.1748 -0.4441
18998TIP3    H278410   6.119   6.579   0.337  1.9000  0.9308  0.4770
18999TIP3   OH278411   5.385   4.333   1.103 -0.0799  0.3581 -0.0281
18999TIP3    H178412   5.420   4.246   1.085 -2.8044 -0.3488 -2.7591
18999TIP3    H278413   5.443   4.392   1.055  0.3304 -0.2080 -0.2482
19000TIP3   OH278414   1.619   0.927  15.703  0.0584  0.0131  0.0211
19000TIP3    H178415   1.613   0.933  15.607  1.6536  1.2045 -0.0486
19000TIP3    H278416   1.582   1.010  15.734 -0.0332 -0.1750  0.4095
19001TIP3   OH278417   5.958   6.572   2.216 -0.6179  0.4220  0.3290
19001TIP3    H178418   5.969   6.590   2.310 -0.0711 -0.9835  0.5528
19001TIP3    H278419   6.020   6.502   2.198  1.5499  2.7042 -1.7850
19002TIP3   OH278420   1.718   6.277   3.361  0.4099 -0.7285 -0.5163
19002TIP3    H178421   1.758   6.344   3.305  0.5484 -1.3905 -1.2317
19002TIP3    H278422   1.631   6.312   3.381  1.6427  1.2171  1.9319
19003TIP3   OH278423   1.898   5.755  11.715 -0.1327 -0.5218  0.0575
19003TIP3    H178424   1.982   5.709  11.712  0.0057 -0.3728  1.1498
19003TIP3    H278425   1.834   5.689  11.741 -0.4900 -0.7925 -1.4509
19004TIP3   OH278426   5.091   5.997   3.461 -0.5547  0.0055  0.0675
19004TIP3    H178427   4.998   5.982   3.477 -0.2242 -1.5092  0.7778
19004TIP3    H278428   5.119   6.052   3.535 -0.4727 -1.2586  1.0025
19005TIP3   OH278429   0.418   3.747   2.989  0.0416 -0.0604  0.3211
19005TIP3    H178430   0.457   3.739   2.902  0.5260  0.3649  0.4995
19005TIP3    H278431   0.326   3.722   2.976  0.7185 -2.8724  0.2263
19006TIP3   OH278432   4.975   5.960  12.157  0.0848  0.0409  0.0097
19006TIP3    H178433   4.957   6.020  12.084  0.5672 -1.3223 -1.2676
19006TIP3    H278434   5.005   5.880  12.116  1.3829 -0.4373  1.7623
19007TIP3   OH278435   3.754   1.530  15.440 -0.2036 -0.3573 -0.0260
19007TIP3    H178436   3.663   1.505  15.428 -0.8096  1.9514 -0.8988
19007TIP3    H278437   3.786   1.545  15.351  0.3336  0.9335  0.3558
19008TIP3   OH278438   0.231   0.223   1.008 -0.3058 -0.3310  0.3467
19008TIP3    H178439   0.214   0.267   1.092 -0.9246 -0.7071  0.4275
19008TIP3    H278440   0.151   0.238   0.957  0.5630  1.0217 -0.6913
19009TIP3   OH278441   5.784   6.417  16.991 -0.1311 -0.0596 -0.2682
19009TIP3    H178442   5.818   6.338  17.034 -0.1615 -0.3582 -0.7930
19009TIP3    H278443   5.691   6.419  17.016 -0.3003 -0.5856 -0.8426
19010TIP3   OH278444   5.140   1.290   4.974 -0.1020 -0.5341 -0.8982
19010TIP3    H178445   5.050   1.262   4.954 -0.0978 -0.5085 -0.9565
19010TIP3    H278446   5.166   1.341   4.897 -0.3509  0.1911 -0.5069
19011TIP3   OH278447   6.717   2.009  16.929  0.0209  0.4093 -0.2248
19011TIP3    H178448   6.789   1.969  16.979 -1.2692 -0.8336  0.7162
19011TIP3    H278449   6.760   2.072  16.871  1.6321  1.6996  2.2167
19012TIP3   OH278450   4.291   6.424  11.975  0.3199  0.2033 -0.1300
19012TIP3    H178451   4.335   6.483  11.914  0.8973 -1.2883 -1.2523
19012TIP3    H278452   4.312   6.336  11.941 -0.6869 -0.6320  1.3144
19013TIP3   OH278453   1.556   2.202  12.746  0.4653 -0.0425  0.1953
19013TIP3    H178454   1.602   2.147  12.683  0.3873 -0.6226  0.6344
19013TIP3    H278455   1.623   2.225  12.811  0.0347 -1.3552  1.1445
19014TIP3   OH278456   4.367   4.296  15.660  0.6347  0.2003  0.2803
19014TIP3    H178457   4.460   4.311  15.646  0.3827  0.9374 -0.6921
19014TIP3    H278458   4.363   4.212  15.707  1.8372  0.8106  1.5481
19015TIP3   OH278459   3.089   5.003   3.716 -0.5806  0.5351  0.1422
19015TIP3    H178460   3.173   5.049   3.710 -0.4214  0.1484 -0.6804
19015TIP3    H278461   3.110   4.917   3.752 -0.6678  0.5529  0.2370
19016TIP3   OH278462   4.286   2.595  16.343 -0.7788  0.1632 -0.4277
19016TIP3    H178463   4.357   2.562  16.288 -0.7344  0.4980 -0.5711
19016TIP3    H278464   4.209   2.593  16.286 -1.3343 -2.0294  0.2667
19017TIP3   OH278465   1.139   0.143   2.828  0.6555  0.4756  0.0505
19017TIP3    H178466   1.128   0.049   2.844 -2.2691  0.8805  1.1117
19017TIP3    H278467   1.081   0.161   2.753  1.3854  1.4035 -0.3094
19018TIP3   OH278468   3.939   5.016  13.734  0.2875 -0.2103 -0.2451
19018TIP3    H178469   3.929   4.942  13.794  1.8580 -0.6705 -0.5088
19018TIP3    H278470   3.999   5.076  13.780  0.1073  0.2606 -0.6127
19019TIP3   OH278471   1.768   1.093  12.700  0.0751 -0.0301  0.3580
19019TIP3    H178472   1.770   1.058  12.789 -0.5753  0.2505  0.4917
19019TIP3    H278473   1.832   1.041  12.652  2.1975  1.3504  1.5335
19020TIP3   OH278474   5.018   5.019  13.457  0.0511 -0.0077  0.5076
19020TIP3    H178475   4.998   5.078  13.384  1.2096  0.4466  0.5333
19020TIP3    H278476   4.958   4.945  13.446  0.0356  0.1768 -0.7463
19021TIP3   OH278477   5.904   6.663  12.072 -0.1889 -0.3510  0.3382
19021TIP3    H178478   5.884   6.724  12.143  0.6348 -1.4864  1.5912
19021TIP3    H278479   5.995   6.683  12.048 -0.3476 -0.2158 -0.1742
19022TIP3   OH278480   2.624   1.755  11.708  0.1962  0.7227 -0.1144
19022TIP3    H178481   2.617   1.842  11.748  1.1209  2.2423 -2.9972
19022TIP3    H278482   2.671   1.703  11.774  0.0823  2.5216  1.4885
19023TIP3   OH278483   2.448   4.909  11.727 -0.4726  0.1180 -0.6782
19023TIP3    H178484   2.479   4.982  11.672  1.6801  0.4856  0.8953
19023TIP3    H278485   2.488   4.832  11.688 -1.4480 -0.0414 -1.3963
19024TIP3   OH278486   0.311   2.949  11.717  0.5215  0.0670 -0.3870
19024TIP3    H178487   0.310   2.927  11.624  1.2022 -0.5328 -0.2658
19024TIP3    H278488   0.242   3.013  11.728 -1.9883 -2.3853 -0.6905
19025TIP3   OH278489   1.871   6.207  13.357  0.0346 -0.1431 -0.2442
19025TIP3    H178490   1.911   6.128  13.395 -0.3554 -1.4356 -2.3440
19025TIP3    H278491   1.783   6.178  13.332  0.4055  0.4915 -2.4297
19026TIP3   OH278492   2.758   2.830  12.796  0.0759  0.6716 -0.1568
19026TIP3    H178493   2.679   2.776  12.798 -0.0379  0.5130 -3.4494
19026TIP3    H278494   2.829   2.771  12.821 -0.6266  0.3862  1.2161
19027TIP3   OH278495   1.037   1.905   4.434  0.3805 -0.1167  0.4135
19027TIP3    H178496   0.941   1.898   4.437  0.4670 -1.9417  0.0658
19027TIP3    H278497   1.067   1.858   4.512  1.0035 -0.1074  0.1849
19028TIP3   OH278498   0.179   1.654  16.890  0.2531 -0.7551  0.1415
19028TIP3    H178499   0.086   1.635  16.904  0.4156 -0.7291  1.3533
19028TIP3    H278500   0.189   1.744  16.921  0.8548 -1.0707  0.9071
19029TIP3   OH278501   3.574   6.584   3.953  0.2986  0.0375 -0.3687
19029TIP3    H178502   3.603   6.662   3.906 -0.7046 -0.3400 -1.6615
19029TIP3    H278503   3.515   6.617   4.021  0.6016  0.4751 -0.3180
19030TIP3   OH278504   4.056   0.258  15.958 -0.0657  0.2696 -0.2276
19030TIP3    H178505   4.092   0.214  15.881  0.0552 -1.2699  0.6734
19030TIP3    H278506   4.126   0.256  16.023 -1.2662 -1.7136  1.1382
19031TIP3   OH278507   4.528   3.486   0.629 -0.0179 -0.4937 -0.3635
19031TIP3    H178508   4.488   3.424   0.568  1.9005  1.1868 -3.6178
19031TIP3    H278509   4.615   3.502   0.594  0.4764  2.1661  1.7155
19032TIP3   OH278510   2.369   4.928   0.690  0.2685  0.8228 -0.0943
19032TIP3    H178511   2.374   4.995   0.758 -0.2785  2.0549 -1.2131
19032TIP3    H278512   2.385   4.846   0.736 -2.7093  1.2751  2.0401
19033TIP3   OH278513   3.827   2.125  16.979 -0.0559 -0.0074  0.3889
19033TIP3    H178514   3.752   2.087  16.934 -1.0099  3.1837 -1.0284
19033TIP3    H278515   3.863   2.190  16.918  0.6699  2.1697  2.8874
19034TIP3   OH278516   6.382   1.189  14.253  0.1300 -0.4180  0.6121
19034TIP3    H178517   6.344   1.135  14.323  1.6858  1.4396  3.0416
19034TIP3    H278518   6.470   1.153  14.241  0.2684 -0.0091  0.4203
19035TIP3   OH278519   0.437   6.072   4.138  0.1826  0.2421 -0.3976
19035TIP3    H178520   0.482   6.119   4.068  0.8227  0.3423  0.0782
19035TIP3    H278521   0.349   6.057   4.104  0.5216  0.1919 -1.2721
19036TIP3   OH278522   1.221   4.603  14.661 -0.2292 -0.2617 -0.4626
19036TIP3    H178523   1.184   4.639  14.581  1.0496 -1.1925 -1.5173
19036TIP3    H278524   1.209   4.508  14.653 -1.0357 -0.3116  0.9576
19037TIP3   OH278525   3.242   4.118   3.192 -0.1937 -0.3441  0.3828
19037TIP3    H178526   3.212   4.124   3.282  0.6872 -0.6082  0.7079
19037TIP3    H278527   3.337   4.128   3.198 -0.1200 -0.4432 -0.5050
19038TIP3   OH278528   5.917   5.947   6.280  0.0536 -0.1255  0.1792
19038TIP3    H178529   5.939   5.870   6.332 -0.3252 -3.4040 -4.0184
19038TIP3    H278530   5.996   6.001   6.283  0.3414 -0.4959  3.2275
19039TIP3   OH278531   5.171   5.024  12.440 -0.1995 -0.0044 -0.2294
19039TIP3    H178532   5.261   4.994  12.456 -0.0649  0.1305 -0.7145
19039TIP3    H278533   5.170   5.049  12.347 -1.3671 -2.2057 -0.8625
19040TIP3   OH278534   2.237   0.424  11.591  0.2285  0.2009  0.3051
19040TIP3    H178535   2.306   0.485  11.565 -0.2254  0.6528  0.1514
19040TIP3    H278536   2.201   0.392  11.508 -0.1462  0.4228  0.3807
19041TIP3   OH278537   5.380   6.018  12.136  0.5377 -0.1921 -0.4804
19041TIP3    H178538   5.303   6.045  12.085 -0.6386  0.7729  1.6720
19041TIP3    H278539   5.365   6.055  12.223  1.6314 -3.1328  1.0848
19042TIP3   OH278540   3.801   3.304   3.257  0.3579 -0.6313 -0.2672
19042TIP3    H178541   3.776   3.214   3.238  2.2121 -0.9710 -1.3301
19042TIP3    H278542   3.719   3.347   3.280 -0.6100 -2.5141  0.0257
19043TIP3   OH278543   2.712   1.593  10.753 -0.1805  0.1953  0.1148
19043TIP3    H178544   2.801   1.560  10.765 -0.6089 -1.5394 -1.1450
19043TIP3    H278545   2.662   1.555  10.826 -0.0026  0.8284  0.5796
19044TIP3   OH278546   5.666   4.061   1.343 -0.0276 -0.0377 -0.5958
19044TIP3    H178547   5.625   4.055   1.256 -0.9168  0.3219 -0.2176
19044TIP3    H278548   5.600   4.024   1.402  0.7277 -0.6341 -0.1111
19045TIP3   OH278549   3.375   2.694   3.220  0.1354  0.4642 -0.0654
19045TIP3    H178550   3.374   2.781   3.181 -1.6678  1.0129  1.1072
19045TIP3    H278551   3.307   2.645   3.173 -1.1959  0.7562  1.4997
19046TIP3   OH278552   5.940   3.070  16.341  0.1183 -0.1154 -0.4440
19046TIP3    H178553   5.926   3.012  16.267 -1.3624  1.3733 -1.4153
19046TIP3    H278554   6.034   3.088  16.340  0.6893 -2.6557  0.1027
19047TIP3   OH278555   0.879   3.016  16.056  0.4999 -0.1931 -0.1917
19047TIP3    H178556   0.882   3.035  15.962  0.3750  0.1608 -0.1265
19047TIP3    H278557   0.865   3.101  16.097 -1.9899 -0.6458  0.0099
19048TIP3   OH278558   1.995   4.341  13.110 -0.1879  0.2866  0.1939
19048TIP3    H178559   2.072   4.328  13.054 -0.8873  2.4572 -1.4020
19048TIP3    H278560   2.029   4.392  13.184 -0.1724  2.0093 -0.9379
19049TIP3   OH278561   5.904   1.608  14.131 -0.5222  0.4039 -0.1739
19049TIP3    H178562   5.881   1.625  14.223  2.7102 -0.0296  0.8338
19049TIP3    H278563   5.916   1.695  14.094 -1.1188  0.5700  0.0043
19050TIP3   OH278564   3.631   1.950  12.027 -0.2249  0.6389 -0.6986
19050TIP3    H178565   3.656   1.999  11.950  1.6347  1.4930  0.3863
19050TIP3    H278566   3.714   1.925  12.069 -1.1563 -0.4984  0.5910
19051TIP3   OH278567   4.584   1.257   0.243 -0.6472  0.2756  0.5164
19051TIP3    H178568   4.579   1.163   0.259 -0.8532  0.3257  0.7531
19051TIP3    H278569   4.673   1.271   0.209 -1.0885 -0.1905 -0.8466
19052TIP3   OH278570   1.021   1.321  15.262  0.4641 -0.4154 -0.0426
19052TIP3    H178571   1.075   1.259  15.214  1.3256 -0.3477  0.8062
19052TIP3    H278572   0.933   1.285  15.258  0.7083 -0.9416 -0.7853
19053TIP3   OH278573   2.462   1.799  12.844  0.0023  0.7729  0.1423
19053TIP3    H178574   2.515   1.879  12.836 -0.5358  1.2052  0.8361
19053TIP3    H278575   2.387   1.814  12.787  0.7641  0.0027 -1.1436
19054TIP3   OH278576   5.667   3.104  12.491  0.3656  0.2679  0.3298
19054TIP3    H178577   5.610   3.114  12.567  1.1738  1.9017  0.7692
19054TIP3    H278578   5.643   3.019  12.454 -1.4803  0.3537  1.2043
19055TIP3   OH278579   5.230   4.168  12.761 -0.5497  0.0873 -0.2297
19055TIP3    H178580   5.242   4.181  12.667  0.4617  0.8277 -0.0141
19055TIP3    H278581   5.249   4.076  12.775 -1.6760 -0.2683 -0.8758
19056TIP3   OH278582   0.256   3.135  13.273 -0.2860  0.1721  0.8739
19056TIP3    H178583   0.181   3.094  13.229 -0.2085  0.8233  0.1112
19056TIP3    H278584   0.219   3.174  13.352 -0.2027 -2.1469  2.1407
19057TIP3   OH278585   0.682   2.428  10.898 -0.2457  0.0097 -0.4244
19057TIP3    H178586   0.674   2.522  10.912  0.2770 -0.0746  0.5331
19057TIP3    H278587   0.775   2.414  10.880 -0.0281 -0.4790  0.9131
19058TIP3   OH278588   5.627   0.983   1.206  0.4080  0.3759 -0.0112
19058TIP3    H178589   5.556   0.928   1.238  2.6194 -1.8089  1.4956
19058TIP3    H278590   5.646   1.043   1.279 -0.4192  1.6189 -0.7659
19059TIP3   OH278591   0.853   3.248   2.721  0.2571 -0.1897  0.3069
19059TIP3    H178592   0.893   3.331   2.695  1.4869 -1.1939 -1.1669
19059TIP3    H278593   0.877   3.238   2.813  1.3164  0.4256  0.1203
19060TIP3   OH278594   3.539   0.900  12.029 -0.6114 -0.3132 -0.0584
19060TIP3    H178595   3.578   0.823  11.987  0.5705 -0.1893  0.7608
19060TIP3    H278596   3.445   0.879  12.034 -0.2665 -1.8626  0.4930
19061TIP3   OH278597   4.030   3.647   2.918 -0.6186  0.5897  0.1283
19061TIP3    H178598   4.016   3.553   2.909  0.0076  0.5067 -0.0187
19061TIP3    H278599   4.007   3.666   3.009  1.0787 -0.0491  0.7356
19062TIP3   OH278600   0.563   4.450   0.069 -0.3072  0.0613 -0.3196
19062TIP3    H178601   0.633   4.416   0.014 -0.3630 -0.1258 -0.2780
19062TIP3    H278602   0.523   4.520   0.017  1.9107  2.3803  0.9032
19063TIP3   OH278603   1.932   2.241  14.198 -0.1026  0.2461  0.1869
19063TIP3    H178604   1.980   2.159  14.205  0.1492  0.4652  1.3484
19063TIP3    H278605   1.994   2.302  14.158  0.8826  0.6989  2.2676
19064TIP3   OH278606   1.066   6.638  15.150 -0.1590  0.1887  0.0806
19064TIP3    H178607   1.010   6.613  15.222 -0.9577  0.5403 -0.3998
19064TIP3    H278608   1.151   6.657  15.190 -1.2187  2.8058  1.3274
19065TIP3   OH278609   6.591   2.911  10.698  0.3813 -0.4873  0.5704
19065TIP3    H178610   6.642   2.969  10.642 -0.5133  0.9762  1.2060
19065TIP3    H278611   6.537   2.970  10.751 -1.3019 -1.9251  0.5534
19066TIP3   OH278612   4.386   6.358   0.794  0.1646 -0.0504 -0.3386
19066TIP3    H178613   4.376   6.372   0.700  1.5247  3.1276 -0.1341
19066TIP3    H278614   4.306   6.313   0.820 -0.9221  0.2944 -2.7931
19067TIP3   OH278615   0.292   3.790   0.720 -0.3106  0.2560  0.4393
19067TIP3    H178616   0.343   3.870   0.723  0.7364 -0.3584 -0.1302
19067TIP3    H278617   0.270   3.778   0.627  2.1350 -1.6188 -0.0180
19068TIP3   OH278618   2.414   6.553  15.905 -0.1580 -0.3878 -0.7364
19068TIP3    H178619   2.368   6.555  15.821  0.4551 -0.5953 -1.0769
19068TIP3    H278620   2.360   6.495  15.960 -0.1363 -0.8789 -1.2284
19069TIP3   OH278621   0.560   4.923  16.364  0.7880  0.1787  0.3817
19069TIP3    H178622   0.578   4.844  16.312 -0.9720 -0.7199  1.0224
19069TIP3    H278623   0.645   4.951  16.396  1.4940 -1.4044  0.0074
19070TIP3   OH278624   6.691   1.091  16.230  0.2241 -0.1841  0.0291
19070TIP3    H178625   6.720   1.178  16.257  1.1156 -0.5165  0.1473
19070TIP3    H278626   6.602   1.106  16.196  1.7068  1.4669 -3.6880
19071TIP3   OH278627   0.018   1.770  13.302 -0.5131  0.4690  0.5205
19071TIP3    H178628   0.110   1.745  13.304 -0.1425  1.5101 -1.3022
19071TIP3    H278629  -0.024   1.703  13.248 -0.5204  0.8659  0.0325
19072TIP3   OH278630   4.522   5.213   0.546 -0.2343 -0.0471 -0.0536
19072TIP3    H178631   4.613   5.231   0.525 -0.3052 -2.3330 -2.9617
19072TIP3    H278632   4.473   5.286   0.508  0.2948  0.7078  0.6934
19073TIP3   OH278633   6.222   2.838   3.651  0.1844 -0.2524  0.2751
19073TIP3    H178634   6.244   2.849   3.558  0.7175 -1.2637  0.2667
19073TIP3    H278635   6.215   2.927   3.685 -0.3753  0.1349 -0.8155
19074TIP3   OH278636   1.167   2.106  15.574  0.0293  0.1767 -0.2721
19074TIP3    H178637   1.152   2.193  15.609 -0.7777 -0.2209  0.3990
19074TIP3    H278638   1.190   2.052  15.650 -1.3298 -0.6011 -0.3799
19075TIP3   OH278639   5.406   1.533   5.339  0.2009  0.0101  0.6135
19075TIP3    H178640   5.340   1.464   5.337 -0.2025  0.3883 -1.4393
19075TIP3    H278641   5.449   1.524   5.424  0.0770 -2.6759  0.4487
19076TIP3   OH278642   2.705   3.892   3.214 -0.0969  0.1538 -0.5548
19076TIP3    H178643   2.685   3.985   3.221  1.9344  0.5412  1.0473
19076TIP3    H278644   2.734   3.880   3.124 -0.4689  1.0245 -0.7996
19077TIP3   OH278645   1.774   2.154   2.779  0.6064 -0.3700 -0.4340
19077TIP3    H178646   1.696   2.099   2.766  0.8641 -0.8130 -0.1335
19077TIP3    H278647   1.749   2.240   2.744 -0.2521 -0.3178  0.2710
19078TIP3   OH278648   4.244   5.991   1.737  0.1778  0.4211  0.9253
19078TIP3    H178649   4.321   5.969   1.686 -0.6975  1.3592 -0.8920
19078TIP3    H278650   4.263   6.076   1.775  0.2939  0.3505  1.0246
19079TIP3   OH278651   3.174   1.972   2.138  0.6454 -0.4128  0.0040
19079TIP3    H178652   3.140   1.919   2.210  1.7680 -0.0102  0.8479
19079TIP3    H278653   3.185   2.059   2.175  1.2723 -0.2034 -0.6510
19080TIP3   OH278654   0.800   1.557   5.442 -0.4534  0.4847  0.0846
19080TIP3    H178655   0.762   1.543   5.355 -0.5040 -0.1233  0.2043
19080TIP3    H278656   0.824   1.650   5.442  0.3136  0.2977 -0.8717
19081TIP3   OH278657   6.145   5.910  15.622 -0.2515 -0.5481  0.1501
19081TIP3    H178658   6.193   5.924  15.703 -2.2215 -0.1703  1.3271
19081TIP3    H278659   6.125   5.817  15.621 -1.0855 -0.3848  0.6382
19082TIP3   OH278660   5.674   4.563  12.921 -0.7955  0.3227 -0.4021
19082TIP3    H178661   5.602   4.623  12.901 -1.4580  0.4768  2.0932
19082TIP3    H278662   5.632   4.493  12.972  0.4870 -0.7189 -0.7255
19083TIP3   OH278663   4.434   6.703   0.063  0.7381  0.1555 -0.0792
19083TIP3    H178664   4.468   6.712  -0.026  0.6266  0.8240 -0.0531
19083TIP3    H278665   4.491   6.638   0.104 -1.0438 -2.5491 -1.5665
19084TIP3   OH278666   3.163   0.398   4.928  0.1253  0.9718 -0.3956
19084TIP3    H178667   3.242   0.440   4.961  0.7166  1.0009 -1.8036
19084TIP3    H278668   3.113   0.469   4.887  0.4934  0.5591 -1.5875
19085TIP3   OH278669   6.576   6.394  16.815 -0.4228 -0.1718  0.4378
19085TIP3    H178670   6.606   6.306  16.796 -0.5493 -0.2247  0.4855
19085TIP3    H278671   6.655   6.448  16.808 -0.2625 -0.3494  0.8127
19086TIP3   OH278672   5.077   2.247  15.536  0.6333  0.0823 -0.1498
19086TIP3    H178673   5.018   2.320  15.520  0.6862 -0.2135 -1.8629
19086TIP3    H278674   5.164   2.283  15.520  0.6580 -0.3411 -1.0241
19087TIP3   OH278675   2.061   4.136   1.418 -0.0243 -0.2193  0.1258
19087TIP3    H178676   2.025   4.128   1.506  1.5687 -0.6637  0.7841
19087TIP3    H278677   2.035   4.224   1.389  0.5533  0.4727  1.5919
19088TIP3   OH278678   2.969   4.511   5.965 -0.0948  0.6024  0.1162
19088TIP3    H178679   2.908   4.511   5.891  0.4686  2.3902 -0.4169
19088TIP3    H278680   3.052   4.482   5.927 -0.1142  0.2384  0.3519
19089TIP3   OH278681   4.652   0.882   2.361 -0.4150 -0.4298  0.5349
19089TIP3    H178682   4.644   0.809   2.301 -0.3267  0.0271 -0.0369
19089TIP3    H278683   4.654   0.960   2.305 -1.5885  0.0929  1.1638
19090TIP3   OH278684   1.223   1.373  13.760 -0.1106  0.4819  0.0717
19090TIP3    H178685   1.129   1.387  13.754 -0.2251  0.2445  1.1638
19090TIP3    H278686   1.255   1.385  13.670 -1.2305  0.1278 -0.3888
19091TIP3   OH278687   0.225   2.482  16.635 -0.4797  0.4257 -0.7756
19091TIP3    H178688   0.229   2.419  16.707  2.0515 -1.5354 -2.4316
19091TIP3    H278689   0.194   2.431  16.560  1.3426  1.1485 -2.1030
19092TIP3   OH278690   0.802   4.616   1.189  0.2981 -0.1680  0.2043
19092TIP3    H178691   0.807   4.662   1.104  3.5845  0.8918  0.8347
19092TIP3    H278692   0.810   4.524   1.167 -1.1994 -0.1208 -0.7287
19093TIP3   OH278693   4.634   0.480  17.343  0.3403  0.3904  0.0485
19093TIP3    H178694   4.582   0.425  17.401 -1.9630  2.8818  0.5467
19093TIP3    H278695   4.720   0.486  17.385  0.6719 -2.6482 -0.0078
19094TIP3   OH278696   4.974   5.252   1.643 -0.4073  0.3213  0.6259
19094TIP3    H178697   4.969   5.307   1.721 -1.4219  0.0565  0.7643
19094TIP3    H278698   4.897   5.276   1.592 -0.1343 -0.0198  0.0474
19095TIP3   OH278699   5.801   2.499  13.684  0.4322  0.4271  0.1544
19095TIP3    H178700   5.881   2.549  13.668  1.3267 -1.0869 -0.2978
19095TIP3    H278701   5.822   2.443  13.758  0.0433 -0.4775 -0.3986
19096TIP3   OH278702   5.388   4.238  11.324 -0.8347  0.4028 -0.0690
19096TIP3    H178703   5.438   4.168  11.283 -1.6914 -1.7549  2.2866
19096TIP3    H278704   5.398   4.313  11.265 -1.3162 -2.1391 -3.6661
19097TIP3   OH278705   0.369   0.843  14.876 -0.1474 -0.4440 -0.1263
19097TIP3    H178706   0.329   0.884  14.799  0.2123  0.3758  0.1124
19097TIP3    H278707   0.300   0.788  14.913 -0.4204 -0.6044 -0.8547
19098TIP3   OH278708   0.058   1.248  17.194  0.0838 -0.0863  0.2477
19098TIP3    H178709   0.035   1.263  17.286 -1.6290 -0.7752 -0.0177
19098TIP3    H278710   0.127   1.312  17.175  0.4624  0.0695  1.9982
19099TIP3   OH278711   2.750   0.446   1.432  0.0860  0.1971  0.3700
19099TIP3    H178712   2.814   0.438   1.502  2.3530  1.0001 -1.4700
19099TIP3    H278713   2.721   0.537   1.436 -0.2725  0.0730  0.6439
19100TIP3   OH278714   1.476   4.325  14.729 -0.1164 -0.2512 -0.3220
19100TIP3    H178715   1.560   4.297  14.765 -1.4105 -1.2428  2.1818
19100TIP3    H278716   1.429   4.243  14.711 -0.6122  0.2859 -1.6122
19101TIP3   OH278717   1.476   3.869  11.940  0.3104  0.1739 -0.2843
19101TIP3    H178718   1.556   3.847  11.988 -0.7049  1.0981  1.9609
19101TIP3    H278719   1.435   3.784  11.923  1.2143 -0.2381 -0.4890
19102TIP3   OH278720   0.369   4.122   6.759  0.5193  0.1619  0.1718
19102TIP3    H178721   0.449   4.082   6.725  0.8061 -1.9235  2.9689
19102TIP3    H278722   0.298   4.076   6.714  0.8782 -0.1411 -0.0866
19103TIP3   OH278723   1.761   0.021   4.573  0.1661 -0.0966  0.2490
19103TIP3    H178724   1.726  -0.051   4.521 -0.1492 -0.8707  1.4694
19103TIP3    H278725   1.844  -0.012   4.607 -0.3271 -0.2085  1.4190
19104TIP3   OH278726   0.551   4.672  12.575  0.2466 -0.3780  0.2464
19104TIP3    H178727   0.562   4.765  12.560  2.0166 -0.5895  0.0502
19104TIP3    H278728   0.538   4.635  12.488  2.3496 -0.6205 -0.0055
19105TIP3   OH278729   4.850   0.712  15.173  0.0933  0.0658  0.2959
19105TIP3    H178730   4.878   0.626  15.142  0.9075 -0.3750  2.0960
19105TIP3    H278731   4.791   0.744  15.105  0.0911 -1.7311 -0.6158
19106TIP3   OH278732   6.482   5.300  12.404 -0.2620 -0.2999  0.3987
19106TIP3    H178733   6.549   5.362  12.376 -1.0358  0.8779  1.0895
19106TIP3    H278734   6.403   5.353  12.417 -0.6519 -1.2210  2.1198
19107TIP3   OH278735   0.971   6.381   1.487 -0.1384 -0.1135  0.8721
19107TIP3    H178736   0.929   6.466   1.502 -0.4450  0.2952 -1.7280
19107TIP3    H278737   1.057   6.403   1.451  0.8445 -0.9475  2.6146
19108TIP3   OH278738   0.489   0.141   0.932  0.3536 -0.0513 -0.7543
19108TIP3    H178739   0.434   0.081   0.881  1.4927 -1.6600 -0.1496
19108TIP3    H278740   0.427   0.203   0.970 -0.9270 -1.1451 -0.9831
19109TIP3   OH278741   1.261   1.471   5.133  0.5666 -0.1013 -0.5924
19109TIP3    H178742   1.278   1.540   5.069 -0.4066  0.7528  0.0316
19109TIP3    H278743   1.168   1.481   5.155  0.7898 -0.6108  0.6656
19110TIP3   OH278744   1.369   3.145   3.174  0.1189 -0.0741  0.1524
19110TIP3    H178745   1.457   3.120   3.145  0.5796 -1.1492  2.2792
19110TIP3    H278746   1.365   3.240   3.160  0.6742 -0.3398 -2.2323
19111TIP3   OH278747   0.567   3.751  13.152  0.2412  0.1101  0.0964
19111TIP3    H178748   0.511   3.799  13.092  1.4244  1.2053 -0.1844
19111TIP3    H278749   0.634   3.815  13.179 -0.0295 -0.4323  2.3042
19112TIP3   OH278750   4.745   1.107  11.874 -0.5100 -0.5574 -0.3109
19112TIP3    H178751   4.689   1.144  11.942 -1.5875 -0.3047 -1.3003
19112TIP3    H278752   4.800   1.043  11.920  0.7590  1.5508  1.2833
19113TIP3   OH278753   0.799   3.511  15.844 -0.3797  0.2955 -0.4440
19113TIP3    H178754   0.752   3.589  15.815  1.4245  1.6626  0.1175
19113TIP3    H278755   0.861   3.493  15.773  0.1452  0.2220  0.0201
19114TIP3   OH278756   5.758   5.717  11.711 -0.7336  0.1306  0.0030
19114TIP3    H178757   5.704   5.689  11.785 -0.8897  0.8219  0.1601
19114TIP3    H278758   5.717   5.798  11.681 -0.7556 -0.2247 -0.9430
19115TIP3   OH278759   1.555   0.189  12.359 -0.3122 -0.0672  0.1461
19115TIP3    H178760   1.608   0.160  12.433 -0.4365 -1.1990 -0.1799
19115TIP3    H278761   1.476   0.135  12.363 -0.1116 -0.4961 -1.0681
19116TIP3   OH278762   2.761   3.049   5.208 -0.3442 -0.1441 -0.6170
19116TIP3    H178763   2.685   3.094   5.172  0.8084  1.2792 -1.4054
19116TIP3    H278764   2.760   2.963   5.166 -1.9992 -0.4910  0.0836
19117TIP3   OH278765   0.707   3.407   5.664 -0.5003  0.2662 -0.0409
19117TIP3    H178766   0.648   3.479   5.685 -0.8374  0.3384 -1.1406
19117TIP3    H278767   0.768   3.444   5.600 -0.0613 -0.1592  0.1273
19118TIP3   OH278768   0.268   6.328   4.616  0.2826  0.4639 -0.6226
19118TIP3    H178769   0.283   6.304   4.524  0.2098  0.4474 -0.6309
19118TIP3    H278770   0.348   6.371   4.643 -0.2578  1.8677 -1.1508
19119TIP3   OH278771   0.871   1.983   2.637  0.2179  0.2040 -0.5237
19119TIP3    H178772   0.785   2.010   2.605  0.0742  0.5692  0.1468
19119TIP3    H278773   0.852   1.917   2.704  0.4693  0.0743 -0.5811
19120TIP3   OH278774   1.625   3.207   2.824 -0.3148 -0.6902  0.8159
19120TIP3    H178775   1.582   3.171   2.901 -1.4125  0.1842  0.6312
19120TIP3    H278776   1.606   3.144   2.754 -3.1664  0.6769  0.2293
19121TIP3   OH278777   0.854   3.196   4.906  0.4889  0.0399 -0.7560
19121TIP3    H178778   0.844   3.267   4.968  0.9982  0.6815 -1.3797
19121TIP3    H278779   0.881   3.121   4.959  0.9602  0.5842 -0.2139
19122TIP3   OH278780   0.473   1.732  14.415  0.5310 -0.1010  0.0862
19122TIP3    H178781   0.543   1.727  14.480  2.6252 -0.3282 -2.0439
19122TIP3    H278782   0.500   1.672  14.346 -1.6808 -0.0140 -0.9433
19123TIP3   OH278783   0.663   3.561   4.506  0.1010 -0.0159 -0.3792
19123TIP3    H178784   0.626   3.479   4.473  0.9052 -0.1134 -1.0466
19123TIP3    H278785   0.728   3.534   4.571  1.3505  0.0120 -1.5708
19124TIP3   OH278786   6.534   1.053  12.491 -0.3013 -0.0899  0.3417
19124TIP3    H178787   6.553   0.998  12.568  0.7461 -1.7044 -1.0057
19124TIP3    H278788   6.497   1.133  12.528 -0.6475 -1.1586  2.4782
19125TIP3   OH278789   5.588   4.629  17.162 -0.0816  0.5720  0.0300
19125TIP3    H178790   5.673   4.592  17.139 -0.3557 -0.1619  0.1662
19125TIP3    H278791   5.586   4.628  17.258 -0.6382 -0.3693  0.0232
19126TIP3   OH278792   3.068   5.968   2.283  0.1547 -0.9806 -0.2745
19126TIP3    H178793   3.002   6.022   2.240  1.3481  0.2067 -0.6650
19126TIP3    H278794   3.136   5.956   2.218  0.2516 -2.3919  0.0478
19127TIP3   OH278795   0.741   5.827  13.555 -0.0268 -0.1717  0.4008
19127TIP3    H178796   0.829   5.862  13.543 -0.5579  1.3914  0.7903
19127TIP3    H278797   0.741   5.744  13.508  2.3978 -1.4585  2.4216
19128TIP3   OH278798   5.758   5.771   2.885 -0.0827  0.1196 -0.5180
19128TIP3    H178799   5.839   5.735   2.849 -0.9081  0.2613 -2.6416
19128TIP3    H278800   5.690   5.707   2.862 -0.4339 -0.7914  2.5866
19129TIP3   OH278801   2.410   3.144  12.008  0.1345 -0.8573  0.5542
19129TIP3    H178802   2.454   3.148  11.923  1.1503  2.7266  1.0484
19129TIP3    H278803   2.445   3.066  12.050  0.7825 -1.8547 -1.6785
19130TIP3   OH278804   5.389   1.993   5.290 -0.1718 -0.6190 -0.0746
19130TIP3    H178805   5.426   1.929   5.229  0.9180  0.0776 -0.1527
19130TIP3    H278806   5.310   2.025   5.246 -0.4884 -1.5632 -0.2268
19131TIP3   OH278807   4.416   1.958   5.024  0.0288 -0.3166 -0.2442
19131TIP3    H178808   4.325   1.936   5.046 -0.1269  0.0368 -0.5311
19131TIP3    H278809   4.418   1.958   4.928 -0.1502  1.5827 -0.2824
19132TIP3   OH278810   6.297   0.195   1.800 -0.2459  0.4721  0.0121
19132TIP3    H178811   6.360   0.181   1.871 -0.8853  0.1166  0.5173
19132TIP3    H278812   6.214   0.212   1.845 -0.8109 -0.4815 -0.6479
19133TIP3   OH278813   6.042   2.194   2.265  0.2468  0.1607  0.4730
19133TIP3    H178814   5.963   2.245   2.246  0.2080  0.0620  0.3726
19133TIP3    H278815   6.014   2.103   2.260  0.8761  0.0417 -1.9128
19134TIP3   OH278816   6.437   2.835   5.403  0.3354 -0.4615 -0.8484
19134TIP3    H178817   6.361   2.786   5.372  1.2523 -1.4486 -1.5806
19134TIP3    H278818   6.401   2.895   5.468 -0.9935 -1.2650 -0.8025
19135TIP3   OH278819   0.585   4.896  14.426  0.1299  0.3462  0.0292
19135TIP3    H178820   0.541   4.967  14.473  0.2078  0.6792 -0.4051
19135TIP3    H278821   0.513   4.840  14.395 -0.0306  1.1963 -1.1777
19136TIP3   OH278822   2.847   2.438   6.546  0.2258  0.2034 -0.2848
19136TIP3    H178823   2.783   2.495   6.505 -2.4974 -0.5156  2.5712
19136TIP3    H278824   2.833   2.352   6.506  2.0015  0.7252 -2.1848
19137TIP3   OH278825   0.599   3.597   0.887 -0.2385 -0.2126  0.7532
19137TIP3    H178826   0.530   3.640   0.939 -0.2711 -1.9205  2.1955
19137TIP3    H278827   0.559   3.516   0.857  1.0554 -1.1213  1.4117
19138TIP3   OH278828   0.594   1.883  11.322 -0.4798  0.6584  0.1599
19138TIP3    H178829   0.509   1.854  11.289 -0.9140  1.6227  0.3996
19138TIP3    H278830   0.657   1.854  11.256 -0.8002 -1.2770  0.6328
19139TIP3   OH278831   1.156   2.787   2.625  0.5526 -0.3150  0.1884
19139TIP3    H178832   1.107   2.716   2.667 -0.4938 -0.5532 -1.3754
19139TIP3    H278833   1.147   2.861   2.685  1.0455 -1.2675  1.4931
19140TIP3   OH278834   1.679   4.509  15.932  0.2650  0.1630  0.3507
19140TIP3    H178835   1.706   4.597  15.905 -0.7119  0.5145  0.4752
19140TIP3    H278836   1.732   4.450  15.879  1.1451  0.8178  0.4701
19141TIP3   OH278837   0.432   5.342   5.806 -0.1484  0.0444 -0.4863
19141TIP3    H178838   0.373   5.306   5.872 -1.7561 -1.2895 -2.5492
19141TIP3    H278839   0.497   5.273   5.791  1.2973  1.0268  0.8728
19142TIP3   OH278840   2.411   1.563  16.357 -0.4815  0.5139  0.0355
19142TIP3    H178841   2.386   1.494  16.297 -0.0322  0.2908  0.0983
19142TIP3    H278842   2.329   1.595  16.393 -0.6586 -0.6552  0.7427
19143TIP3   OH278843   5.428   0.440  17.103 -0.0991  0.1850 -0.1760
19143TIP3    H178844   5.437   0.484  17.018 -0.1031  0.4295 -0.0520
19143TIP3    H278845   5.418   0.512  17.166 -0.3770 -0.0061 -0.0037
19144TIP3   OH278846   1.308   5.301   4.565  0.4752 -0.3524 -0.0858
19144TIP3    H178847   1.366   5.277   4.637  1.1736 -1.1743 -0.8969
19144TIP3    H278848   1.237   5.350   4.606  1.5613  0.3818  0.9806
19145TIP3   OH278849   0.934   5.339   5.236  0.1813  0.3891 -0.1971
19145TIP3    H178850   0.998   5.396   5.279  0.5261 -0.4001  0.3737
19145TIP3    H278851   0.985   5.290   5.171 -0.0007  0.3355 -0.3008
19146TIP3   OH278852   1.035   2.449  14.061  0.1046 -0.7983 -0.4456
19146TIP3    H178853   0.970   2.511  14.092  0.0014 -2.4465  3.0619
19146TIP3    H278854   0.984   2.374  14.030  0.2850 -0.8970 -0.5068
19147TIP3   OH278855   4.028   0.230   2.657  0.6248  0.5797 -0.1718
19147TIP3    H178856   4.050   0.323   2.654  0.3155  0.6368 -3.3775
19147TIP3    H278857   3.941   0.224   2.617  0.5993 -1.0906  0.0595
19148TIP3   OH278858   3.909   3.776   6.144 -0.4671  0.3415 -0.1254
19148TIP3    H178859   3.968   3.702   6.163  1.0039  0.6710 -2.8880
19148TIP3    H278860   3.946   3.849   6.194  2.3967  0.8355 -2.6209
19149TIP3   OH278861   6.222   2.390   0.119 -0.6159  0.4742  0.4880
19149TIP3    H178862   6.256   2.301   0.108 -2.0895 -0.0437 -0.1063
19149TIP3    H278863   6.231   2.429   0.032  0.4161  1.0841  0.8432
19150TIP3   OH278864   1.689   3.474  13.444  0.6604 -0.0024  0.4140
19150TIP3    H178865   1.755   3.544  13.448 -0.0190  0.6206  1.0801
19150TIP3    H278866   1.666   3.458  13.536 -0.4684  0.1511  0.1756
19151TIP3   OH278867   0.163   0.386   4.864 -0.2005 -0.0686 -0.3452
19151TIP3    H178868   0.103   0.441   4.914  0.7793 -0.4857  1.3870
19151TIP3    H278869   0.128   0.297   4.874 -0.6275 -0.0334 -1.3949
19152TIP3   OH278870   2.770   3.379   4.944  0.3724  0.2078 -0.4683
19152TIP3    H178871   2.708   3.389   5.016 -0.2031 -0.5238 -0.8503
19152TIP3    H278872   2.716   3.369   4.867  0.9541 -0.7746 -0.7671
19153TIP3   OH278873   4.958   4.333   1.224  0.2644 -0.2160  0.2051
19153TIP3    H178874   4.891   4.286   1.176  0.3085  0.2733 -0.3477
19153TIP3    H278875   4.909   4.385   1.288  0.1536 -0.2878  0.1792
19154TIP3   OH278876   0.523   4.152   3.591  0.2211  0.0884  0.4443
19154TIP3    H178877   0.456   4.185   3.652 -1.5898 -0.1366 -1.3255
19154TIP3    H278878   0.534   4.061   3.617 -0.8448 -0.1251  0.2222
19155TIP3   OH278879   2.294   1.846  15.352  0.0308  0.2827 -0.0861
19155TIP3    H178880   2.302   1.840  15.257  1.4035  1.1555 -0.0473
19155TIP3    H278881   2.360   1.785  15.385 -0.0183  0.4387  0.3038
19156TIP3   OH278882   6.367   1.523   4.219 -0.3318  0.0951 -0.1474
19156TIP3    H178883   6.449   1.572   4.212 -0.7331  0.8629  0.4283
19156TIP3    H278884   6.355   1.483   4.133  0.0198  0.9747 -0.6093
19157TIP3   OH278885   4.040   2.295  13.392  0.7481 -0.6106 -0.0452
19157TIP3    H178886   4.044   2.361  13.461 -1.7926  0.3857 -0.7177
19157TIP3    H278887   4.030   2.212  13.438 -1.4533  0.0932  0.8537
19158TIP3   OH278888   2.521   0.549   1.079 -0.3242 -0.0245 -0.3802
19158TIP3    H178889   2.463   0.615   1.041  0.7627  0.6387 -0.9188
19158TIP3    H278890   2.608   0.570   1.045  0.4397 -0.3221  1.2932
19159TIP3   OH278891   2.802   5.312   2.051 -0.0758  0.2826 -0.0099
19159TIP3    H178892   2.829   5.315   1.959  3.5458 -1.3666  0.7751
19159TIP3    H278893   2.824   5.398   2.085 -0.3143  0.5207 -0.4539
19160TIP3   OH278894   3.029   0.584   1.960 -0.1891 -0.3303  0.9001
19160TIP3    H178895   3.047   0.546   2.046  0.8715  1.0880  1.3364
19160TIP3    H278896   2.997   0.672   1.978 -1.0939 -0.4211 -0.1382
19161TIP3   OH278897   5.974   3.761   5.862 -0.7889  0.8680 -0.1233
19161TIP3    H178898   6.023   3.768   5.944  0.2523  0.9699 -0.7304
19161TIP3    H278899   5.976   3.667   5.841 -0.6462  0.9012 -0.2630
19162TIP3   OH278900   5.857   1.935  17.292 -0.6862  0.2250 -0.3969
19162TIP3    H178901   5.880   1.844  17.313 -0.0315  0.5792  0.5118
19162TIP3    H278902   5.790   1.958  17.357 -0.4236  0.5745 -0.2488
19163TIP3   OH278903   0.066   4.996  15.858  0.7314 -0.2506  1.0518
19163TIP3    H178904   0.144   4.947  15.882  1.1105  0.4924  1.3456
19163TIP3    H278905  -0.006   4.936  15.877  1.2818 -1.5781 -0.7820
19164TIP3   OH278906   4.116   6.319  10.908 -0.1525 -0.0214 -1.1223
19164TIP3    H178907   4.168   6.385  10.953  0.0938  1.1927 -3.0768
19164TIP3    H278908   4.179   6.249  10.888 -0.2658 -0.5802  0.3203
19165TIP3   OH278909   3.913   4.003  13.186  0.6355 -0.5160 -0.2406
19165TIP3    H178910   3.956   3.923  13.156  3.3731  1.2028 -1.2310
19165TIP3    H278911   3.953   4.073  13.135 -3.4635  1.3666 -1.3096
19166TIP3   OH278912   2.967   0.808   1.084 -0.0332 -0.2407 -0.1204
19166TIP3    H178913   2.922   0.868   1.025 -0.0080  0.0002  0.0986
19166TIP3    H278914   2.915   0.727   1.081  0.4127 -0.5028 -1.0678
19167TIP3   OH278915   5.811   6.507   0.523  0.0373  0.3893  0.1631
19167TIP3    H178916   5.906   6.499   0.526  0.0503  0.6390  0.5065
19167TIP3    H278917   5.793   6.592   0.563 -0.3933 -0.0883  1.0140
19168TIP3   OH278918   6.141   2.262  16.058 -0.1584  0.1483 -0.0183
19168TIP3    H178919   6.075   2.249  16.126 -1.0518  0.4970 -0.7937
19168TIP3    H278920   6.197   2.185  16.065 -2.0680 -1.4384 -0.8935
19169TIP3   OH278921   1.297   2.302   2.957  0.0681  0.0275  0.2507
19169TIP3    H178922   1.275   2.279   2.866 -2.4879 -0.3724  0.8974
19169TIP3    H278923   1.388   2.331   2.953 -0.2284  0.8614 -2.5857
19170TIP3   OH278924   6.351   2.928  11.566  0.7155 -0.4322 -0.0175
19170TIP3    H178925   6.440   2.946  11.595  0.6551  0.7491 -0.4834
19170TIP3    H278926   6.319   3.013  11.534 -0.1466 -1.1070 -1.0056
19171TIP3   OH278927   5.599   5.393   4.187  0.3650  0.5784  0.3336
19171TIP3    H178928   5.599   5.371   4.094  1.2265 -0.3509  0.5460
19171TIP3    H278929   5.511   5.427   4.203 -1.0141 -2.4735 -0.0815
19172TIP3   OH278930   3.166   1.528   2.641 -0.2145  0.1681 -0.3190
19172TIP3    H178931   3.144   1.485   2.724  1.8983 -1.7509 -0.6392
19172TIP3    H278932   3.133   1.469   2.574  2.8837 -1.2554 -0.7736
19173TIP3   OH278933   6.018   3.878  15.856  0.6872 -0.2880  0.1651
19173TIP3    H178934   5.987   3.938  15.924 -0.6880 -0.5991 -0.1513
19173TIP3    H278935   6.075   3.816  15.903  0.3420 -0.0669  0.8978
19174TIP3   OH278936   5.478   2.669   2.679  0.9147  0.2071 -0.1170
19174TIP3    H178937   5.500   2.751   2.634  2.0463 -0.8024 -1.4647
19174TIP3    H278938   5.425   2.621   2.616  1.5786 -0.7564  0.0455
19175TIP3   OH278939   0.515   1.119  13.161 -0.0127  0.0330  0.0952
19175TIP3    H178940   0.574   1.076  13.223 -0.0518  0.2932  0.3136
19175TIP3    H278941   0.443   1.057  13.150  0.9145 -0.8881 -1.1886
19176TIP3   OH278942   2.063   3.357  15.023 -0.6248  0.1076  0.4489
19176TIP3    H178943   2.010   3.413  14.967  0.6278  1.0246  0.1318
19176TIP3    H278944   2.153   3.390  15.012  0.1718 -1.9572  0.2315
19177TIP3   OH278945   1.361   4.838  11.509  0.0942  0.3557 -0.9857
19177TIP3    H178946   1.330   4.748  11.519 -0.4094  0.5171 -1.0623
19177TIP3    H278947   1.402   4.841  11.422  0.7633  0.0183 -0.6900
19178TIP3   OH278948   2.978   6.253  15.226 -0.0140  0.3012  0.3481
19178TIP3    H178949   2.884   6.248  15.239  0.0179  0.4910  0.6510
19178TIP3    H278950   3.003   6.165  15.197 -0.5811  0.7680 -1.7535
19179TIP3   OH278951   5.822   6.001  12.850  0.1236 -0.4067  0.4331
19179TIP3    H178952   5.800   5.910  12.828 -1.4177 -0.0294  0.3314
19179TIP3    H278953   5.838   6.042  12.765  0.3588 -0.4722  0.4458
19180TIP3   OH278954   2.753   5.729  12.078  0.4237 -0.2818  0.3524
19180TIP3    H178955   2.680   5.721  12.015 -0.4919  0.3984  1.2850
19180TIP3    H278956   2.727   5.803  12.134  2.2302  0.5195  0.1952
19181TIP3   OH278957   1.463   0.629   3.301 -0.2129 -0.0113 -0.1681
19181TIP3    H178958   1.530   0.571   3.338 -1.7932 -2.5398 -1.0038
19181TIP3    H278959   1.444   0.592   3.216 -0.4317  2.5785 -1.3436
19182TIP3   OH278960   4.580   0.392  12.089  0.1747 -0.2673 -0.3120
19182TIP3    H178961   4.645   0.424  12.026  1.4439 -0.2720  0.9503
19182TIP3    H278962   4.547   0.471  12.132 -0.4948 -0.2837 -0.7855
19183TIP3   OH278963   3.405   1.629   1.093 -0.2179  0.0649 -0.1778
19183TIP3    H178964   3.336   1.622   1.028 -0.5012 -1.6798  0.2684
19183TIP3    H278965   3.361   1.612   1.177  0.0373  2.7115  0.5920
19184TIP3   OH278966   2.712   3.657   3.361 -0.0334  0.0485  0.6036
19184TIP3    H178967   2.716   3.727   3.295  0.4506 -0.6367 -0.1068
19184TIP3    H278968   2.782   3.679   3.423  2.0655 -1.3015 -1.1649
19185TIP3   OH278969   1.015   2.187  11.487 -0.4709 -0.1566  0.3052
19185TIP3    H178970   1.085   2.122  11.486  1.7641  2.0470 -1.3580
19185TIP3    H278971   0.975   2.181  11.401  1.2893  1.9933 -0.7909
19186TIP3   OH278972   6.136   5.883   4.337  0.1762 -0.6649 -0.3318
19186TIP3    H178973   6.063   5.852   4.389  0.3310 -1.0727 -0.3516
19186TIP3    H278974   6.099   5.901   4.251 -0.0001 -0.3795 -0.1944
19187TIP3   OH278975   3.620   3.313  13.822 -0.7446  0.0574 -0.1389
19187TIP3    H178976   3.559   3.286  13.890 -0.2478 -0.0698  0.2652
19187TIP3    H278977   3.671   3.235  13.802 -1.2790 -0.0583 -1.0839
19188TIP3   OH278978   6.203   6.105   4.996 -0.6855 -0.2413  0.1542
19188TIP3    H178979   6.229   6.196   4.984 -0.0676 -0.5070 -0.5788
19188TIP3    H278980   6.277   6.064   5.040 -0.1619 -0.8023 -1.1776
19189TIP3   OH278981   2.443   0.558  11.445  0.1733 -0.4688 -0.6465
19189TIP3    H178982   2.465   0.643  11.482 -0.6998 -0.4016 -0.2534
19189TIP3    H278983   2.401   0.579  11.361 -2.3737 -0.3276  0.5654
19190TIP3   OH278984   4.530   6.529   4.834 -0.3362 -0.5260 -0.2796
19190TIP3    H178985   4.520   6.476   4.755  1.9600  0.2843 -1.2068
19190TIP3    H278986   4.472   6.603   4.821 -0.5908 -0.8215 -0.8277
19191TIP3   OH278987   5.926   5.712   0.793  0.0619 -0.0053 -0.5765
19191TIP3    H178988   5.968   5.788   0.755  2.0363 -0.7404  0.0430
19191TIP3    H278989   5.997   5.649   0.808 -1.1721 -1.1370  0.9134
19192TIP3   OH278990   3.049   1.843   2.363 -0.3148 -0.1036 -0.5596
19192TIP3    H178991   2.977   1.781   2.352  0.0688 -0.5974 -0.3131
19192TIP3    H278992   3.047   1.867   2.455  0.6457 -1.1334 -0.2508
19193TIP3   OH278993   5.022   6.663   1.864  0.6291  0.1356 -0.2961
19193TIP3    H178994   4.999   6.726   1.796 -0.0491 -0.3763 -0.5521
19193TIP3    H278995   4.963   6.589   1.849  1.3176 -0.5035  0.0824
19194TIP3   OH278996   4.133   3.237   2.588 -0.7317  0.3898 -0.2308
19194TIP3    H178997   4.094   3.193   2.512 -0.8012  1.8592 -1.0933
19194TIP3    H278998   4.082   3.317   2.597 -0.3248  0.5172  1.0153
19195TIP3   OH278999   5.067   3.774   2.951  0.6716 -0.0144  0.0697
19195TIP3    H179000   5.011   3.739   2.882  0.6278 -0.8018  0.4957
19195TIP3    H279001   5.015   3.845   2.990 -0.2606 -1.0689  0.8015
19196TIP3   OH279002   0.717   4.804  17.062 -0.3236  0.1521 -0.6230
19196TIP3    H179003   0.748   4.715  17.079 -0.7071 -0.0177 -0.8203
19196TIP3    H279004   0.684   4.802  16.973 -1.9567  0.0398 -0.0496
19197TIP3   OH279005   5.160   1.833   5.439 -0.3922 -0.4058 -0.6255
19197TIP3    H179006   5.239   1.857   5.391 -0.1624 -0.5271 -0.3077
19197TIP3    H279007   5.125   1.917   5.471  0.3599 -0.4738  0.4040
19198TIP3   OH279008   2.929   1.754   3.571 -0.0675 -0.2409  0.0012
19198TIP3    H179009   2.907   1.847   3.576  1.2491  0.1753 -1.2157
19198TIP3    H279010   2.895   1.717   3.652  3.1985  2.1515  2.7748
19199TIP3   OH279011   4.766   3.918  11.194 -0.6158 -0.2196 -0.2301
19199TIP3    H179012   4.719   4.000  11.209  0.1710  0.2645 -0.3726
19199TIP3    H279013   4.858   3.943  11.191 -0.4716 -0.8589 -2.0197
19200TIP3   OH279014   4.275   1.786  12.336 -0.3534  0.1290  0.1137
19200TIP3    H179015   4.357   1.785  12.287  0.5698 -0.7974  1.5765
19200TIP3    H279016   4.212   1.743  12.278 -0.6481  3.3306 -2.2101
19201TIP3   OH279017   5.473   2.864   4.717 -0.1585 -0.2532  0.4571
19201TIP3    H179018   5.508   2.827   4.636  1.1963  0.1942  0.8046
19201TIP3    H279019   5.398   2.809   4.738  0.8013 -1.7726  0.0701
19202TIP3   OH279020   2.691   0.927  11.563 -0.2608 -0.5030  0.0109
19202TIP3    H179021   2.774   0.910  11.519 -0.5258  0.6163 -0.9940
19202TIP3    H279022   2.714   0.979  11.640 -0.0273 -0.1658 -0.2854
19203TIP3   OH279023   2.736   0.098  13.548 -0.6190  0.2743  0.0648
19203TIP3    H179024   2.703   0.055  13.469 -0.2932  1.8092 -0.9468
19203TIP3    H279025   2.755   0.026  13.608  1.1233 -1.1036 -2.0147
19204TIP3   OH279026   0.889   2.431  16.624  0.1383  0.1166  0.2214
19204TIP3    H179027   0.924   2.519  16.610  0.3711 -0.2560 -1.7916
19204TIP3    H279028   0.803   2.432  16.581  0.2703 -0.7215 -0.0781
19205TIP3   OH279029   1.918   6.552   6.115  0.5447 -0.7054  0.5016
19205TIP3    H179030   1.950   6.541   6.025  0.9374 -1.0868  0.6873
19205TIP3    H279031   1.988   6.602   6.159  0.7857 -1.3431  0.8473
19206TIP3   OH279032   5.520   0.216  15.191  0.4731  0.4651  0.3756
19206TIP3    H179033   5.442   0.266  15.171 -0.4388 -0.6834  0.9627
19206TIP3    H279034   5.592   0.278  15.179 -0.4958  1.4744 -0.3862
19207TIP3   OH279035   3.712   1.818   3.437 -0.0077  0.1728  0.1117
19207TIP3    H179036   3.669   1.783   3.515  1.0136  0.0295  0.6275
19207TIP3    H279037   3.646   1.811   3.368 -1.4685  1.6771  1.2593
19208TIP3   OH279038   3.687   0.503  10.668 -0.5529  0.3419 -0.9800
19208TIP3    H179039   3.596   0.476  10.650 -0.2887 -1.8641  0.6210
19208TIP3    H279040   3.740   0.431  10.633  0.4647  0.7142 -0.2329
19209TIP3   OH279041   1.747   1.700  17.265  0.8536  0.5938 -0.1388
19209TIP3    H179042   1.689   1.712  17.189  1.2816  1.5353 -0.3349
19209TIP3    H279043   1.692   1.721  17.340  0.7269  0.7636 -0.2770
19210TIP3   OH279044   4.766   5.651   4.848  0.1984  0.2309  0.2471
19210TIP3    H179045   4.806   5.638   4.934  0.7697 -0.2860 -0.0823
19210TIP3    H279046   4.825   5.713   4.804 -0.1532  0.5813  0.2645
19211TIP3   OH279047   6.748   5.718   0.600  0.8001  0.8442 -0.2060
19211TIP3    H179048   6.736   5.804   0.559 -3.1978  0.9774  0.8415
19211TIP3    H279049   6.691   5.721   0.677  0.4847 -2.7653 -0.1587
19212TIP3   OH279050   1.539   0.342   3.850 -0.0155  0.3531  0.4649
19212TIP3    H179051   1.539   0.287   3.772 -0.6452  0.2898  0.5095
19212TIP3    H279052   1.533   0.431   3.817 -0.3907  0.3204  0.4456
19213TIP3   OH279053   3.065   2.877   1.557  0.6196  0.1779 -0.3931
19213TIP3    H179054   3.099   2.823   1.486 -0.6709 -0.5691 -0.4679
19213TIP3    H279055   3.027   2.815   1.619  2.0445  0.8002  1.1483
19214TIP3   OH279056   0.241   0.332  12.760  0.7339 -0.1333  0.2718
19214TIP3    H179057   0.289   0.334  12.677  1.3011 -1.1302  0.5567
19214TIP3    H279058   0.274   0.407  12.809  1.2428 -0.2052  0.0453
19215TIP3   OH279059   4.166   3.509  11.587 -0.1532  0.5963  0.2231
19215TIP3    H179060   4.249   3.463  11.593 -0.9148 -0.8287  0.2229
19215TIP3    H279061   4.148   3.538  11.677  0.0283  0.3284  0.3465
19216TIP3   OH279062   1.060   4.024   2.609  0.8453 -0.5278  0.1670
19216TIP3    H179063   1.044   4.118   2.610 -0.8443 -0.7545 -0.8649
19216TIP3    H279064   1.144   4.013   2.653  1.4900  1.5256 -0.4522
19217TIP3   OH279065   6.046   1.200   5.870 -0.4532 -0.0242  0.2318
19217TIP3    H179066   6.099   1.190   5.790 -0.0612 -1.0579  0.6016
19217TIP3    H279067   6.111   1.215   5.939 -0.8346  1.6734  0.2559
19218TIP3   OH279068   1.111   5.350   2.493  0.3370  0.1273 -0.3764
19218TIP3    H179069   1.017   5.363   2.477 -0.5373 -0.8192  3.1563
19218TIP3    H279070   1.154   5.420   2.444 -2.1061  0.1397 -2.7157
19219TIP3   OH279071   0.476   6.408   4.768  1.0403  0.1089 -0.5434
19219TIP3    H179072   0.471   6.384   4.860  1.1555  0.2609 -0.4980
19219TIP3    H279073   0.496   6.502   4.768  1.7957 -0.0460 -0.7277
19220TIP3   OH279074   6.619   2.881   1.183 -0.0058 -0.1283 -0.1272
19220TIP3    H179075   6.613   2.796   1.139  0.9040  0.0684 -0.6409
19220TIP3    H279076   6.675   2.865   1.258  0.7172  0.1570 -0.5956
19221TIP3   OH279077   2.870   0.169  14.110 -0.2814 -0.3460  0.4046
19221TIP3    H179078   2.806   0.128  14.051 -1.4425  1.1054  0.5941
19221TIP3    H279079   2.884   0.104  14.179 -1.7055 -0.6198  0.4608
19222TIP3   OH279080   2.577   0.355   5.029 -0.9253  0.0622 -0.2293
19222TIP3    H179081   2.590   0.264   5.002 -1.6629 -0.1419  0.0731
19222TIP3    H279082   2.513   0.350   5.100 -2.2938  0.9309 -1.3338
19223TIP3   OH279083   0.299   2.146  14.662  0.3958  0.4472  0.2337
19223TIP3    H179084   0.351   2.066  14.669  1.6210  1.0132 -1.6127
19223TIP3    H279085   0.276   2.152  14.569 -1.4692  1.1705  0.6930
19224TIP3   OH279086   2.567   6.518  15.249  0.1747  0.6616 -0.3387
19224TIP3    H179087   2.476   6.543  15.234  0.2953  2.1226  1.0644
19224TIP3    H279088   2.606   6.517  15.161 -1.3933 -1.0373 -1.0802
19225TIP3   OH279089   4.628   5.988   3.520 -0.0638  0.6145  0.3219
19225TIP3    H179090   4.632   6.035   3.437  3.3880  0.8962  0.4845
19225TIP3    H279091   4.602   6.055   3.584 -1.8903  0.5928 -0.3503
19226TIP3   OH279092   0.699   3.364  11.418  0.3682 -0.1671 -0.2199
19226TIP3    H179093   0.695   3.357  11.514  1.3608 -1.2389 -0.2423
19226TIP3    H279094   0.770   3.426  11.401  2.2907 -2.2854 -0.2795
19227TIP3   OH279095   0.004   6.028  16.692  0.0055  0.5937  0.3384
19227TIP3    H179096   0.072   5.968  16.662  1.3933  2.0301  0.4787
19227TIP3    H279097  -0.000   6.015  16.787 -0.9192 -0.4764  0.1646
19228TIP3   OH279098   0.319   1.710   1.702 -0.2353  0.4517 -0.0610
19228TIP3    H179099   0.392   1.669   1.655  0.0177 -0.8092  1.3941
19228TIP3    H279100   0.344   1.707   1.794 -2.4196 -0.6411  0.5505
19229TIP3   OH279101   6.137   2.251  11.159 -0.1483  0.0161 -0.5369
19229TIP3    H179102   6.085   2.211  11.229 -0.9833  0.3319 -0.9613
19229TIP3    H279103   6.073   2.272  11.091  0.1828  2.3277 -0.2311
19230TIP3   OH279104   5.118   6.277   4.268  0.0265  0.1385  0.1241
19230TIP3    H179105   5.193   6.317   4.311  0.3174 -0.0750 -0.1853
19230TIP3    H279106   5.047   6.287   4.331  0.1871  0.7926  0.2084
19231TIP3   OH279107   3.737   1.444   4.346 -0.2120 -0.1437  0.3267
19231TIP3    H179108   3.798   1.373   4.324  0.4742  0.0943  1.4017
19231TIP3    H279109   3.665   1.400   4.392 -0.2823 -0.2717  0.0956
19232TIP3   OH279110   6.236   4.244   2.331  0.4113  0.1095  0.5879
19232TIP3    H179111   6.326   4.240   2.362 -0.4335 -0.4642  3.2989
19232TIP3    H279112   6.208   4.334   2.350  0.4792  0.3880 -0.5566
19233TIP3   OH279113   1.003   4.687   4.216  0.1933  0.6502 -0.3845
19233TIP3    H179114   0.920   4.652   4.248 -0.6078  0.7547 -2.2205
19233TIP3    H279115   1.049   4.610   4.180  0.0885  0.8540 -0.9775
19234TIP3   OH279116   5.078   4.307   4.999 -0.0681 -0.6970 -0.5747
19234TIP3    H179117   5.065   4.333   5.090  1.4051 -0.7614 -0.3296
19234TIP3    H279118   5.172   4.311   4.986 -0.2467 -0.8259 -2.0669
19235TIP3   OH279119   2.123   4.659   3.243  0.3385 -0.3988 -0.1172
19235TIP3    H179120   2.097   4.671   3.335 -0.8237 -1.1035 -0.3280
19235TIP3    H279121   2.102   4.743   3.201  0.1837 -0.3225  0.1117
19236TIP3   OH279122   6.121   2.972  17.015  0.3044 -0.5874 -0.0732
19236TIP3    H179123   6.111   3.030  17.091  1.6001 -1.0116  0.4547
19236TIP3    H279124   6.092   3.025  16.941 -1.7768 -0.4382  0.7827
19237TIP3   OH279125   5.850   5.773   2.134  0.7840 -0.5682 -0.0606
19237TIP3    H179126   5.874   5.691   2.175 -0.0699 -0.1275  1.3698
19237TIP3    H279127   5.873   5.761   2.041  1.0908 -2.2243  0.2046
19238TIP3   OH279128   3.363   1.905  14.956  0.2939  0.3115 -0.0501
19238TIP3    H179129   3.271   1.899  14.931 -0.4520  1.1188  2.2358
19238TIP3    H279130   3.396   1.815  14.947 -0.6045  0.0664 -1.1968
19239TIP3   OH279131   2.215   6.249  14.315 -0.3024 -0.0182  0.4037
19239TIP3    H179132   2.148   6.316  14.301 -1.3160 -0.7638  1.5259
19239TIP3    H279133   2.175   6.168  14.283 -0.0657 -0.5241  1.3522
19240TIP3   OH279134   0.819   4.346   0.449 -0.6206  0.4819  0.2422
19240TIP3    H179135   0.823   4.254   0.475 -0.8387 -0.2406 -2.0501
19240TIP3    H279136   0.907   4.380   0.469 -0.3849 -0.3510  0.6673
19241TIP3   OH279137   1.833   5.362   6.199 -0.4905  0.1339 -0.9973
19241TIP3    H179138   1.871   5.446   6.173  0.9551 -0.3380 -0.4771
19241TIP3    H279139   1.902   5.318   6.248 -0.7582 -1.9125 -2.3280
19242TIP3   OH279140   5.577   5.510   4.537 -0.4241  0.1042 -0.5870
19242TIP3    H179141   5.641   5.581   4.539 -1.4369  1.1651 -2.4580
19242TIP3    H279142   5.629   5.431   4.526  0.7132  0.5483  1.2960
19243TIP3   OH279143   0.100   3.951   5.395 -0.7187  0.1341 -0.0487
19243TIP3    H179144   0.050   4.017   5.347  1.2176 -0.1499 -2.7382
19243TIP3    H279145   0.167   4.000   5.442 -0.2940  0.2049 -0.7186
19244TIP3   OH279146   0.966   1.918   1.986  0.0760 -0.3623 -0.2918
19244TIP3    H179147   0.952   1.847   1.924  0.4428 -1.6303  0.9993
19244TIP3    H279148   1.061   1.921   1.998  0.2079  1.3911 -1.4465
19245TIP3   OH279149   4.664   3.858   4.305  0.2854  0.2107  0.0145
19245TIP3    H179150   4.720   3.910   4.362  0.4567  0.8943 -0.7478
19245TIP3    H279151   4.577   3.897   4.315 -0.0028 -0.6575  0.9692
19246TIP3   OH279152   0.106   0.744   2.244  0.3594 -0.0808  0.1929
19246TIP3    H179153   0.043   0.692   2.196  0.6738  0.6224 -1.0079
19246TIP3    H279154   0.087   0.725   2.336 -2.2980  0.9248 -0.0616
19247TIP3   OH279155   4.532   1.153   0.920 -0.4047  0.1432 -0.7735
19247TIP3    H179156   4.510   1.060   0.921 -1.9251  0.4734  0.2790
19247TIP3    H279157   4.560   1.170   0.830  0.4563 -1.4359 -0.8303
19248TIP3   OH279158   1.279   6.462  16.081 -0.1008  0.3494  0.0069
19248TIP3    H179159   1.363   6.442  16.039 -0.2343  1.6440 -0.9165
19248TIP3    H279160   1.235   6.521  16.020 -1.9704 -0.8024  0.1810
19249TIP3   OH279161   6.462   2.804  14.840  0.2994 -0.4080 -0.0463
19249TIP3    H179162   6.386   2.765  14.796  0.0006 -5.3436  3.8999
19249TIP3    H279163   6.526   2.733  14.844  3.1482  2.0361  1.1361
19250TIP3   OH279164   4.073   3.884   0.359  0.0611  0.0491  0.0125
19250TIP3    H179165   4.054   3.891   0.453 -0.8173  0.8477 -0.2055
19250TIP3    H279166   4.161   3.920   0.350 -0.3807  1.2472  0.3530
19251TIP3   OH279167   1.358   4.022   0.963 -0.6109 -0.1180  0.0385
19251TIP3    H179168   1.430   4.068   1.006 -1.3534 -0.3275  1.5726
19251TIP3    H279169   1.392   3.934   0.946  0.6188  0.7308 -2.3799
19252TIP3   OH279170   5.272   2.383   4.441  0.6799  0.2333  0.2644
19252TIP3    H179171   5.310   2.471   4.434 -0.0650  0.5965  0.6826
19252TIP3    H279172   5.288   2.357   4.532  0.6035  0.0733  0.2321
19253TIP3   OH279173   0.486   1.954  13.509  0.4347 -0.6685  0.4296
19253TIP3    H179174   0.453   1.948  13.598  0.9101 -0.6673  0.6106
19253TIP3    H279175   0.518   2.044  13.502 -1.4549 -0.0071 -0.4078
19254TIP3   OH279176   5.136   3.190  15.175 -1.1741  0.1919 -0.1506
19254TIP3    H179177   5.093   3.275  15.171  0.8554  1.4839  2.0424
19254TIP3    H279178   5.228   3.211  15.193 -0.5070 -2.4707 -0.0156
19255TIP3   OH279179   1.180   3.725  13.877  0.0272  0.2953  0.3051
19255TIP3    H179180   1.273   3.708  13.891  0.0487  0.5078  0.4223
19255TIP3    H279181   1.170   3.819  13.889 -0.0073  0.4531 -0.8870
19256TIP3   OH279182   1.880   0.137  11.938 -0.1051 -0.2764  0.8017
19256TIP3    H179183   1.964   0.092  11.933  0.4657  0.7498  0.8849
19256TIP3    H279184   1.825   0.091  11.875  0.8016 -0.3931  0.0663
19257TIP3   OH279185   1.835   0.036  16.888  0.0628  0.3416 -0.5078
19257TIP3    H179186   1.873  -0.030  16.946  2.1969  1.5598 -0.4097
19257TIP3    H279187   1.873   0.018  16.802  1.9776  2.3026 -0.1651
19258TIP3   OH279188   4.000   3.983   2.835  0.4151  0.5405  0.1807
19258TIP3    H179189   3.929   4.036   2.799  0.3750 -0.4818 -1.3402
19258TIP3    H279190   3.984   3.981   2.929 -0.3220  2.1141  0.1111
19259TIP3   OH279191   1.086   5.438  16.456 -0.0588  0.1526 -0.3902
19259TIP3    H179192   1.043   5.521  16.434  1.9537  1.0671 -1.1442
19259TIP3    H279193   1.159   5.464  16.513  1.1762 -0.9683 -1.3999
19260TIP3   OH279194   5.962   5.694  16.562 -0.2420  0.4919 -0.3220
19260TIP3    H179195   6.036   5.675  16.505  0.4880  2.1279  0.0114
19260TIP3    H279196   5.927   5.608  16.586  0.0019 -0.2523 -2.4618
19261TIP3   OH279197   0.039   4.130   0.029  0.3358 -0.0251  0.2352
19261TIP3    H179198   0.117   4.144  -0.024  0.9261  1.3901  1.4166
19261TIP3    H279199   0.031   4.034   0.035  1.0142 -0.1959 -1.2577
19262TIP3   OH279200   1.044   3.358  13.380 -0.2603  0.0495  0.0810
19262TIP3    H179201   1.043   3.270  13.343  0.1312 -0.3544  1.0121
19262TIP3    H279202   0.975   3.405  13.332 -0.4055 -0.7223 -0.4885
19263TIP3   OH279203   6.687   4.083   4.337  0.0945  0.0408 -0.0105
19263TIP3    H179204   6.749   4.040   4.396 -1.1735 -0.5422  0.9367
19263TIP3    H279205   6.675   4.020   4.265  0.5118  0.1097 -0.1401
19264TIP3   OH279206   2.754   6.332   4.993  0.4913 -0.1022 -0.6075
19264TIP3    H179207   2.776   6.327   5.086  1.7955  0.8642 -0.8398
19264TIP3    H279208   2.838   6.342   4.949  0.0028 -1.9534 -2.0343
19265TIP3   OH279209   0.375   6.134   6.148 -0.0841 -0.2068  0.1203
19265TIP3    H179210   0.455   6.087   6.128  0.7555  0.2881  2.1661
19265TIP3    H279211   0.348   6.102   6.233 -0.2342  1.9794  0.9615
19266TIP3   OH279212   3.196   4.468  14.635 -0.0889  0.0839 -0.4855
19266TIP3    H179213   3.186   4.465  14.730 -0.6470  1.1571 -0.4917
19266TIP3    H279214   3.107   4.476  14.602  0.1914  1.7993 -0.9690
19267TIP3   OH279215   4.239   4.427   3.951  0.2104  0.7683  0.3928
19267TIP3    H179216   4.313   4.485   3.969 -0.2548  1.4190  0.2126
19267TIP3    H279217   4.173   4.483   3.910 -0.0614  0.0236 -0.2238
19268TIP3   OH279218   0.210   0.338   4.566 -0.3928 -0.1381  0.2599
19268TIP3    H179219   0.138   0.276   4.579  0.9776 -1.8250  0.2105
19268TIP3    H279220   0.192   0.378   4.481 -1.9333  0.4646  0.8353
19269TIP3   OH279221   2.619   5.130   2.350 -0.8413  0.0181  0.0441
19269TIP3    H179222   2.572   5.175   2.280 -1.4873 -1.1748 -0.3139
19269TIP3    H279223   2.551   5.109   2.414 -0.5160 -0.2465  0.3046
19270TIP3   OH279224   2.210   5.231   5.553  0.4879  0.0702 -0.7065
19270TIP3    H179225   2.282   5.249   5.492  1.2177  0.7092  0.3141
19270TIP3    H279226   2.146   5.182   5.501  1.1609  0.4584 -1.9390
19271TIP3   OH279227   4.570   3.208   2.000 -0.4980 -0.1491 -0.6903
19271TIP3    H179228   4.476   3.198   2.011 -0.4975  1.4467  1.4096
19271TIP3    H279229   4.588   3.298   2.026  1.6740 -0.5597 -0.5558
19272TIP3   OH279230   3.348   4.235  13.558 -0.1270  0.5424 -0.1056
19272TIP3    H179231   3.421   4.182  13.525 -0.4836  0.2563 -0.4555
19272TIP3    H279232   3.298   4.256  13.479 -1.1728 -0.4097  0.2729
19273TIP3   OH279233   5.736   1.769  15.577 -0.1707  0.4359 -0.0124
19273TIP3    H179234   5.756   1.862  15.577  0.2739  0.3490 -0.5690
19273TIP3    H279235   5.753   1.741  15.487 -1.0500 -0.0272 -0.0393
19274TIP3   OH279236   2.968   5.025   3.474 -0.0572 -0.2022 -0.1098
19274TIP3    H179237   2.965   5.120   3.473  1.6925 -0.1150 -0.7397
19274TIP3    H279238   2.973   5.001   3.566 -0.0708  0.3447  0.0332
19275TIP3   OH279239   2.615   3.508  15.685  0.2850  0.0785 -0.7277
19275TIP3    H179240   2.570   3.472  15.609 -0.5500 -1.5134  0.4533
19275TIP3    H279241   2.568   3.589  15.705 -0.7773 -0.5215 -0.7331
19276TIP3   OH279242   1.029   0.389   1.768 -0.7621 -0.1437  0.0806
19276TIP3    H179243   1.122   0.373   1.785 -0.5404 -2.7073 -2.7731
19276TIP3    H279244   0.987   0.379   1.853  1.2320 -2.0576  0.9272
19277TIP3   OH279245   1.850   2.777   0.741 -0.4005  0.2325 -0.1586
19277TIP3    H179246   1.927   2.784   0.797 -0.4303 -1.8740  0.2305
19277TIP3    H279247   1.886   2.753   0.655 -0.5524  0.4320 -0.2780
19278TIP3   OH279248   1.192   6.602  13.110 -0.3125  0.3018  0.6556
19278TIP3    H179249   1.112   6.601  13.057 -0.7518 -0.3817  1.3099
19278TIP3    H279250   1.184   6.679  13.165  1.3282  2.5516 -1.9456
19279TIP3   OH279251   5.995   6.002   0.263  0.0305 -0.0970 -1.1273
19279TIP3    H179252   5.971   5.915   0.233 -1.4961 -0.8958  1.9703
19279TIP3    H279253   6.067   5.989   0.324 -0.2580  0.7738 -0.5659
19280TIP3   OH279254   3.904   4.439  10.675  0.5257  0.6763  0.5220
19280TIP3    H179255   3.938   4.528  10.680 -0.2314  0.9536  0.9817
19280TIP3    H279256   3.963   4.386  10.728  0.6242  1.0185  0.7486
19281TIP3   OH279257   2.473   0.738   5.191 -0.0392 -0.1333  0.1584
19281TIP3    H179258   2.467   0.801   5.119  0.0582 -0.6057 -0.2662
19281TIP3    H279259   2.393   0.686   5.184  0.5037 -0.9174 -0.3106
19282TIP3   OH279260   5.315   2.725  12.758 -0.3716 -0.2664 -0.6773
19282TIP3    H179261   5.234   2.688  12.722 -1.9836  0.5232  1.8805
19282TIP3    H279262   5.315   2.699  12.850  0.7204  2.2993  0.1405
19283TIP3   OH279263   2.991   3.556   0.904  0.0574 -0.4126 -0.0101
19283TIP3    H179264   3.048   3.606   0.962 -0.4569  1.8143 -1.3131
19283TIP3    H279265   3.017   3.465   0.917  0.9276  0.1350  2.6017
19284TIP3   OH279266   2.708   0.254   4.621  0.2377 -0.2872  0.5708
19284TIP3    H179267   2.627   0.298   4.596 -0.1403 -1.1082  0.3091
19284TIP3    H279268   2.760   0.251   4.541  0.1375 -0.5739  0.5152
19285TIP3   OH279269   6.757   5.889   6.418 -0.1601  0.8099 -0.3748
19285TIP3    H179270   6.708   5.826   6.365  1.0467 -0.3346 -0.1859
19285TIP3    H279271   6.721   5.880   6.506  0.3358  0.0051 -0.2465
19286TIP3   OH279272   0.535   6.355  16.652 -0.3213 -0.1885  0.6446
19286TIP3    H179273   0.599   6.341  16.721  0.8569 -0.0135 -0.3798
19286TIP3    H279274   0.560   6.438  16.613 -1.2030 -0.1018  0.2393
19287TIP3   OH279275   1.687   1.744   5.007 -0.3021  0.2579 -0.3628
19287TIP3    H179276   1.768   1.729   4.959 -0.6244 -0.5796 -0.6552
19287TIP3    H279277   1.618   1.736   4.941 -0.6118  1.2441 -0.1727
19288TIP3   OH279278   4.486   4.051  17.143  0.3176  0.2091  0.3148
19288TIP3    H179279   4.405   4.096  17.117 -0.1271  0.3022  1.7627
19288TIP3    H279280   4.457   3.965  17.173  1.0166 -0.5643 -1.1574
19289TIP3   OH279281   4.712   0.769  13.250  0.2762 -0.0551  0.1173
19289TIP3    H179282   4.704   0.788  13.157 -1.1884 -0.0988  0.2016
19289TIP3    H279283   4.704   0.854  13.293  2.7663  0.2104  0.1692
19290TIP3   OH279284   3.015   2.228   3.097 -0.2735 -0.2621  0.1263
19290TIP3    H179285   2.991   2.147   3.053  0.4901 -0.3071 -0.2324
19290TIP3    H279286   2.932   2.266   3.126 -0.8780  0.1271 -1.9643
19291TIP3   OH279287   0.444   2.525  15.618  0.1885 -0.1343  0.1254
19291TIP3    H179288   0.489   2.513  15.701 -0.9427 -0.2137  0.7506
19291TIP3    H279289   0.514   2.537  15.554  1.0650  1.9787  1.3796
19292TIP3   OH279290   6.426   0.736  13.836 -0.0558  0.3664  0.3478
19292TIP3    H179291   6.425   0.656  13.889 -0.5112  0.5056  0.5545
19292TIP3    H279292   6.361   0.793  13.878  0.8099  1.1408  0.6501
19293TIP3   OH279293   4.385   0.730  15.919  0.2105 -0.4418  0.1095
19293TIP3    H179294   4.350   0.815  15.945  0.4313 -0.2771 -0.1274
19293TIP3    H279295   4.375   0.675  15.997  1.9981  0.3845  0.9839
19294TIP3   OH279296   0.529   3.588   5.752  0.0711 -0.3971  0.4744
19294TIP3    H179297   0.513   3.611   5.844  0.3304 -2.1612  1.0113
19294TIP3    H279298   0.580   3.660   5.717 -1.1473  0.9441  1.3315
19295TIP3   OH279299   3.865   3.796  11.208  0.1884 -0.7713 -0.1848
19295TIP3    H179300   3.904   3.850  11.276  0.4705 -1.2359  0.0267
19295TIP3    H279301   3.863   3.852  11.130  0.2093 -0.3668  0.1056
19296TIP3   OH279302   1.190   3.316  10.722 -0.0857  0.0507  0.3337
19296TIP3    H179303   1.122   3.383  10.719 -0.3332 -0.2288 -0.6685
19296TIP3    H279304   1.244   3.340  10.797 -1.9781 -0.4095  1.9056
19297TIP3   OH279305   1.396   1.375   0.073 -0.6394 -0.4667  0.0802
19297TIP3    H179306   1.433   1.364  -0.014 -0.7310 -0.1872  0.0044
19297TIP3    H279307   1.313   1.421   0.059 -0.5525 -0.2274  0.3324
19298TIP3   OH279308   6.168   6.430   1.287 -0.2803 -0.3771  0.5114
19298TIP3    H179309   6.173   6.374   1.209 -0.7629 -0.8522  0.8097
19298TIP3    H279310   6.094   6.395   1.336 -0.1369  0.0801  1.0613
19299TIP3   OH279311   1.645   5.843   4.836  0.0817 -0.0687 -0.2628
19299TIP3    H179312   1.581   5.856   4.765 -1.4496 -0.0696  1.0465
19299TIP3    H279313   1.690   5.928   4.843 -0.2106  0.1377 -0.7987
19300TIP3   OH279314   4.690   2.759  16.335 -0.1514 -0.0159 -0.4286
19300TIP3    H179315   4.634   2.830  16.367 -0.9485 -0.1253 -1.5439
19300TIP3    H279316   4.769   2.766  16.389 -0.7973  0.8040  0.4620
19301TIP3   OH279317   4.477   6.608   0.556 -0.0585 -0.3145 -0.2757
19301TIP3    H179318   4.541   6.591   0.625 -1.6290 -0.2008  1.2749
19301TIP3    H279319   4.456   6.522   0.519  0.2765 -0.4501 -0.1514
19302TIP3   OH279320   4.989   4.758  11.017 -0.5027  0.3153  0.4574
19302TIP3    H179321   4.939   4.740  10.937 -0.9481  0.7309  0.6356
19302TIP3    H279322   4.933   4.725  11.088 -0.1915  0.1115  0.6138
19303TIP3   OH279323   1.502   0.421  11.790 -0.4940 -0.3607  0.5071
19303TIP3    H179324   1.551   0.496  11.757 -0.4510 -0.4196  0.4359
19303TIP3    H279325   1.513   0.354  11.722 -1.2333 -0.1464  0.1713
19304TIP3   OH279326   1.287   5.938   0.019 -0.3537  0.2627  0.0997
19304TIP3    H179327   1.372   5.894   0.020 -0.7933 -0.6123  0.6385
19304TIP3    H279328   1.255   5.931   0.108 -0.5783  1.4462  0.1275
19305TIP3   OH279329   0.132   1.020  17.043  0.0441  0.4257 -0.0740
19305TIP3    H179330   0.092   1.094  17.088 -1.2704 -0.8050  0.8744
19305TIP3    H279331   0.190   1.060  16.978 -0.5484  2.2665  0.4625
19306TIP3   OH279332   5.473   3.022  12.200  0.0663  0.1016 -0.2640
19306TIP3    H179333   5.440   2.983  12.119 -0.1268 -2.8359  1.0965
19306TIP3    H279334   5.395   3.052  12.246 -0.0967 -0.5420 -0.1020
19307TIP3   OH279335   3.965   2.856   5.057  0.4760  0.2461 -0.3061
19307TIP3    H179336   3.921   2.931   5.017 -2.2645  0.2158  2.3002
19307TIP3    H279337   4.058   2.873   5.045 -0.1279  2.3273 -2.7287
19308TIP3   OH279338   3.249   5.810   5.804  0.5516 -0.4944 -0.4203
19308TIP3    H179339   3.193   5.815   5.727  0.4681  0.0934 -0.3215
19308TIP3    H279340   3.294   5.725   5.796  1.3066  0.0030 -1.6354
19309TIP3   OH279341   6.216   6.452   5.548  0.4075 -0.0540  0.1415
19309TIP3    H179342   6.185   6.362   5.540 -0.7825  0.4314 -1.3816
19309TIP3    H279343   6.286   6.448   5.612  1.7921 -2.4308 -1.3648
19310TIP3   OH279344   1.246   3.878  12.756 -0.2967  0.0614 -0.6331
19310TIP3    H179345   1.277   3.967  12.740  1.1719 -0.4612 -0.8458
19310TIP3    H279346   1.324   3.823  12.747 -1.4497 -1.4354 -2.0418
19311TIP3   OH279347   2.990   4.393  13.407 -0.1399  0.7777 -0.5337
19311TIP3    H179348   3.049   4.320  13.387  0.7227  1.7121 -1.5046
19311TIP3    H279349   2.905   4.351  13.425  0.6344 -0.5440  0.2244
19312TIP3   OH279350   2.062   5.698  15.737 -0.0699 -0.0228 -0.2691
19312TIP3    H179351   2.068   5.717  15.643  1.5943  0.0933 -0.1718
19312TIP3    H279352   2.056   5.784  15.778  1.3281  0.0680 -0.1836
19313TIP3   OH279353   1.801   6.291   3.704  0.4715  0.0014  0.0387
19313TIP3    H179354   1.851   6.296   3.786 -0.9327  1.6333  0.8661
19313TIP3    H279355   1.710   6.283   3.731  0.0253 -0.1063 -1.3888
19314TIP3   OH279356   2.397   6.314  17.338  0.0714 -0.2177 -0.4985
19314TIP3    H179357   2.407   6.251  17.409 -0.5938  0.7434  0.4722
19314TIP3    H279358   2.327   6.372  17.367  0.2681  0.6171 -1.6346
19315TIP3   OH279359   6.177   1.604   0.706  0.7434  0.2568  0.1966
19315TIP3    H179360   6.095   1.554   0.701  0.4927  0.6234  0.5771
19315TIP3    H279361   6.204   1.614   0.614  0.0217  0.6842  0.0241
19316TIP3   OH279362   2.690   5.589   0.709  0.0385  0.3229  0.2307
19316TIP3    H179363   2.724   5.553   0.627  0.0105  1.7715 -0.4435
19316TIP3    H279364   2.767   5.599   0.765  0.1080 -0.3383  0.2572
19317TIP3   OH279365   0.115   5.769   0.890 -0.1843 -0.2435 -0.6866
19317TIP3    H179366   0.133   5.860   0.865  1.6652 -0.0399  1.1418
19317TIP3    H279367   0.176   5.751   0.961 -2.2225 -2.1295  0.7404
19318TIP3   OH279368   0.175   3.677   0.937 -0.0876  0.0207 -0.1169
19318TIP3    H179369   0.207   3.734   0.867 -2.1941  1.0158 -0.3531
19318TIP3    H279370   0.143   3.737   1.004 -1.5828 -0.8616  0.0080
19319TIP3   OH279371   1.310   5.536   3.523  0.0063  0.1747  0.5756
19319TIP3    H179372   1.296   5.611   3.465 -0.4463 -0.4941 -0.1948
19319TIP3    H279373   1.404   5.536   3.539 -0.0146  1.0253  0.7509
19320TIP3   OH279374   1.909   2.891  16.263 -0.3705  0.0188 -0.4214
19320TIP3    H179375   1.995   2.930  16.283 -0.0247  0.0380 -1.8571
19320TIP3    H279376   1.850   2.966  16.253 -0.6554 -0.0035  0.8862
19321TIP3   OH279377   4.107   4.629   3.808 -0.2596  0.1772  0.0251
19321TIP3    H179378   4.044   4.643   3.878 -0.1318 -0.9013  0.3703
19321TIP3    H279379   4.175   4.694   3.823 -0.3417  0.0938  0.7670
19322TIP3   OH279380   4.324   2.054  11.774  0.2956 -0.7551  0.3475
19322TIP3    H179381   4.328   1.983  11.710 -0.9854 -0.8576  0.3560
19322TIP3    H279382   4.272   2.122  11.732  0.1256 -0.4933  0.9648
19323TIP3   OH279383   3.996   2.980   2.897  0.4416 -0.3726  0.0580
19323TIP3    H179384   3.964   2.891   2.910  0.4940 -0.2470  1.1370
19323TIP3    H279385   3.921   3.036   2.915  0.2794 -0.1974 -1.0765
19324TIP3   OH279386   6.637   6.290   4.774 -0.3414  0.1154  0.1141
19324TIP3    H179387   6.720   6.252   4.802 -0.4620 -0.0389  0.2653
19324TIP3    H279388   6.630   6.371   4.824 -0.2137  0.2017 -0.0058
19325TIP3   OH279389   4.423   1.627   3.827 -0.0680  0.5212 -0.3539
19325TIP3    H179390   4.457   1.538   3.817 -2.0624 -0.3953  0.4486
19325TIP3    H279391   4.469   1.678   3.761  0.1648 -1.4002 -1.7622
19326TIP3   OH279392   5.736   1.979   0.175  0.0269 -0.5013 -0.3371
19326TIP3    H179393   5.682   1.927   0.234 -1.4557 -0.5456 -1.6683
19326TIP3    H279394   5.826   1.956   0.197 -0.5563 -2.2321  0.3466
19327TIP3   OH279395   5.785   4.804   4.987  0.3701  0.6112 -0.3768
19327TIP3    H179396   5.846   4.819   4.916  0.1063 -1.2030 -1.0420
19327TIP3    H279397   5.837   4.760   5.055 -0.0098 -0.2017 -0.6101
19328TIP3   OH279398   5.371   4.173   4.918  0.4900 -0.1243  0.1262
19328TIP3    H179399   5.461   4.148   4.938 -0.2397 -2.7572  0.5712
19328TIP3    H279400   5.353   4.131   4.834 -0.3627  0.2146  0.1306
19329TIP3   OH279401   0.708   3.781   4.085 -0.5630  0.0399  0.0742
19329TIP3    H179402   0.662   3.702   4.112 -2.1098  1.0425  0.5083
19329TIP3    H279403   0.644   3.829   4.032  0.2803  1.0714 -0.0427
19330TIP3   OH279404   0.634   0.641   0.245 -0.5913  0.1126 -0.3001
19330TIP3    H179405   0.577   0.590   0.189  0.7786 -0.1236 -1.5364
19330TIP3    H279406   0.670   0.709   0.187  1.7633 -0.8480 -0.0714
19331TIP3   OH279407   2.995   4.154   4.032  0.5962  0.3045 -0.1179
19331TIP3    H179408   2.955   4.076   4.070 -1.1500  1.0518 -0.3433
19331TIP3    H279409   2.957   4.227   4.082 -0.6007  1.2080 -2.2434
19332TIP3   OH279410   2.653   6.597  12.308  0.2471 -0.4174  0.3206
19332TIP3    H179411   2.679   6.687  12.285  0.2182 -0.9045 -1.8250
19332TIP3    H279412   2.557   6.600  12.313  0.2449 -0.3426  0.2265
19333TIP3   OH279413   4.465   6.093  16.484 -0.2753  0.4638 -0.2757
19333TIP3    H179414   4.383   6.046  16.472 -0.9838  2.0877 -2.4573
19333TIP3    H279415   4.455   6.139  16.567 -1.1160 -0.2233  0.0118
19334TIP3   OH279416   1.205   5.127   0.392  0.1391 -0.4778  0.7545
19334TIP3    H179417   1.173   5.091   0.309  1.7121 -0.2460 -0.0055
19334TIP3    H279418   1.222   5.051   0.447 -0.6911 -0.6454  0.7870
19335TIP3   OH279419   4.272   3.335   3.908  0.2982  0.1174  0.7439
19335TIP3    H179420   4.329   3.406   3.879 -0.5784  1.1171  1.3991
19335TIP3    H279421   4.317   3.298   3.984  1.3753 -0.8859 -0.3369
19336TIP3   OH279422   2.894   6.648   2.133 -0.4318 -0.1555 -0.4604
19336TIP3    H179423   2.867   6.575   2.187 -1.2452 -0.2785 -1.0209
19336TIP3    H279424   2.821   6.709   2.136  0.7593  1.2776  1.0746
19337TIP3   OH279425   6.148   4.776   3.927 -0.1359 -0.0937 -0.2581
19337TIP3    H179426   6.115   4.688   3.908 -0.2462  0.2113 -1.5844
19337TIP3    H279427   6.233   4.761   3.969  0.2415 -0.8446 -1.2307
19338TIP3   OH279428   0.569   4.749  16.142 -0.0116  0.3408  0.1034
19338TIP3    H179429   0.605   4.742  16.054 -0.5111  0.6464 -0.1289
19338TIP3    H279430   0.476   4.728  16.133  0.0702 -0.2942  0.6731
19339TIP3   OH279431   4.620   4.103   5.508  0.8927 -0.3314 -0.5032
19339TIP3    H179432   4.538   4.086   5.461  0.9090  0.8830 -0.9910
19339TIP3    H279433   4.644   4.192   5.484  1.1462  0.1764  1.4712
19340TIP3   OH279434   6.057   2.968  13.300 -0.3984  0.0973  0.5052
19340TIP3    H179435   6.008   2.958  13.218  0.8630 -1.5455 -0.0920
19340TIP3    H279436   6.042   2.885  13.346  2.4690 -0.8765 -0.1095
19341TIP3   OH279437   3.258   5.524  15.848 -0.3045  0.7320 -0.5432
19341TIP3    H179438   3.175   5.479  15.869 -0.2123 -0.1937 -2.0548
19341TIP3    H279439   3.324   5.473  15.895 -0.3772  0.2365 -0.9700
19342TIP3   OH279440   4.393   0.399  13.592  0.3647  0.3072  0.5835
19342TIP3    H179441   4.380   0.355  13.676 -1.6811 -1.1082 -0.3628
19342TIP3    H279442   4.328   0.469  13.591 -0.1457 -0.1550 -0.0751
19343TIP3   OH279443   2.044   1.745  12.238  0.0487  0.0010  0.0029
19343TIP3    H179444   1.957   1.778  12.216  0.8373  1.1080 -1.5786
19343TIP3    H279445   2.103   1.784  12.173  2.1072  1.1025  2.3755
19344TIP3   OH279446   4.996   2.015  11.371  0.4271  0.4958  0.2653
19344TIP3    H179447   4.944   1.988  11.296  1.7731 -1.2313 -0.1193
19344TIP3    H279448   4.954   1.975  11.447  1.3807 -1.2884 -0.0972
19345TIP3   OH279449   5.548   2.021   2.574 -0.2341 -0.1171 -0.3329
19345TIP3    H179450   5.474   2.074   2.604 -0.2710 -0.2516 -0.1844
19345TIP3    H279451   5.598   2.079   2.517  0.8386  0.7463  1.3865
19346TIP3   OH279452   4.075   5.711  17.004  0.2484 -0.3263 -0.5212
19346TIP3    H179453   4.012   5.778  16.977  0.1040 -1.0631 -2.1958
19346TIP3    H279454   4.160   5.752  16.993  0.1131  0.3420  0.7699
19347TIP3   OH279455   5.406   0.104  14.598 -0.3890  0.9083  0.2131
19347TIP3    H179456   5.431   0.046  14.669  0.6380  0.6901 -0.3088
19347TIP3    H279457   5.480   0.101  14.537 -2.1027 -0.5990 -1.9365
19348TIP3   OH279458   2.396   2.773   1.125  0.6845 -0.0218 -0.1498
19348TIP3    H179459   2.409   2.678   1.121  0.5680 -0.0097 -1.0663
19348TIP3    H279460   2.378   2.799   1.035  2.2733  1.0909 -0.2137
19349TIP3   OH279461   2.656   4.447  15.901  1.3008 -0.0806  0.5915
19349TIP3    H179462   2.679   4.378  15.964  1.3472  0.6019  1.3383
19349TIP3    H279463   2.565   4.468  15.921  1.6240  0.8702  1.1504
19350TIP3   OH279464   0.794   3.225  13.863  0.0061 -0.2012 -0.0925
19350TIP3    H179465   0.721   3.186  13.815 -1.7721  1.6220  0.9344
19350TIP3    H279466   0.837   3.282  13.800 -2.9274  2.9755  0.4736
19351TIP3   OH279467   3.344   1.143   5.919  0.2952  0.0793  0.1322
19351TIP3    H179468   3.431   1.182   5.912 -0.1360  0.8369 -1.4177
19351TIP3    H279469   3.347   1.093   6.000  2.6055 -0.9652 -0.5070
19352TIP3   OH279470   4.848   0.242   2.257  0.1369 -0.1720  0.5921
19352TIP3    H179471   4.795   0.310   2.298 -0.5045 -0.9287  1.0382
19352TIP3    H279472   4.933   0.284   2.243  0.0592  0.4261  1.7601
19353TIP3   OH279473   4.627   5.622   2.424 -0.5391  0.6962  0.0958
19353TIP3    H179474   4.694   5.560   2.450 -1.4078 -1.1728 -1.8877
19353TIP3    H279475   4.671   5.681   2.363 -0.4942 -0.0966 -0.6584
19354TIP3   OH279476   0.930   5.215   1.070  0.3293  0.0972  0.3784
19354TIP3    H179477   0.996   5.164   1.023  0.0462  0.0267  0.0510
19354TIP3    H279478   0.894   5.153   1.133 -1.8276 -0.9616 -1.7161
19355TIP3   OH279479   0.942   4.861   4.021  0.7032 -0.1715  0.7058
19355TIP3    H179480   0.970   4.802   4.090 -0.2917 -0.1409  1.1579
19355TIP3    H279481   0.901   4.934   4.068  2.0757  0.9808  0.1714
19356TIP3   OH279482   4.691   0.529  12.654 -0.3967  0.4397 -0.8627
19356TIP3    H179483   4.646   0.614  12.649 -1.1399  0.1265  0.0806
19356TIP3    H279484   4.625   0.470  12.691  0.7949 -0.0385  0.5853
19357TIP3   OH279485   4.989   5.975  14.223  0.3278  0.1787 -0.4534
19357TIP3    H179486   4.992   6.066  14.195  0.0703 -0.0214 -1.1310
19357TIP3    H279487   4.944   5.929  14.153  0.1437 -0.4165  0.0426
19358TIP3   OH279488   1.272   4.404   6.231  0.6668 -0.5290  0.5155
19358TIP3    H179489   1.241   4.455   6.306 -1.8499 -0.4664 -0.4438
19358TIP3    H279490   1.354   4.445   6.206  0.4989  0.7703  1.9621
19359TIP3   OH279491   1.569   0.845  15.966  0.0734 -0.3931  0.3570
19359TIP3    H179492   1.559   0.855  15.871 -0.5064 -1.3942  0.3051
19359TIP3    H279493   1.643   0.786  15.976  3.2076  3.1843  0.6625
19360TIP3   OH279494   5.808   5.884  14.865  0.6854  0.0012  0.2071
19360TIP3    H179495   5.789   5.941  14.940  1.3809  0.1055  0.3189
19360TIP3    H279496   5.804   5.795  14.900  0.1894  0.0112  0.1745
19361TIP3   OH279497   5.957   4.270  11.139 -0.6528 -0.8682  0.4869
19361TIP3    H179498   5.984   4.303  11.054  0.6802 -0.7980  0.9122
19361TIP3    H279499   5.982   4.177  11.138  0.0772 -0.6891  1.0697
19362TIP3   OH279500   3.354   5.280  13.714 -0.2687 -0.4502  0.0700
19362TIP3    H179501   3.369   5.282  13.809  1.6726  0.8578 -0.1929
19362TIP3    H279502   3.390   5.195  13.687  0.6425 -0.1624  0.3311
19363TIP3   OH279503   3.682   5.771   1.549 -0.2090  0.3068  0.1683
19363TIP3    H179504   3.602   5.805   1.588  0.6482  2.5539  0.1077
19363TIP3    H279505   3.697   5.826   1.472  1.1193 -0.3782 -0.1015
19364TIP3   OH279506   6.231   0.243  15.954 -0.5153  0.2716  0.0984
19364TIP3    H179507   6.173   0.280  16.020  0.1487 -1.3605  1.6660
19364TIP3    H279508   6.312   0.294  15.962 -0.5723  0.3348  0.2748
19365TIP3   OH279509   4.394   4.977  10.515 -0.7034  0.1894 -0.0765
19365TIP3    H179510   4.353   4.894  10.490  1.2063 -1.7371  2.7283
19365TIP3    H279511   4.433   5.010  10.433 -4.4495  0.2953 -2.0456
19366TIP3   OH279512   3.060   0.492  15.032 -0.2560 -0.0104  0.1584
19366TIP3    H179513   3.086   0.584  15.030 -0.9173  0.2477 -3.4418
19366TIP3    H279514   2.964   0.494  15.032 -0.2837 -0.7475  0.7067
19367TIP3   OH279515   0.388   6.357   5.985 -0.4669 -0.1822  0.0170
19367TIP3    H179516   0.474   6.387   6.016  0.7061 -1.1555 -2.0355
19367TIP3    H279517   0.374   6.273   6.028  0.3937 -0.7713 -0.8050
19368TIP3   OH279518   5.651   6.019   0.143  0.4892  0.0033  0.0802
19368TIP3    H179519   5.708   6.095   0.151  1.9324 -0.9034 -1.1433
19368TIP3    H279520   5.648   5.982   0.231 -0.4872  1.5954  0.7676
19369TIP3   OH279521   6.102   2.478  17.039  0.1262  0.1465  0.1306
19369TIP3    H179522   6.134   2.417  16.974  1.2695  0.6872  0.1587
19369TIP3    H279523   6.175   2.487  17.102 -0.1401  1.2624  0.3036
19370TIP3   OH279524   5.523   4.342  14.193  0.0359 -0.0410  0.5877
19370TIP3    H179525   5.455   4.385  14.142  0.0234  0.1849  0.7913
19370TIP3    H279526   5.531   4.255  14.155 -1.5663 -0.6816  1.6482
19371TIP3   OH279527   3.593   6.577   5.679  0.0880  0.1581  0.0314
19371TIP3    H179528   3.633   6.557   5.763 -0.3316  1.5230  0.5925
19371TIP3    H279529   3.563   6.493   5.645 -0.5219 -0.3196  1.6648
19372TIP3   OH279530   1.420   3.496  13.264  0.6176 -0.1348  0.4457
19372TIP3    H179531   1.479   3.510  13.338  0.2330 -0.3060  0.7864
19372TIP3    H279532   1.453   3.554  13.195  1.1077 -0.1400  0.6769
19373TIP3   OH279533   6.175   3.596  11.563  0.1544  0.0642  0.7075
19373TIP3    H179534   6.142   3.633  11.645  0.7754  0.8147  0.6289
19373TIP3    H279535   6.247   3.654  11.538  0.7315 -0.8407  0.2437
19374TIP3   OH279536   3.350   3.097  11.701 -0.2301 -0.2191 -0.7890
19374TIP3    H179537   3.339   3.057  11.615 -0.6850 -1.4553 -0.1787
19374TIP3    H279538   3.445   3.099  11.715 -0.2122 -3.2175  0.0969
19375TIP3   OH279539   0.985   6.100   1.517  0.5075 -0.3313 -0.3524
19375TIP3    H179540   0.952   6.073   1.603 -0.2457  0.1807 -0.4650
19375TIP3    H279541   1.001   6.194   1.527  0.0878 -0.1967 -0.8570
19376TIP3   OH279542   4.029   4.201  15.654  0.5768  0.0554  0.2352
19376TIP3    H179543   4.009   4.107  15.660  0.7395 -0.1628 -1.7545
19376TIP3    H279544   4.075   4.210  15.570  3.6703  1.4323  1.9266
19377TIP3   OH279545   3.260   5.326   3.419 -0.5273 -0.2938 -0.2077
19377TIP3    H179546   3.300   5.244   3.388 -0.8240 -0.6683  0.3765
19377TIP3    H279547   3.301   5.341   3.505 -0.7955 -0.0594 -0.1197
19378TIP3   OH279548   0.500   2.460   0.229 -0.2671  0.4455 -0.1828
19378TIP3    H179549   0.455   2.474   0.146  0.3404  3.1479 -0.1563
19378TIP3    H279550   0.589   2.437   0.205 -0.1988  0.8145 -0.2911
19379TIP3   OH279551   1.506   0.102   2.582 -0.1972 -0.8346 -0.3669
19379TIP3    H179552   1.503   0.021   2.632 -1.5557 -0.9239 -0.5504
19379TIP3    H279553   1.599   0.125   2.578  0.0865 -1.7164  0.7326
19380TIP3   OH279554   4.111   2.103  16.476  0.2717 -0.0415 -0.4000
19380TIP3    H179555   4.118   2.054  16.394  2.2037  0.6719 -0.7191
19380TIP3    H279556   4.103   2.194  16.448  0.5480  0.1683  0.2120
19381TIP3   OH279557   2.632   2.294   2.209  0.6963 -0.3803 -0.3184
19381TIP3    H179558   2.552   2.342   2.232  1.2583  0.7865 -0.7320
19381TIP3    H279559   2.611   2.202   2.228  0.4557  0.2404  2.9978
19382TIP3   OH279560   0.664   5.048  13.355 -0.1941  0.2144 -0.0475
19382TIP3    H179561   0.685   5.023  13.265 -1.9601  0.0743 -0.4584
19382TIP3    H279562   0.749   5.065  13.396  0.6398  0.2409 -1.7186
19383TIP3   OH279563   2.978   1.731  15.026 -0.1491  0.5015 -0.5602
19383TIP3    H179564   2.928   1.655  15.055 -0.5571  0.0388 -2.3418
19383TIP3    H279565   2.931   1.806  15.060  0.2265 -0.0136  1.1804
19384TIP3   OH279566   3.408   6.119   3.020  0.0366 -0.0053 -0.4984
19384TIP3    H179567   3.322   6.122   2.979  0.5609 -1.5323 -1.8203
19384TIP3    H279568   3.469   6.135   2.948  0.8691  2.8853  0.7201
19385TIP3   OH279569   6.659   6.061  11.253  0.7019 -0.0138 -0.3100
19385TIP3    H179570   6.636   6.067  11.346  1.4649  1.7540 -0.2041
19385TIP3    H279571   6.575   6.042  11.210 -0.1435  1.6403  0.5084
19386TIP3   OH279572   2.169   3.482   2.330  0.0010  0.0263  0.5426
19386TIP3    H179573   2.075   3.467   2.340 -0.1470  0.1452 -0.5330
19386TIP3    H279574   2.185   3.476   2.236  0.9709  0.5881  0.6509
19387TIP3   OH279575   5.167   0.311   2.557 -0.3116  0.1008 -0.0390
19387TIP3    H179576   5.186   0.255   2.481 -2.5633 -0.6037 -0.1641
19387TIP3    H279577   5.247   0.308   2.609  0.8655 -0.3894 -1.7754
19388TIP3   OH279578   6.292   1.402   4.836  0.0126  0.1177 -0.1712
19388TIP3    H179579   6.254   1.348   4.766  1.3581  0.7401 -1.4265
19388TIP3    H279580   6.385   1.379   4.836  0.3065  1.2583  0.3562
19389TIP3   OH279581   5.096   5.519  14.430 -0.2748 -0.2505  0.2758
19389TIP3    H179582   5.110   5.611  14.450 -2.0025 -0.2436  1.7475
19389TIP3    H279583   5.162   5.498  14.364  0.9826  1.6928  0.8356
19390TIP3   OH279584   4.172   2.635   3.180  0.4956 -0.1880  0.0595
19390TIP3    H179585   4.133   2.626   3.093  0.0296  1.5686  0.0422
19390TIP3    H279586   4.140   2.559   3.228  0.3039 -0.8935 -1.1362
19391TIP3   OH279587   0.046   4.640   5.720  0.1817  0.7108  0.0815
19391TIP3    H179588  -0.044   4.615   5.743 -0.3375  2.5933  0.2619
19391TIP3    H279589   0.040   4.671   5.630  0.3655  2.0704  0.5173
19392TIP3   OH279590   5.590   2.213  10.759  0.2050 -0.7637  0.0488
19392TIP3    H179591   5.681   2.188  10.746  0.6563  0.3983  0.8233
19392TIP3    H279592   5.586   2.244  10.850 -0.8652 -0.4100 -0.0996
19393TIP3   OH279593   3.161   4.488  14.924 -0.0941  0.3634  0.0172
19393TIP3    H179594   3.149   4.582  14.912  0.0047  0.1965 -1.6485
19393TIP3    H279595   3.188   4.478  15.016  2.1898  2.1875 -0.3643
19394TIP3   OH279596   1.238   3.491   5.062 -0.0294  0.3586  0.2696
19394TIP3    H179597   1.187   3.424   5.015  0.8272 -0.0802 -0.0661
19394TIP3    H279598   1.327   3.456   5.063  0.5344  1.6936 -0.3137
19395TIP3   OH279599   2.762   2.704   4.738 -0.0261 -0.3135  0.5436
19395TIP3    H179600   2.723   2.783   4.775 -0.1798 -0.5578  0.9007
19395TIP3    H279601   2.703   2.680   4.667  0.3402  0.2293  0.0403
19396TIP3   OH279602   5.606   3.113  14.982 -0.1415 -0.8466 -0.1647
19396TIP3    H179603   5.566   3.026  14.980 -0.3124 -0.9226  2.5053
19396TIP3    H279604   5.558   3.160  15.051  0.5053  1.0856 -0.9603
19397TIP3   OH279605   4.026   3.537   4.120 -0.1329 -0.0386 -0.3359
19397TIP3    H179606   4.025   3.532   4.025  0.1607 -2.5960 -0.2819
19397TIP3    H279607   4.079   3.462   4.148 -2.0806 -0.7334  1.8540
19398TIP3   OH279608   4.537   5.059  11.447  0.4205  0.1436 -0.5089
19398TIP3    H179609   4.563   4.979  11.492  1.8781  0.2325 -1.1340
19398TIP3    H279610   4.492   5.030  11.368 -0.4915 -0.0282  0.0649
19399TIP3   OH279611   0.677   3.210   4.655 -0.4034 -0.0657 -0.1662
19399TIP3    H179612   0.712   3.260   4.729 -2.0522  1.0256 -0.0749
19399TIP3    H279613   0.598   3.257   4.629  0.3500 -0.1749 -2.9245
19400TIP3   OH279614   0.005   3.833  11.103 -0.3506 -0.9058 -0.6290
19400TIP3    H179615   0.008   3.740  11.127  0.4307 -0.9350 -0.8078
19400TIP3    H279616   0.096   3.862  11.109 -0.8712  0.5155  2.0393
19401TIP3   OH279617   2.648   4.485   1.916  0.0439  0.9727  0.0636
19401TIP3    H179618   2.721   4.532   1.877  0.0646  0.2679 -0.7594
19401TIP3    H279619   2.653   4.397   1.880 -0.9848  0.8007  0.2916
19402TIP3   OH279620   0.701   0.078  13.963  0.2356  0.0590  0.4853
19402TIP3    H179621   0.668   0.100  13.876 -0.0124  1.8549  1.0143
19402TIP3    H279622   0.788   0.118  13.966  0.1356  0.2268  1.1690
19403TIP3   OH279623   4.397   1.570  15.188 -0.2313 -0.0616  0.2426
19403TIP3    H179624   4.486   1.571  15.225 -0.1853  0.6319  0.1245
19403TIP3    H279625   4.341   1.548  15.263 -0.0744  0.7028  0.5975
19404TIP3   OH279626   1.370   3.610   1.941 -0.1130 -0.0174 -0.1060
19404TIP3    H179627   1.403   3.644   2.024 -0.0318  1.6667 -0.7832
19404TIP3    H279628   1.432   3.541   1.916  0.5157  0.2665  0.6603
19405TIP3   OH279629   3.975   0.818   3.506 -0.0649  0.2677  0.0287
19405TIP3    H179630   3.920   0.797   3.582 -1.3541  0.4378 -0.8196
19405TIP3    H279631   3.928   0.889   3.463  1.5605  1.3799  0.0197
19406TIP3   OH279632   2.729   0.382  13.761  0.0684  0.1146 -0.1623
19406TIP3    H179633   2.697   0.321  13.695  1.5617 -1.7780  0.7515
19406TIP3    H279634   2.680   0.359  13.840  1.0302 -0.3469  0.3270
19407TIP3   OH279635   4.621   1.179   3.459  0.6701  0.0585 -0.7627
19407TIP3    H179636   4.539   1.154   3.500  0.1174  1.1320 -1.1583
19407TIP3    H279637   4.617   1.140   3.371  1.1413 -0.8954 -0.3802
19408TIP3   OH279638   2.298   6.595  15.224  0.1097  0.2706 -0.0926
19408TIP3    H179639   2.263   6.642  15.300  0.7901  0.2145  0.2639
19408TIP3    H279640   2.239   6.617  15.152 -1.5694 -1.0511  0.8228
19409TIP3   OH279641   2.996   3.521   2.463 -0.3829  0.5417  0.2611
19409TIP3    H179642   2.996   3.566   2.548  2.0583  1.0723  0.0633
19409TIP3    H279643   2.981   3.429   2.485  2.7615  0.2239  1.6741
19410TIP3   OH279644   0.448   3.436  12.101  0.5465  0.0029 -0.6249
19410TIP3    H179645   0.473   3.525  12.126  1.2459 -0.2055 -0.5459
19410TIP3    H279646   0.408   3.400  12.180  1.8000 -0.3037 -0.0959
19411TIP3   OH279647   2.613   0.578   5.371 -0.7174 -0.2438 -0.2065
19411TIP3    H179648   2.579   0.517   5.437 -2.0011  1.4048  0.7369
19411TIP3    H279649   2.548   0.579   5.302  0.8874 -2.3907 -1.8963
19412TIP3   OH279650   4.523   2.633  16.816 -0.1896 -0.3869 -0.0468
19412TIP3    H179651   4.547   2.566  16.880  0.3604  1.7540  2.1474
19412TIP3    H279652   4.518   2.714  16.867 -0.7906  1.2804 -2.5636
19413TIP3   OH279653   2.549   3.856  12.059  0.4182  0.0568  0.3631
19413TIP3    H179654   2.540   3.792  11.988 -0.2253 -0.8186  1.2036
19413TIP3    H279655   2.476   3.916  12.047  1.6084  1.2850 -1.0375
19414TIP3   OH279656   4.878   2.159   4.022 -0.6062 -0.5077  0.1320
19414TIP3    H179657   4.938   2.228   4.050 -1.3340 -1.0606  3.5993
19414TIP3    H279658   4.817   2.201   3.963  0.5130  1.1620  0.1121
19415TIP3   OH279659   1.931   0.430  11.712 -0.5157 -0.1182 -0.4684
19415TIP3    H179660   1.938   0.344  11.669  1.2241 -0.1540 -0.1870
19415TIP3    H279661   2.012   0.438  11.762  0.0402  2.3239 -1.6364
19416TIP3   OH279662   5.693   1.946  12.495  0.1776  0.0343 -0.2918
19416TIP3    H179663   5.761   1.895  12.451 -0.0209  0.3789 -1.0265
19416TIP3    H279664   5.636   1.881  12.536  0.2058 -0.3140 -0.7966
19417TIP3   OH279665   0.534   6.487   5.304  0.7114  0.1147  0.1159
19417TIP3    H179666   0.581   6.516   5.383  3.1014 -1.0823 -0.7671
19417TIP3    H279667   0.476   6.560   5.283  0.4820  0.7294  2.5942
19418TIP3   OH279668   3.359   0.702  14.130 -0.3775  0.1956 -0.4016
19418TIP3    H179669   3.339   0.609  14.144  0.2008  0.0296 -0.6473
19418TIP3    H279670   3.300   0.729  14.060 -0.3940 -0.0448 -0.4815
19419TIP3   OH279671   0.139   5.271  11.426  0.0666  0.0936  0.0387
19419TIP3    H179672   0.210   5.306  11.480  1.8661 -3.3820  0.1894
19419TIP3    H279673   0.162   5.295  11.337 -0.3409  1.7389  0.3530
19420TIP3   OH279674   0.256   3.537   4.092 -0.2764 -0.1698  0.1106
19420TIP3    H179675   0.347   3.554   4.118 -0.6476  1.3614  0.4443
19420TIP3    H279676   0.205   3.607   4.132 -1.6357 -1.0357 -0.0357
19421TIP3   OH279677   0.253   3.721  17.272 -0.2319 -0.0602  0.5283
19421TIP3    H179678   0.178   3.685  17.225  0.6232  1.3452 -2.1246
19421TIP3    H279679   0.302   3.769  17.206  1.8667  0.9047  2.6271
19422TIP3   OH279680   5.908   5.011   4.467  0.1666 -0.5335  0.2219
19422TIP3    H179681   6.000   5.003   4.441 -0.0500 -1.5729 -0.2916
19422TIP3    H279682   5.870   5.071   4.403  0.7767  0.9812  1.2484
19423TIP3   OH279683   5.202   1.335   5.725 -0.4230  0.2870 -0.3969
19423TIP3    H179684   5.220   1.428   5.739  0.4699 -0.0147  0.5382
19423TIP3    H279685   5.288   1.295   5.712 -0.9179  0.0506 -4.1732
19424TIP3   OH279686   0.716   6.262   1.554 -0.3683  0.0869 -0.3753
19424TIP3    H179687   0.803   6.292   1.529  0.3554 -0.2985  1.5030
19424TIP3    H279688   0.658   6.297   1.486  1.2335  0.2977 -1.7034
19425TIP3   OH279689   1.922   0.986  13.322  0.0151 -0.4269  0.4793
19425TIP3    H179690   1.910   0.895  13.347 -0.5303 -0.4128  0.2844
19425TIP3    H279691   2.012   0.991  13.292 -0.1861 -1.0850 -0.2700
19426TIP3   OH279692   0.746   2.104   4.647 -0.3300 -0.4029  0.0299
19426TIP3    H179693   0.767   2.189   4.608  2.1506 -0.9286  0.1024
19426TIP3    H279694   0.727   2.047   4.572  0.9654 -0.5176 -0.2288
19427TIP3   OH279695   4.504   0.464   4.306  0.4042  0.1026 -0.8527
19427TIP3    H179696   4.534   0.431   4.221 -0.5600  2.1243 -2.0332
19427TIP3    H279697   4.425   0.514   4.286 -0.5060 -0.3073  1.4150
19428TIP3   OH279698   2.382   1.593  15.465 -0.0157  0.3699 -0.0048
19428TIP3    H179699   2.293   1.559  15.460  0.2443 -0.1651 -1.4843
19428TIP3    H279700   2.392   1.620  15.557 -2.1161  1.6914 -0.0966
19429TIP3   OH279701   5.935   1.696  16.432  0.9874  0.3407  0.0685
19429TIP3    H179702   5.952   1.777  16.480  0.3712  0.6364 -0.1992
19429TIP3    H279703   6.021   1.663  16.407  1.1828  2.4483 -2.3883
19430TIP3   OH279704   2.368   3.095   3.932  0.2933  0.1921 -0.3154
19430TIP3    H179705   2.276   3.117   3.945 -0.1017 -1.1370 -0.6909
19430TIP3    H279706   2.368   3.001   3.917  2.0644 -0.5078  3.1928
19431TIP3   OH279707   2.069   5.026   5.421 -0.3976  0.4494 -0.2848
19431TIP3    H179708   1.974   5.038   5.420 -0.3193  1.1376 -0.0244
19431TIP3    H279709   2.083   4.945   5.373 -1.0641  0.7290 -0.9709
19432TIP3   OH279710   4.901   2.281  13.931 -0.0118 -0.2719 -0.6609
19432TIP3    H179711   4.848   2.282  13.852 -0.5199  2.3634 -0.3476
19432TIP3    H279712   4.855   2.221  13.990 -1.9569  0.9396 -0.8715
19433TIP3   OH279713   3.146   3.994  11.928 -0.0266  0.0310  0.5721
19433TIP3    H179714   3.199   4.029  11.999 -1.2109  2.2281  0.4506
19433TIP3    H279715   3.091   3.927  11.970  0.4152  0.1681  1.3789
19434TIP3   OH279716   4.989   1.238   5.292  0.3365  0.0757  0.6231
19434TIP3    H179717   5.062   1.187   5.326 -0.4310 -0.3970  1.6065
19434TIP3    H279718   4.930   1.173   5.254 -0.4964  0.2516  1.5925
19435TIP3   OH279719   6.286   4.113  12.853  0.3181 -0.2441 -0.5691
19435TIP3    H179720   6.277   4.018  12.866  0.6478 -0.2650 -0.4978
19435TIP3    H279721   6.196   4.143  12.840  0.1922 -0.5395 -0.4047
19436TIP3   OH279722   0.253   0.172   3.295 -0.6184  0.6780  0.2080
19436TIP3    H179723   0.196   0.101   3.267  1.3941 -0.6960 -0.6726
19436TIP3    H279724   0.224   0.248   3.244 -2.1679  0.2533  0.4263
19437TIP3   OH279725   3.672   0.461   4.862  0.7913 -0.4502  0.3070
19437TIP3    H179726   3.683   0.445   4.768  1.9720 -0.3457  0.4132
19437TIP3    H279727   3.647   0.553   4.868  2.4424  0.0460  0.1658
19438TIP3   OH279728   0.763   2.555   6.258  0.2302  1.1778  0.1057
19438TIP3    H179729   0.690   2.598   6.302  0.6999 -0.0901  2.3113
19438TIP3    H279730   0.817   2.521   6.330  1.3164 -0.6365 -1.4724
19439TIP3   OH279731   5.021   6.497   3.688  0.3987  0.0645 -0.3749
19439TIP3    H179732   5.040   6.566   3.751 -0.9108 -0.7302  0.9694
19439TIP3    H279733   4.926   6.487   3.690  0.2903  0.0415 -2.5735
19440TIP3   OH279734   1.630   2.890  14.517 -0.5990 -0.1679  0.1355
19440TIP3    H179735   1.653   2.817  14.459 -0.3384 -0.8704  1.1110
19440TIP3    H279736   1.654   2.968  14.467  1.7018 -0.8033  0.1472
19441TIP3   OH279737   0.377   3.836  12.503 -0.0139 -0.7575 -0.3044
19441TIP3    H179738   0.466   3.862  12.475  0.0459  1.1630  1.4469
19441TIP3    H279739   0.388   3.804  12.593 -1.2117  0.4501  0.3010
19442TIP3   OH279740   5.814   0.454  12.522 -0.5527  0.0374  0.6997
19442TIP3    H179741   5.780   0.500  12.445  0.6287  1.4979  1.0168
19442TIP3    H279742   5.908   0.471  12.520 -0.4577 -0.1846  2.2858
19443TIP3   OH279743   3.606   5.785   0.045  0.0923  0.6889  0.5673
19443TIP3    H179744   3.572   5.867   0.009  0.3317  0.1336 -1.0487
19443TIP3    H279745   3.629   5.805   0.135  1.4873  2.8050 -0.1821
19444TIP3   OH279746   6.644   2.495   6.239  0.0384 -0.5142 -0.0378
19444TIP3    H179747   6.737   2.516   6.238 -0.2423  0.9262 -1.9735
19444TIP3    H279748   6.612   2.534   6.320  1.2900 -2.1877  1.3467
19445TIP3   OH279749   3.448   1.607   4.705  0.0444  0.9274  0.2009
19445TIP3    H179750   3.370   1.551   4.711 -0.4616  1.5878 -0.1009
19445TIP3    H279751   3.461   1.620   4.611 -0.7048  2.4766  0.2859
19446TIP3   OH279752   3.524   3.879   0.225 -0.5321 -0.2460  0.4555
19446TIP3    H179753   3.501   3.944   0.159 -1.1002 -0.9371 -0.0471
19446TIP3    H279754   3.616   3.895   0.243  0.2958 -1.4652 -2.1978
19447TIP3   OH279755   0.459   1.140   4.805 -0.3528 -0.3061 -0.5508
19447TIP3    H179756   0.423   1.120   4.719 -1.1264  0.6730 -0.4825
19447TIP3    H279757   0.436   1.232   4.819  3.1790  0.7843 -0.9700
19448TIP3   OH279758   4.183   1.708   1.179 -0.3207  0.0183  0.4089
19448TIP3    H179759   4.125   1.697   1.254 -0.5746  1.4672  0.4500
19448TIP3    H279760   4.257   1.649   1.197 -1.5080 -1.4891  0.5843
19449TIP3   OH279761   3.356   2.155  12.441 -0.3815  0.3279  0.2401
19449TIP3    H179762   3.402   2.146  12.358 -2.1376 -0.5479 -0.7014
19449TIP3    H279763   3.368   2.070  12.484 -1.7351 -0.2126 -0.3877
19450TIP3   OH279764   1.710   4.008  17.165  0.2483  0.1132  0.0631
19450TIP3    H179765   1.658   3.929  17.153  2.6809 -1.7418  0.8431
19450TIP3    H279766   1.648   4.080  17.153 -2.0224 -1.8726 -0.9557
19451TIP3   OH279767   1.615   3.337  14.924  0.0350  0.2915 -0.1230
19451TIP3    H179768   1.533   3.354  14.878  0.0976 -0.5801 -0.5715
19451TIP3    H279769   1.588   3.323  15.015 -0.4015 -0.6080 -0.3748
19452TIP3   OH279770   3.324   1.373   3.559  0.1882 -0.2124 -0.0985
19452TIP3    H179771   3.413   1.342   3.571  1.1620  2.0483 -1.0198
19452TIP3    H279772   3.333   1.462   3.525 -2.3944  1.2320  2.5166
19453TIP3   OH279773   2.925   5.595   1.378  0.3856  0.5337  0.2095
19453TIP3    H179774   2.875   5.539   1.318  1.4059 -0.7239  0.4993
19453TIP3    H279775   2.976   5.652   1.320 -0.0325  0.6010 -0.0982
19454TIP3   OH279776   1.734   1.150  13.270 -0.6252 -0.0551  0.5200
19454TIP3    H179777   1.803   1.085  13.285  0.9225  1.0362 -1.3893
19454TIP3    H279778   1.692   1.123  13.188 -0.5309  0.8441  0.1598
19455TIP3   OH279779   4.033   4.426   4.841 -0.0750 -0.3334  0.4030
19455TIP3    H179780   3.939   4.421   4.822 -0.5538 -0.0534  2.4568
19455TIP3    H279781   4.062   4.335   4.843 -1.0025 -0.6482  2.6554
19456TIP3   OH279782   3.520   6.600  17.020  0.7270 -0.3384 -0.1614
19456TIP3    H179783   3.506   6.688  17.056  0.2789 -0.4467 -0.0703
19456TIP3    H279784   3.592   6.565  17.072  1.2416  0.1555 -0.5224
19457TIP3   OH279785   2.035   4.453   6.400 -0.1391 -0.1414 -1.0869
19457TIP3    H179786   2.055   4.428   6.491 -0.9716 -0.2190 -0.9143
19457TIP3    H279787   1.956   4.507   6.407 -0.6853 -0.8268 -1.8410
19458TIP3   OH279788   2.332   5.574  12.122  0.4184 -0.2913  0.2317
19458TIP3    H179789   2.287   5.494  12.150 -2.1038  0.6708 -0.8022
19458TIP3    H279790   2.358   5.617  12.204  0.4241 -1.3946  0.8339
19459TIP3   OH279791   6.600   2.646  15.869 -0.7229  0.2667  0.3032
19459TIP3    H179792   6.643   2.567  15.836 -1.4514 -1.5233  3.2773
19459TIP3    H279793   6.604   2.708  15.795  0.4021 -2.2866 -1.9562
19460TIP3   OH279794   0.824   0.926   1.677  0.1746 -0.3566 -0.5248
19460TIP3    H179795   0.909   0.969   1.691  1.2618 -1.8061 -2.2200
19460TIP3    H279796   0.841   0.833   1.693 -1.5897 -0.4811  0.9466
19461TIP3   OH279797   3.415   6.674   0.488 -0.4124 -0.8175  0.7678
19461TIP3    H179798   3.358   6.719   0.550  0.6056  1.3669  0.2230
19461TIP3    H279799   3.504   6.697   0.516  0.0786 -0.3964 -1.0065
19462TIP3   OH279800   5.924   3.794  11.931  0.3294  0.2971 -0.3888
19462TIP3    H179801   5.945   3.787  11.838 -0.5434  0.0226 -0.5705
19462TIP3    H279802   5.972   3.722  11.972 -0.1184 -0.2230 -0.7720
19463TIP3   OH279803   1.762   6.759  15.564 -0.2369 -0.2338  0.5014
19463TIP3    H179804   1.768   6.835  15.505 -0.4825 -0.6985 -0.1381
19463TIP3    H279805   1.838   6.767  15.622 -0.0310  0.2775  0.1703
19464TIP3   OH279806   5.631   0.792  12.225  0.4676  0.1845 -0.0243
19464TIP3    H179807   5.699   0.739  12.267  0.1915  0.4768  0.8134
19464TIP3    H279808   5.606   0.856  12.292  0.2520  0.8821 -0.7608
19465TIP3   OH279809   6.347   3.069   0.659 -0.6592  0.0710 -0.0018
19465TIP3    H179810   6.352   3.158   0.694  0.0916  0.6971 -1.6306
19465TIP3    H279811   6.438   3.041   0.649 -0.8356 -0.1034 -1.3504
19466TIP3   OH279812   4.495   5.236   1.348  0.1964  0.5410  0.4909
19466TIP3    H179813   4.423   5.258   1.407 -1.3622  1.1885 -1.5459
19466TIP3    H279814   4.497   5.141   1.347 -0.2069  0.5212  1.0542
19467TIP3   OH279815   0.661   6.441   3.682 -0.1037  0.2651 -0.2619
19467TIP3    H179816   0.590   6.442   3.617 -0.5033 -0.5132  0.1464
19467TIP3    H279817   0.692   6.351   3.682 -1.6158 -0.3719  2.1940
19468TIP3   OH279818   4.908   2.893  11.352  0.0077  0.3491  0.8151
19468TIP3    H179819   4.924   2.987  11.356 -0.7705  0.4548  2.1112
19468TIP3    H279820   4.929   2.869  11.262  1.6806  1.4726  0.8628
19469TIP3   OH279821   4.509   0.248   6.005  0.0667 -0.1922 -0.4899
19469TIP3    H179822   4.546   0.335   6.019 -0.2047 -0.3037  1.0785
19469TIP3    H279823   4.468   0.253   5.918 -0.6728  1.5017 -0.0788
19470TIP3   OH279824   4.628   2.354   5.615  0.0421  0.4922  0.6177
19470TIP3    H179825   4.571   2.321   5.685  0.8835  0.2662  1.2118
19470TIP3    H279826   4.600   2.306   5.537 -1.8828  1.7712  0.4333
19471TIP3   OH279827   0.271   5.002  13.433  0.2087  0.4131 -0.2355
19471TIP3    H179828   0.220   4.922  13.450 -0.4093  0.3027 -2.3592
19471TIP3    H279829   0.325   4.981  13.358  2.4968  0.9885  1.1635
19472TIP3   OH279830   5.252   3.210  12.948  0.0986 -0.9499 -0.1415
19472TIP3    H179831   5.207   3.224  13.031 -2.3115 -0.0899 -1.5026
19472TIP3    H279832   5.291   3.123  12.956 -2.8903 -2.3372  0.7477
19473TIP3   OH279833   2.197   1.283   2.097  0.4678 -0.4087  0.5671
19473TIP3    H179834   2.109   1.260   2.067  0.3694 -1.4918  1.6155
19473TIP3    H279835   2.244   1.306   2.017 -0.9123  0.7358  0.0527
19474TIP3   OH279836   6.386   6.267  14.897  0.7203  0.0982  0.1661
19474TIP3    H179837   6.360   6.266  14.805  0.0278 -0.6166  0.3599
19474TIP3    H279838   6.413   6.358  14.914 -2.4533  1.1568  0.1550
19475TIP3   OH279839   6.440   6.190   4.443 -0.0875 -0.4258  0.1260
19475TIP3    H179840   6.470   6.280   4.435 -1.0257 -0.2332 -1.5356
19475TIP3    H279841   6.516   6.142   4.476  0.8430  0.7175 -0.3254
19476TIP3   OH279842   5.975   2.041   5.617 -0.1758 -0.1192  0.2799
19476TIP3    H179843   5.965   1.997   5.533 -0.2987  0.1376  0.1603
19476TIP3    H279844   6.029   2.118   5.599  0.2000 -0.3209  0.5248
19477TIP3   OH279845   5.047   3.189   5.614 -0.3379 -0.1802  0.0232
19477TIP3    H179846   4.957   3.156   5.619 -0.1662 -0.7503 -0.4658
19477TIP3    H279847   5.041   3.280   5.643 -0.6392 -0.9450  2.6387
19478TIP3   OH279848   0.485   0.618  12.562  0.1700 -0.2048  0.2272
19478TIP3    H179849   0.454   0.708  12.561  0.3460 -0.1077  1.6121
19478TIP3    H279850   0.415   0.569  12.606  1.5424 -0.1112  2.6888
19479TIP3   OH279851   5.234   5.610  10.847 -0.1129 -0.2000  0.6480
19479TIP3    H179852   5.178   5.582  10.920  1.2828 -1.8155  1.1901
19479TIP3    H279853   5.323   5.601  10.881  0.5600 -0.4004 -1.0509
19480TIP3   OH279854   1.406   5.336   3.237  0.0895 -0.8782 -0.2831
19480TIP3    H179855   1.387   5.273   3.168 -2.1543 -2.8637  1.9438
19480TIP3    H279856   1.437   5.282   3.310 -0.0208  0.8456  1.0931
19481TIP3   OH279857   6.721   4.040  10.508 -0.0085  0.2081 -0.5249
19481TIP3    H179858   6.811   4.027  10.479 -0.0656 -1.9934  0.1298
19481TIP3    H279859   6.709   4.135  10.508  1.4407  0.4810 -3.1581
19482TIP3   OH279860   2.567   3.175  13.836  0.5153  0.0967 -0.2578
19482TIP3    H179861   2.473   3.161  13.846  0.5026  0.1969 -0.2316
19482TIP3    H279862   2.581   3.265  13.866  0.2907  0.8277 -2.1618
19483TIP3   OH279863   1.147   1.474   0.205  0.2555  0.6166  0.2675
19483TIP3    H179864   1.210   1.516   0.264  1.6987  1.4822 -1.7487
19483TIP3    H279865   1.095   1.546   0.170  2.3628  0.9013 -2.7769
19484TIP3   OH279866   5.539   6.379  17.066 -0.0201 -0.0339 -0.2029
19484TIP3    H179867   5.452   6.410  17.091  0.3433  0.5036  0.4243
19484TIP3    H279868   5.555   6.304  17.123  0.9035  1.3313  1.4293
19485TIP3   OH279869   3.767   6.268  12.797  0.4889  0.1306 -0.2027
19485TIP3    H179870   3.768   6.218  12.716  2.7269  2.2459 -1.5923
19485TIP3    H279871   3.857   6.261  12.831  1.1231  3.5689 -0.8041
19486TIP3   OH279872   1.477   5.793   4.592 -0.4026 -0.3851 -0.1256
19486TIP3    H179873   1.392   5.800   4.635  0.5284  1.5384  1.5428
19486TIP3    H279874   1.501   5.701   4.602 -1.5244 -0.5894  0.8896
19487TIP3   OH279875   2.027   1.238  16.246  0.0273  0.1996 -0.1549
19487TIP3    H179876   1.999   1.150  16.272  0.0049 -0.0326 -0.9334
19487TIP3    H279877   1.975   1.258  16.167  0.8216  0.4540 -0.6272
19488TIP3   OH279878   4.839   1.106   4.006  0.4108  0.6214 -0.1916
19488TIP3    H179879   4.817   1.014   3.993 -0.0114  0.5386  0.9972
19488TIP3    H279880   4.934   1.109   4.009  0.4373  0.2926 -0.5946
19489TIP3   OH279881   2.335   0.397   1.288 -0.0816 -0.0589  0.0190
19489TIP3    H179882   2.405   0.455   1.321  0.1286 -0.4860  0.3403
19489TIP3    H279883   2.260   0.454   1.276 -0.1624  0.1187  1.2529
19490TIP3   OH279884   6.576   1.162  16.712  0.1206  0.4460  0.5573
19490TIP3    H179885   6.585   1.080  16.762  1.9627  1.6168  2.2774
19490TIP3    H279886   6.666   1.193  16.700 -0.3912  1.1213 -2.0618
19491TIP3   OH279887   5.340   6.329  16.523  0.3676 -0.3207 -0.3571
19491TIP3    H179888   5.249   6.304  16.504  0.9708 -1.0853 -2.5773
19491TIP3    H279889   5.336   6.423  16.539 -0.6573 -0.0632 -1.8677
19492TIP3   OH279890   3.271   3.678  13.580  0.6635  0.0422  0.6275
19492TIP3    H179891   3.292   3.634  13.662  1.7268 -0.0511  0.3143
19492TIP3    H279892   3.185   3.642  13.555  0.7143 -0.5396  1.2732
19493TIP3   OH279893   0.615   3.976  16.532  0.7634  0.4474 -0.2453
19493TIP3    H179894   0.636   3.900  16.477 -1.1241 -0.8933  0.7874
19493TIP3    H279895   0.562   4.033  16.476 -1.3682 -1.0328  0.1581
19494TIP3   OH279896   1.747   0.754  15.256  0.0538  0.1822 -0.2117
19494TIP3    H179897   1.686   0.683  15.277  0.0014  0.7954  1.9357
19494TIP3    H279898   1.831   0.710  15.243  0.0458 -0.3139  1.1821
19495TIP3   OH279899   0.101   2.367  12.997 -0.3647  0.5228  0.1042
19495TIP3    H179900   0.143   2.322  13.071  0.7458  1.5298  0.1050
19495TIP3    H279901   0.049   2.436  13.038  1.2986  1.9281 -0.0990
19496TIP3   OH279902   1.533   4.890   1.587  0.1173 -0.0499 -0.3224
19496TIP3    H179903   1.560   4.913   1.676  0.5248  0.4652 -0.5722
19496TIP3    H279904   1.478   4.813   1.598  1.6881 -1.1610  0.2113
19497TIP3   OH279905   0.055   3.805   6.370  0.3748  0.4751  0.0263
19497TIP3    H179906   0.073   3.800   6.464  0.4110  0.9283  0.0439
19497TIP3    H279907  -0.027   3.758   6.359 -0.3535  1.6059  0.4909
19498TIP3   OH279908   4.949   4.159   5.820  0.3654  0.5255 -0.3962
19498TIP3    H179909   4.997   4.229   5.865  2.6643 -0.9276 -0.3780
19498TIP3    H279910   5.014   4.089   5.809 -1.6580 -1.4009 -0.9097
19499TIP3   OH279911   2.515   2.567   2.086  0.5007 -0.1633  0.0808
19499TIP3    H179912   2.457   2.514   2.141 -1.5315  1.0213 -0.7997
19499TIP3    H279913   2.515   2.653   2.127  0.8153  0.1274 -0.5132
19500TIP3   OH279914   5.343   2.318  12.045  0.4654 -0.3885  0.1972
19500TIP3    H179915   5.340   2.223  12.042 -1.3550 -0.4836  2.2766
19500TIP3    H279916   5.307   2.346  11.961  0.1655 -1.5480 -0.0749
19501TIP3   OH279917   1.086   0.466  13.152  0.1065 -0.2087 -0.3693
19501TIP3    H179918   1.133   0.509  13.224 -1.4732  0.9942 -0.0053
19501TIP3    H279919   1.109   0.517  13.075 -0.9924  0.7528 -0.0959
19502TIP3   OH279920   4.649   5.872  16.520 -0.8024  0.1011 -0.8053
19502TIP3    H179921   4.647   5.788  16.475  0.1432 -1.0589  1.1666
19502TIP3    H279922   4.573   5.919  16.487 -0.8829 -1.1896 -2.5672
19503TIP3   OH279923   3.389   2.574  11.078 -0.6966 -0.4303 -0.4137
19503TIP3    H179924   3.323   2.622  11.028 -1.0710 -0.8786 -0.3602
19503TIP3    H279925   3.450   2.542  11.011  0.4765  1.4657 -0.3144
19504TIP3   OH279926   2.172   5.503  14.396  0.1735  0.2945  0.0451
19504TIP3    H179927   2.147   5.440  14.328  1.1825 -0.5316  0.4173
19504TIP3    H279928   2.267   5.494  14.402  0.0339 -0.1182  2.0370
19505TIP3   OH279929   4.062   5.035  16.972 -0.0401  0.5072 -0.3666
19505TIP3    H179930   4.157   5.030  16.973  0.1353  2.8075 -1.2614
19505TIP3    H279931   4.037   5.043  17.064  0.6399  0.4178 -0.1733
19506TIP3   OH279932   2.032   6.234  14.895 -0.0013  0.9048  0.1706
19506TIP3    H179933   1.951   6.283  14.896 -0.2123  0.5594  0.3259
19506TIP3    H279934   2.016   6.161  14.835 -0.9479 -1.0328  2.6161
19507TIP3   OH279935   2.380   6.006   0.860 -0.5221 -0.4445 -0.3140
19507TIP3    H179936   2.390   5.934   0.923 -0.4008  0.8640  1.2130
19507TIP3    H279937   2.285   6.019   0.853 -0.5218  1.0799  1.6505
19508TIP3   OH279938   5.162   2.282  12.643 -0.3899  0.3875  0.1189
19508TIP3    H179939   5.090   2.255  12.587 -0.5013  1.0443 -0.0654
19508TIP3    H279940   5.217   2.204  12.651  0.3663  0.6237 -2.0348
19509TIP3   OH279941   4.745   3.500  12.349 -0.3193  0.7543  0.3480
19509TIP3    H179942   4.736   3.418  12.301 -3.0656  0.9803  0.3193
19509TIP3    H279943   4.836   3.526  12.336  0.4449 -1.9080 -0.2102
19510TIP3   OH279944   0.512   2.838  15.141  0.4194 -0.0993 -0.0680
19510TIP3    H179945   0.475   2.919  15.105  0.6183  0.2005  0.3869
19510TIP3    H279946   0.445   2.772  15.123  1.0008 -0.2063 -1.9841
19511TIP3   OH279947   1.668   5.772  14.505 -0.1594 -0.0901  0.5665
19511TIP3    H179948   1.705   5.795  14.589 -0.6198  0.1808  0.7000
19511TIP3    H279949   1.629   5.685  14.519 -0.9624  0.3120  0.8672
19512TIP3   OH279950   3.640   2.525   2.739 -0.4666  0.7605  0.1221
19512TIP3    H179951   3.587   2.454   2.775 -1.8091  1.5231 -0.2682
19512TIP3    H279952   3.724   2.485   2.719  0.6955  0.4129  4.7068
19513TIP3   OH279953   3.077   2.534  15.252 -0.5557  0.1495  0.2604
19513TIP3    H179954   3.128   2.468  15.205  0.7340  0.6232  0.9308
19513TIP3    H279955   2.994   2.538  15.206  0.6891  0.6803 -2.0905
19514TIP3   OH279956   5.655   1.025  12.878 -0.2212 -0.1936  0.0465
19514TIP3    H179957   5.731   0.987  12.922 -0.4952 -1.0015 -0.1729
19514TIP3    H279958   5.603   0.950  12.849 -1.0185  0.3463  0.0439
19515TIP3   OH279959   2.041   0.757  13.435 -0.2643 -0.0484 -0.5538
19515TIP3    H179960   2.105   0.787  13.371  0.0594  0.4680 -0.0004
19515TIP3    H279961   2.053   0.816  13.510  0.1398 -1.3436  0.4227
19516TIP3   OH279962   3.122   6.057   3.249  0.0595 -0.6208  0.1806
19516TIP3    H179963   3.073   6.045   3.331  0.2929 -0.5241  0.3369
19516TIP3    H279964   3.121   6.151   3.234  0.3677 -0.5993  0.2922
19517TIP3   OH279965   4.651   6.237   0.501  0.2707 -0.6395  0.1179
19517TIP3    H179966   4.588   6.166   0.515  1.7874 -2.2678 -0.8943
19517TIP3    H279967   4.612   6.289   0.430 -0.9344 -0.3156  0.9767
19518TIP3   OH279968   1.605   4.304  16.114 -0.1271 -0.1698  0.6251
19518TIP3    H179969   1.551   4.352  16.176 -3.0578  1.4074 -2.7522
19518TIP3    H279970   1.637   4.371  16.054  0.6750 -1.7899 -0.8578
19519TIP3   OH279971   1.224   3.948   0.712 -0.1448  0.0047 -0.6589
19519TIP3    H179972   1.166   3.920   0.783 -1.1547  1.9672 -0.6282
19519TIP3    H279973   1.312   3.925   0.742 -0.6522 -0.2433  0.7201
19520TIP3   OH279974   4.814   1.808   1.903 -0.7426  0.4392 -0.4334
19520TIP3    H179975   4.801   1.855   1.821 -1.2062 -1.3810 -1.4436
19520TIP3    H279976   4.904   1.827   1.928  0.0679 -0.5743 -2.4267
19521TIP3   OH279977   3.763   0.615   2.516 -0.3909  0.7862  0.0814
19521TIP3    H179978   3.684   0.582   2.473  0.8374 -1.6477 -0.5095
19521TIP3    H279979   3.835   0.580   2.463  1.1011  1.8111  1.3561
19522TIP3   OH279980   6.528   6.395   0.407  0.2753 -0.5047  0.1525
19522TIP3    H179981   6.524   6.318   0.463 -1.8641 -0.0700  0.6802
19522TIP3    H279982   6.476   6.373   0.330 -1.3372  0.7230  0.8147
19523TIP3   OH279983   4.208   0.721   3.651  0.1805 -0.1245 -0.1716
19523TIP3    H179984   4.129   0.667   3.644 -0.4458  0.8448 -0.7832
19523TIP3    H279985   4.175   0.808   3.673  1.2810 -0.3902  3.1012
19524TIP3   OH279986   1.816   3.723  12.810  0.0435  0.7104 -0.0886
19524TIP3    H179987   1.868   3.678  12.876 -1.9003 -2.1300 -0.3130
19524TIP3    H279988   1.746   3.766  12.859 -0.8753 -0.6405 -0.1659
19525TIP3   OH279989   6.292   3.512   3.212 -0.0835  0.3071  0.1897
19525TIP3    H179990   6.288   3.585   3.274  0.0257 -0.8815  1.6457
19525TIP3    H279991   6.265   3.550   3.128 -0.3468  1.9343  0.9821
19526TIP3   OH279992   6.086   4.459   1.930 -0.0251  0.4231  0.0081
19526TIP3    H179993   6.061   4.399   1.861  0.6335  0.3016 -0.1269
19526TIP3    H279994   6.140   4.407   1.989 -0.3561  0.5971  0.4716
19527TIP3   OH279995   2.825   0.523  13.045 -0.1360 -0.1210 -0.8716
19527TIP3    H179996   2.807   0.451  13.106 -2.1029  1.3660  0.4091
19527TIP3    H279997   2.913   0.506  13.013  0.3671 -1.7968  1.2081
19528TIP3   OH279998   6.235   3.293  16.666  0.4181  0.1830 -0.1705
19528TIP3    H179999   6.272   3.204  16.663  0.0877 -0.1715  2.9048
19528TIP3    H280000   6.145   3.280  16.695  1.2895  1.5866  3.6830
19529TIP3   OH280001   5.478   5.522  12.995 -0.7857 -0.3691  0.3821
19529TIP3    H180002   5.407   5.485  13.048 -0.2556 -1.1773  0.5533
19529TIP3    H280003   5.493   5.457  12.926 -1.7781  0.8976 -1.0545
19530TIP3   OH280004   5.388   0.252   2.107 -0.1814  0.5876 -0.7172
19530TIP3    H180005   5.412   0.276   2.017 -0.1171  0.1456 -0.8191
19530TIP3    H280006   5.450   0.301   2.161  2.1429 -1.7826 -1.0170
19531TIP3   OH280007   5.989   2.679   4.022 -0.5200 -0.4434  0.3896
19531TIP3    H180008   5.974   2.762   4.067 -1.3787 -0.9309  1.0424
19531TIP3    H280009   5.924   2.619   4.061 -2.3136 -0.5418 -2.4530
19532TIP3   OH280010   2.545   5.205  14.544  0.2971  0.3300  0.4759
19532TIP3    H180011   2.584   5.140  14.486  0.4273 -0.3908  1.3439
19532TIP3    H280012   2.474   5.243  14.493 -0.8984 -1.7042  0.5071
19533TIP3   OH280013   5.332   3.732   5.108  0.0987  0.3920 -0.4161
19533TIP3    H180014   5.372   3.665   5.163 -1.2301 -0.6875 -0.7033
19533TIP3    H280015   5.404   3.765   5.053  1.9153  2.7910  3.0359
19534TIP3   OH280016   6.301   4.453  14.955 -0.0174 -0.0256 -0.1531
19534TIP3    H180017   6.265   4.416  14.875 -1.7284  0.2963  0.4012
19534TIP3    H280018   6.250   4.533  14.969  0.8830  0.4172  0.7585
19535TIP3   OH280019   4.133   3.474   5.330 -0.7825  0.3110 -0.8806
19535TIP3    H180020   4.193   3.473   5.404 -0.2180 -0.6514 -1.3231
19535TIP3    H280021   4.078   3.551   5.344  1.0523  1.6764 -0.8614
19536TIP3   OH280022   0.962   0.600  16.046  0.0619  0.1477 -0.2333
19536TIP3    H180023   0.931   0.555  15.967 -1.4964  0.2940  0.2607
19536TIP3    H280024   0.924   0.550  16.119 -0.1293  1.1435  0.3667
19537TIP3   OH280025   1.993   5.665   4.252  0.3942  0.0115 -0.4292
19537TIP3    H180026   2.031   5.604   4.315 -0.6670 -0.4918 -0.2738
19537TIP3    H280027   1.903   5.636   4.240 -0.3241  1.8431  0.0616
19538TIP3   OH280028   4.459   6.231  11.085  0.0036 -0.0192 -0.3303
19538TIP3    H180029   4.417   6.186  11.012 -1.2213  1.6653 -0.7291
19538TIP3    H280030   4.545   6.257  11.052 -1.1979  2.2951 -1.8852
19539TIP3   OH280031   2.746   2.716  16.363  0.6068 -0.3231  0.4101
19539TIP3    H180032   2.668   2.672  16.399  0.2065 -1.1354 -1.3664
19539TIP3    H280033   2.737   2.807  16.392 -0.9746 -0.4166  0.3137
19540TIP3   OH280034   4.690   3.032  14.344 -0.1273 -0.1382 -0.3575
19540TIP3    H180035   4.606   3.013  14.302 -1.1697 -0.6675  1.8488
19540TIP3    H280036   4.669   3.095  14.412  1.2150 -0.4916  0.4081
19541TIP3   OH280037   6.249   3.625  15.150  0.1212  0.1206  0.0825
19541TIP3    H180038   6.338   3.621  15.186  0.0330 -0.5853  0.2370
19541TIP3    H280039   6.231   3.535  15.122 -1.0186 -0.0263  1.2029
19542TIP3   OH280040   6.595   2.213   6.653 -0.4034  0.0267  0.3952
19542TIP3    H180041   6.605   2.227   6.747 -0.1028 -0.6022  0.4615
19542TIP3    H280042   6.519   2.266   6.629  0.1179  0.9878  0.8063
19543TIP3   OH280043   2.332   6.225   5.476  0.1349  0.0489 -0.4326
19543TIP3    H180044   2.238   6.238   5.488  0.0555 -1.3432  0.7522
19543TIP3    H280045   2.362   6.191   5.560  1.5553 -0.3065 -1.0582
19544TIP3   OH280046   5.621   2.594   2.913  1.2883 -0.3430  0.4052
19544TIP3    H180047   5.586   2.594   3.001 -0.3522  0.5502 -0.2043
19544TIP3    H280048   5.559   2.647   2.862  3.1802  0.7692 -0.8820
19545TIP3   OH280049   0.501   3.787  13.993 -0.4774 -0.2806  0.2579
19545TIP3    H180050   0.426   3.729  14.003 -3.0194  2.6745 -0.2067
19545TIP3    H280051   0.479   3.842  13.918  2.4057  0.4270 -0.1751
19546TIP3   OH280052   6.403   3.657   6.074 -0.3143 -0.0052  0.3425
19546TIP3    H180053   6.380   3.666   5.982 -0.2808  1.0096  0.4273
19546TIP3    H280054   6.408   3.562   6.088  1.4174 -0.1724 -1.1246
19547TIP3   OH280055   2.271   0.845   3.866 -0.0561 -0.4220 -0.1727
19547TIP3    H180056   2.259   0.775   3.931 -2.5144  0.9251  0.9564
19547TIP3    H280057   2.187   0.850   3.820  0.8283  0.3089 -1.7895
19548TIP3   OH280058   1.826   5.751   6.388 -0.0195 -0.8548  0.3194
19548TIP3    H180059   1.833   5.839   6.353 -0.5715 -0.5230  1.0079
19548TIP3    H280060   1.884   5.698   6.334  0.2588 -0.0829 -0.1442
19549TIP3   OH280061   0.773   3.473  12.298 -0.1773 -0.1520  0.5490
19549TIP3    H180062   0.819   3.443  12.377 -0.2279  1.6632  1.3153
19549TIP3    H280063   0.801   3.565  12.288 -0.7108 -0.1487 -1.1546
19550TIP3   OH280064   6.149   1.723  11.684 -0.4775  0.5329 -0.4607
19550TIP3    H180065   6.107   1.800  11.720  0.4825  1.6213 -1.5716
19550TIP3    H280066   6.156   1.741  11.590  0.1610 -0.7191 -0.6783
19551TIP3   OH280067   1.767   4.641   1.214  0.2887 -0.4830 -0.0532
19551TIP3    H180068   1.862   4.637   1.199  0.5122  0.2688  1.0248
19551TIP3    H280069   1.737   4.711   1.156  0.3865 -0.7449 -0.4230
19552TIP3   OH280070   4.808   4.207  14.442  0.1870 -0.1729  0.4660
19552TIP3    H180071   4.887   4.223  14.493  0.5852  3.2263 -0.9414
19552TIP3    H280072   4.831   4.133  14.386  2.7665  1.1812 -0.4557
19553TIP3   OH280073   1.929   2.033  11.161  0.3181  0.2432  0.0957
19553TIP3    H180074   1.917   2.099  11.094  1.8433  0.5631  0.1121
19553TIP3    H280075   1.850   1.979  11.157 -0.4053  1.3453 -0.7126
19554TIP3   OH280076   4.551   2.788   2.820 -0.5076  0.1739 -0.2199
19554TIP3    H180077   4.539   2.704   2.863 -1.9087  0.9293  0.9747
19554TIP3    H280078   4.480   2.792   2.755 -1.5037  1.0647  0.8643
19555TIP3   OH280079   4.079   4.561  17.188 -0.6616  0.0164 -0.1499
19555TIP3    H180080   4.046   4.569  17.098 -1.1614  2.0078  0.1704
19555TIP3    H280081   4.165   4.604  17.186 -0.9133  0.5577  0.4344
19556TIP3   OH280082   4.028   0.601   0.609  0.1186  0.1507 -0.0382
19556TIP3    H180083   4.042   0.521   0.659 -1.4753 -0.7521 -0.9540
19556TIP3    H280084   4.081   0.589   0.529 -1.4564 -0.8354 -0.9926
19557TIP3   OH280085   2.857   0.855   1.823 -0.1492  0.3844 -0.3959
19557TIP3    H180086   2.872   0.795   1.750 -0.7124  1.3414 -1.3197
19557TIP3    H280087   2.913   0.930   1.805 -0.9981  1.0446 -0.3493
19558TIP3   OH280088   5.638   3.304   5.852  0.7007  0.0701 -0.1041
19558TIP3    H180089   5.722   3.308   5.898  1.1565 -0.8047 -0.8423
19558TIP3    H280090   5.652   3.354   5.772  0.4188  0.1792 -0.0864
19559TIP3   OH280091   0.137   5.130   0.747 -0.3602  0.3966  0.2003
19559TIP3    H180092   0.128   5.225   0.739  0.9027  0.4473 -0.8116
19559TIP3    H280093   0.111   5.096   0.661 -1.7680 -0.2833  0.8499
19560TIP3   OH280094   3.189   6.494  12.117  0.2746  0.5143  0.0229
19560TIP3    H180095   3.252   6.566  12.123  0.0663  0.7178 -0.1571
19560TIP3    H280096   3.113   6.534  12.075  0.4325  0.0077 -0.7624
19561TIP3   OH280097   5.904   3.735  13.985  0.0508 -0.4567 -0.3073
19561TIP3    H180098   5.965   3.809  13.975 -0.0142 -0.5210 -1.3237
19561TIP3    H280099   5.817   3.775  13.979  0.0112 -0.5676 -0.4698
19562TIP3   OH280100   2.678   0.115  11.041 -0.3451 -0.8113  0.2781
19562TIP3    H180101   2.750   0.093  10.981  0.1182  1.4466 -0.0611
19562TIP3    H280102   2.632   0.032  11.053 -0.3157 -1.4701 -3.0136
19563TIP3   OH280103   4.084   6.244   1.768  0.0173  0.5557  0.5766
19563TIP3    H180104   4.025   6.284   1.704 -0.4470 -2.2549 -0.8968
19563TIP3    H280105   4.035   6.247   1.850 -0.8755  1.0250  0.0520
19564TIP3   OH280106   1.366   6.604  14.515 -0.4587  0.2976 -0.1763
19564TIP3    H180107   1.311   6.604  14.593 -1.7710  0.7193 -1.0774
19564TIP3    H280108   1.346   6.522  14.471 -0.4718  0.5163 -0.5829
19565TIP3   OH280109   4.588   0.005   0.381 -0.0167 -0.2720 -0.0139
19565TIP3    H180110   4.552  -0.055   0.447 -1.5280  1.1040  0.4818
19565TIP3    H280111   4.524   0.003   0.310  0.7658 -0.4708 -0.7342
19566TIP3   OH280112   4.420   4.483   0.807 -0.2067 -0.2795  0.5212
19566TIP3    H180113   4.357   4.427   0.852  0.5984 -1.0127  0.7309
19566TIP3    H280114   4.377   4.504   0.723  0.0345 -2.3165 -0.1586
19567TIP3   OH280115   2.297   0.176   4.172 -0.2569  0.0520  0.1256
19567TIP3    H180116   2.350   0.097   4.183  0.4669  0.4642 -0.3176
19567TIP3    H280117   2.357   0.240   4.134 -1.5610 -0.0924 -2.4186
19568TIP3   OH280118   3.114   5.434   5.566  0.5510 -0.0362 -0.1390
19568TIP3    H180119   3.149   5.348   5.588  0.9625  0.5663  1.7444
19568TIP3    H280120   3.049   5.452   5.633 -2.8257 -0.6421 -2.9261
19569TIP3   OH280121   2.072   6.603   3.288 -0.2961 -0.0682 -0.0862
19569TIP3    H180122   1.986   6.643   3.301 -1.4729 -1.8075 -1.8372
19569TIP3    H280123   2.053   6.510   3.278  1.3277 -0.1776 -3.6194
19570TIP3   OH280124   0.012   6.286   1.421 -0.5955 -0.5870  0.3236
19570TIP3    H180125  -0.074   6.269   1.460 -1.2967 -1.0305 -1.3118
19570TIP3    H280126   0.023   6.215   1.357  0.9385 -0.4592  0.4061
19571TIP3   OH280127   6.101   6.005  12.973  0.4532 -0.3893  0.2702
19571TIP3    H180128   6.041   6.079  12.960  1.1019 -0.1864 -2.0532
19571TIP3    H280129   6.059   5.932  12.929 -0.2047 -1.5078  2.5940
19572TIP3   OH280130   0.428   3.851   1.407  0.3144  0.3253 -0.2044
19572TIP3    H180131   0.505   3.898   1.376  1.2069  0.5257  2.1554
19572TIP3    H280132   0.377   3.916   1.455  0.1319 -0.4539  0.6881
19573TIP3   OH280133   0.090   6.327  16.700  0.0461  0.3313  0.1742
19573TIP3    H180134   0.078   6.246  16.650 -0.3223  0.0476  0.7032
19573TIP3    H280135   0.179   6.319  16.735  0.9053  1.2580 -1.6798
19574TIP3   OH280136   2.625   5.810   5.439  0.2671  0.1229 -0.2299
19574TIP3    H180137   2.587   5.792   5.353 -1.3757 -0.7851  0.6505
19574TIP3    H280138   2.563   5.869   5.481  0.7362  0.0592  0.5652
19575TIP3   OH280139   2.044   4.445   4.123  0.2840 -1.0789 -0.0141
19575TIP3    H180140   2.123   4.392   4.114  0.8584 -0.3395  0.5436
19575TIP3    H280141   1.972   4.382   4.121  0.8116 -1.6717 -1.5519
19576TIP3   OH280142   2.499   5.827   0.247  0.3333 -0.0258  0.0757
19576TIP3    H180143   2.472   5.917   0.229  1.9345  0.2875 -0.9109
19576TIP3    H280144   2.474   5.779   0.167 -0.1694 -0.3957  0.4468
19577TIP3   OH280145   1.839   2.240  10.990  0.4703 -0.3451  0.1544
19577TIP3    H180146   1.849   2.335  10.985 -3.9518  0.3012 -0.0570
19577TIP3    H280147   1.864   2.209  10.903 -0.9555  1.0573 -0.8058
19578TIP3   OH280148   1.811   1.486  15.843  0.1143  0.4778 -0.6413
19578TIP3    H180149   1.883   1.538  15.809 -0.7589  2.2769  0.1105
19578TIP3    H280150   1.736   1.510  15.788 -0.4176  0.4005  0.0352
19579TIP3   OH280151   5.671   3.301   2.788 -0.1140  0.0950  0.0557
19579TIP3    H180152   5.685   3.390   2.819 -1.8381  0.1473  0.8199
19579TIP3    H280153   5.576   3.289   2.792  0.0588 -1.6824 -0.3048
19580TIP3   OH280154   0.361   1.699   4.567 -0.4984  0.1545  0.1350
19580TIP3    H180155   0.333   1.614   4.534  0.3004  0.0664 -0.3327
19580TIP3    H280156   0.306   1.714   4.644 -0.7941 -0.6808  0.0947
19581TIP3   OH280157   1.899   0.262  11.456 -0.6175 -0.5426  0.3376
19581TIP3    H180158   1.929   0.280  11.367 -2.6794  1.2174 -0.0848
19581TIP3    H280159   1.923   0.171  11.472 -0.8557 -1.1497 -2.3128
19582TIP3   OH280160   4.985   0.256  12.719 -0.8515 -0.2161 -0.7704
19582TIP3    H180161   4.961   0.264  12.812  0.4394 -0.1994 -0.4124
19582TIP3    H280162   4.910   0.290  12.672 -0.9549  1.1792  0.3248
19583TIP3   OH280163   5.800   4.438  17.131 -0.3555 -0.2085  0.3166
19583TIP3    H180164   5.742   4.362  17.144  0.3570 -0.8201 -0.0384
19583TIP3    H280165   5.853   4.415  17.055  0.2304  0.4296  0.5278
19584TIP3   OH280166   3.413   6.506   5.976  0.3064 -0.3043  0.0132
19584TIP3    H180167   3.332   6.474   6.015 -0.2947  0.8498 -0.2668
19584TIP3    H280168   3.458   6.551   6.048  0.7032 -0.9080  0.1585
19585TIP3   OH280169   5.217   4.056  14.185  0.0354  0.3065  0.0203
19585TIP3    H180170   5.172   3.974  14.205 -0.7673  0.7720  0.1519
19585TIP3    H280171   5.160   4.100  14.122 -1.3020  2.3040  2.4532
19586TIP3   OH280172   4.649   5.171   0.043  0.2823 -0.1396  0.5042
19586TIP3    H180173   4.726   5.222   0.018 -1.4885  1.9872 -1.0143
19586TIP3    H280174   4.618   5.134  -0.039 -1.0203  0.0677  0.8911
19587TIP3   OH280175   3.980   0.447  15.563 -0.5025  0.0829 -0.2848
19587TIP3    H180176   3.888   0.429  15.543 -0.5774  0.8064 -0.5977
19587TIP3    H280177   3.993   0.539  15.542 -0.6163  1.0265  3.1641
19588TIP3   OH280178   6.713   2.955   0.900 -0.9418  0.5502  0.2501
19588TIP3    H180179   6.766   2.876   0.896  2.0295  2.4216 -0.2704
19588TIP3    H280180   6.697   2.978   0.808  0.2515  1.7793  0.3284
19589TIP3   OH280181   4.172   2.699  14.094  0.1470  0.3617 -0.1579
19589TIP3    H180182   4.246   2.713  14.153  1.3742 -2.9723 -0.6858
19589TIP3    H280183   4.107   2.653  14.147  0.3469 -0.7015 -0.8189
19590TIP3   OH280184   5.128   5.636   5.173 -0.3607 -0.2737  0.0557
19590TIP3    H180185   5.211   5.622   5.219 -0.4356  1.7288  0.8974
19590TIP3    H280186   5.080   5.698   5.228 -2.5422 -1.5397 -0.2874
19591TIP3   OH280187   3.003   5.429   4.830 -0.3746  0.0601  0.1518
19591TIP3    H180188   3.043   5.496   4.886 -2.4062  1.7135 -0.2744
19591TIP3    H280189   2.939   5.385   4.887 -0.9464  0.3099 -0.2943
19592TIP3   OH280190   0.983   0.845   3.609  0.4197 -0.0342  0.4459
19592TIP3    H180191   0.898   0.806   3.630  0.6873 -2.1628 -2.0114
19592TIP3    H280192   0.969   0.891   3.526  1.2324  1.4179  1.0655
19593TIP3   OH280193   6.443   4.349   0.634  0.2739 -1.3086 -0.0704
19593TIP3    H180194   6.498   4.284   0.678  1.4475 -0.4129 -0.1531
19593TIP3    H280195   6.488   4.368   0.552  0.7584  0.6553  0.5988
19594TIP3   OH280196   4.449   2.081  15.523  0.5732 -0.0579  0.5670
19594TIP3    H180197   4.408   1.997  15.541 -1.7313  0.8275 -0.1682
19594TIP3    H280198   4.523   2.085  15.583  0.6469 -2.5015  0.7338
19595TIP3   OH280199   2.617   4.716   0.102  0.0355 -0.0641  0.1596
19595TIP3    H180200   2.524   4.707   0.080  0.0119 -1.2230  0.6542
19595TIP3    H280201   2.651   4.626   0.097  0.9902  0.2625  0.5880
19596TIP3   OH280202   2.273   4.982  13.285  0.1687 -0.2041 -0.0113
19596TIP3    H180203   2.238   5.044  13.348 -1.1901 -0.8373 -0.1059
19596TIP3    H280204   2.299   4.906  13.338  0.3854 -0.1663 -0.0623
19597TIP3   OH280205   6.655   3.623   5.302  0.4103  0.3585  0.0934
19597TIP3    H180206   6.749   3.605   5.300  0.7285  1.8541 -2.6022
19597TIP3    H280207   6.615   3.541   5.275  0.9138 -0.1765  0.8920
19598TIP3   OH280208   0.753   1.748   2.468 -0.3387  0.5280 -0.7900
19598TIP3    H180209   0.817   1.816   2.448 -0.5758  0.7100 -0.9349
19598TIP3    H280210   0.776   1.676   2.409  0.3836  0.1881 -0.1057
19599TIP3   OH280211   6.692   6.154  11.787 -0.2212 -0.4513 -0.3236
19599TIP3    H180212   6.654   6.239  11.767  1.6292 -0.2517 -3.8029
19599TIP3    H280213   6.751   6.170  11.860 -1.7585  0.6196  0.7427
19600TIP3   OH280214   5.724   4.205  12.067  0.3487 -0.2595 -0.0192
19600TIP3    H180215   5.654   4.141  12.049  1.3492 -1.4522  0.1931
19600TIP3    H280216   5.759   4.227  11.981  0.6019 -0.7142 -0.0367
19601TIP3   OH280217   0.606   5.475  15.669  0.5003  0.0184  0.1586
19601TIP3    H180218   0.633   5.453  15.580 -0.6521  0.1345 -0.2396
19601TIP3    H280219   0.554   5.555  15.659 -0.3548 -0.4332  0.8152
19602TIP3   OH280220   1.162   2.199  13.830 -0.1394  0.4867  0.2807
19602TIP3    H180221   1.212   2.118  13.814  1.2391  1.1805  0.9178
19602TIP3    H280222   1.220   2.253  13.884 -1.4786  1.4650  0.7935
19603TIP3   OH280223   0.701   2.285   0.811  0.0950  0.1289  0.3905
19603TIP3    H180224   0.782   2.334   0.800  1.6395 -2.3282  0.0974
19603TIP3    H280225   0.705   2.251   0.901 -2.5892  3.1516  1.8515
19604TIP3   OH280226   3.192   5.529   4.449 -0.2944 -0.4372 -0.0656
19604TIP3    H180227   3.243   5.598   4.408 -1.2368  0.7417  0.6943
19604TIP3    H280228   3.214   5.534   4.542 -0.0035 -1.4945 -0.0598
19605TIP3   OH280229   3.209   2.601   1.938  0.0551 -0.3455  0.4142
19605TIP3    H180230   3.128   2.610   1.887  0.0222 -0.5075  0.4382
19605TIP3    H280231   3.238   2.512   1.921  1.5253  0.4333 -1.5368
19606TIP3   OH280232   2.005   2.018   1.555  0.7010  0.8032 -0.8718
19606TIP3    H180233   2.015   1.940   1.610 -0.8405  1.7600  0.8739
19606TIP3    H280234   2.095   2.041   1.531  1.4286  0.0718  0.9171
19607TIP3   OH280235   3.694   4.518   2.679 -0.4122 -0.9774 -0.4409
19607TIP3    H180236   3.708   4.565   2.597 -2.2557 -0.3684 -0.4451
19607TIP3    H280237   3.621   4.564   2.721 -0.3574 -2.0762  0.9237
19608TIP3   OH280238   6.671   5.200  11.579  0.1049  0.3599 -0.8288
19608TIP3    H180239   6.684   5.160  11.665 -0.1780  1.3482 -0.3141
19608TIP3    H280240   6.759   5.205  11.542  0.2558  0.1340 -0.5073
19609TIP3   OH280241   3.599   2.108  15.457 -0.3899 -0.1304  0.2711
19609TIP3    H180242   3.514   2.150  15.472 -1.3275 -2.0418  0.6809
19609TIP3    H280243   3.608   2.046  15.529  1.1493 -0.3001 -0.0357
19610TIP3   OH280244   4.729   5.742   3.822  0.0045  0.4143 -0.2175
19610TIP3    H180245   4.759   5.819   3.773  0.8510  0.4182  0.2918
19610TIP3    H280246   4.804   5.718   3.877 -1.0408  0.6202  1.3463
19611TIP3   OH280247   5.690   3.214  16.850 -0.2071  0.3178 -0.1665
19611TIP3    H180248   5.686   3.234  16.944  0.6027  0.7336 -0.2057
19611TIP3    H280249   5.635   3.281  16.809  0.8903  1.2815 -0.1266
19612TIP3   OH280250   0.600   0.352   2.066  0.5293 -0.2832 -0.3638
19612TIP3    H180251   0.592   0.426   2.126 -0.4672  0.4275 -1.3414
19612TIP3    H280252   0.510   0.323   2.052  0.8143 -0.9254 -0.9283
19613TIP3   OH280253   3.645   3.099   4.198  0.4415  0.0886 -0.1020
19613TIP3    H180254   3.553   3.071   4.195  0.1232  1.0932 -0.2583
19613TIP3    H280255   3.690   3.027   4.242 -0.4232 -0.4154 -0.0002
19614TIP3   OH280256   2.590   1.297  13.945 -0.5546  0.0336 -0.1641
19614TIP3    H180257   2.593   1.355  13.869 -1.0306 -1.8218 -1.6749
19614TIP3    H280258   2.516   1.328  13.996  0.1917  1.7456 -0.0295
19615TIP3   OH280259   3.272   1.060   4.584  0.3826  0.2626  0.0939
19615TIP3    H180260   3.219   1.087   4.510 -0.4075  0.0109  0.5535
19615TIP3    H280261   3.345   1.012   4.546  0.0776  0.2872 -0.5271
19616TIP3   OH280262   4.837   1.051   2.712 -0.4308  0.3728  0.3572
19616TIP3    H180263   4.929   1.038   2.687 -0.7801 -1.0281 -0.2632
19616TIP3    H280264   4.792   1.063   2.628 -0.9743  0.0516  0.6044
19617TIP3   OH280265   0.580   2.251   3.084 -0.6509  0.0697  0.5024
19617TIP3    H180266   0.616   2.191   3.149 -0.1041 -0.5492 -0.3355
19617TIP3    H280267   0.621   2.223   3.002  0.3045  2.1415  0.2100
19618TIP3   OH280268   3.441   5.211  17.052 -0.1615  0.3995 -0.2987
19618TIP3    H180269   3.520   5.167  17.023 -0.7387 -0.4626 -0.6046
19618TIP3    H280270   3.387   5.141  17.089 -1.8773  0.4946 -2.4330
19619TIP3   OH280271   0.799   4.243   0.144  0.4429  0.1262 -0.3090
19619TIP3    H180272   0.766   4.160   0.110 -0.3270  0.3055 -0.0051
19619TIP3    H280273   0.776   4.243   0.237  1.6694  0.0764  0.0113
19620TIP3   OH280274   4.679   5.265  16.507  0.1585  0.6040  0.3737
19620TIP3    H180275   4.623   5.237  16.434 -0.1046  1.1819  0.3536
19620TIP3    H280276   4.711   5.351  16.481 -0.1137  0.9097  1.0373
19621TIP3   OH280277   2.107   1.827  13.957 -0.3180 -0.1669  0.0164
19621TIP3    H180278   2.057   1.766  13.903 -0.2265 -0.2188 -0.0106
19621TIP3    H280279   2.066   1.823  14.043  1.5106 -2.5211  0.8697
19622TIP3   OH280280   4.101   4.477   1.761  0.1711  0.4992 -0.2054
19622TIP3    H180281   4.075   4.390   1.791  1.3332  0.4987  0.9085
19622TIP3    H280282   4.147   4.462   1.679 -0.0014  0.1026 -0.2317
19623TIP3   OH280283   6.086   0.491  15.624  0.0043  0.0865  0.0355
19623TIP3    H180284   6.019   0.424  15.614 -1.7045  1.6345  0.4664
19623TIP3    H280285   6.157   0.463  15.567 -0.9103 -1.7367 -0.2728
19624TIP3   OH280286   1.974   0.042   2.321 -0.3230 -0.5303  0.0962
19624TIP3    H180287   2.033   0.087   2.261 -1.2779 -0.6151 -0.9493
19624TIP3    H280288   1.934  -0.027   2.269 -0.5347 -1.1766  1.0773
19625TIP3   OH280289   3.371   2.774  11.275  0.4951  0.2180  0.2683
19625TIP3    H180290   3.421   2.723  11.211  1.2249  1.1437  0.0816
19625TIP3    H280291   3.292   2.800  11.229  1.8492  2.4715 -0.9522
19626TIP3   OH280292   1.811   5.138   3.160  0.2966 -0.9119 -0.1582
19626TIP3    H180293   1.888   5.173   3.115 -0.4694 -1.0893 -1.6963
19626TIP3    H280294   1.832   5.143   3.253  1.4210  0.7997 -0.4634
19627TIP3   OH280295   0.660   0.366   1.765  1.0446  0.4440  0.1994
19627TIP3    H180296   0.667   0.351   1.859  2.4108  1.3175  0.2639
19627TIP3    H280297   0.621   0.452   1.758 -0.7477 -0.3580 -0.0827
19628TIP3   OH280298   1.810   2.186  13.659 -0.0008 -0.5836  0.3928
19628TIP3    H180299   1.761   2.104  13.651 -0.7038 -0.1798  0.4367
19628TIP3    H280300   1.803   2.226  13.573  2.4880 -1.7128 -0.4224
19629TIP3   OH280301   6.056   1.094   2.134 -0.7326  0.0673  0.0918
19629TIP3    H180302   6.031   1.180   2.099  0.1960  0.6819  0.9017
19629TIP3    H280303   6.140   1.109   2.177  0.0916 -1.5369 -0.8690
19630TIP3   OH280304   1.547   5.543   3.906 -0.1543  0.1112  0.4722
19630TIP3    H180305   1.593   5.459   3.913  0.4871  0.3976 -0.2323
19630TIP3    H280306   1.467   5.530   3.958 -0.7375 -1.3927 -0.7069
19631TIP3   OH280307   3.358   6.086   5.594  0.3445 -0.4350 -0.9164
19631TIP3    H180308   3.419   6.031   5.545  0.8852 -0.0846 -0.6494
19631TIP3    H280309   3.357   6.169   5.545 -0.7127 -0.7837 -1.4992
19632TIP3   OH280310   0.701   2.241   6.019  0.1206  0.2923 -0.6161
19632TIP3    H180311   0.747   2.318   5.986  0.0838  0.3742 -0.4816
19632TIP3    H280312   0.627   2.278   6.068 -1.8511  0.1457 -3.2896
19633TIP3   OH280313   4.635   0.424  16.763 -0.3443 -0.0128 -0.0291
19633TIP3    H180314   4.613   0.339  16.725  1.0664 -0.5684  0.3083
19633TIP3    H280315   4.694   0.464  16.699 -0.2042  0.2761  0.2786
19634TIP3   OH280316   0.647   4.868  12.389  0.3953  0.0780  0.2574
19634TIP3    H180317   0.690   4.796  12.342 -0.1738  0.3166 -0.6527
19634TIP3    H280318   0.663   4.944  12.334 -0.5974  0.2979  0.2574
19635TIP3   OH280319   6.751   5.039   1.225  0.0904  0.2849 -0.0640
19635TIP3    H180320   6.761   5.120   1.276  0.7393 -0.0768  0.3983
19635TIP3    H280321   6.794   4.972   1.278  1.7382  0.0743 -1.5673
19636TIP3   OH280322   0.292   1.364   3.064  0.7401  0.2047  0.1514
19636TIP3    H180323   0.294   1.323   2.978  1.1190  1.3346 -0.3992
19636TIP3    H280324   0.308   1.457   3.047  0.2586  0.5379  1.3861
19637TIP3   OH280325   5.826   3.530  13.671  0.3772  0.6719 -0.1309
19637TIP3    H180326   5.868   3.598  13.724 -1.0706  0.8040  0.9409
19637TIP3    H280327   5.863   3.541  13.584  1.4957  1.6644  0.4324
19638TIP3   OH280328   0.789   2.806   5.055 -0.2534 -0.1937  0.1644
19638TIP3    H180329   0.757   2.722   5.022  1.6228 -0.3829 -1.3127
19638TIP3    H280330   0.766   2.870   4.987 -0.9866  0.3857  0.9267
19639TIP3   OH280331   3.550   6.473  15.698  0.1112 -0.0687 -0.6948
19639TIP3    H180332   3.599   6.399  15.661 -0.7916 -0.6491 -0.7932
19639TIP3    H280333   3.574   6.548  15.644  2.2023  0.0618  0.3440
19640TIP3   OH280334   4.918   3.077  14.189  0.2675  0.1804 -0.1500
19640TIP3    H180335   4.896   3.052  14.100 -0.8184  0.5828 -0.0136
19640TIP3    H280336   4.833   3.090  14.232  0.7641  2.4401  0.2445
19641TIP3   OH280337   1.899   3.244  13.368  0.3618 -0.3024 -0.0581
19641TIP3    H180338   1.844   3.212  13.297  0.2986  1.2476 -0.7413
19641TIP3    H280339   1.861   3.328  13.392  1.7377  0.2563  0.2493
19642TIP3   OH280340   5.771   4.561   0.394 -0.1721 -0.3049 -0.3973
19642TIP3    H180341   5.861   4.555   0.363 -0.3106 -3.0461 -0.5317
19642TIP3    H280342   5.731   4.478   0.368 -2.0668 -0.1619  1.7325
19643TIP3   OH280343   2.026   6.684   4.302 -1.0878 -0.8577 -0.0129
19643TIP3    H180344   2.012   6.659   4.211 -0.4761  2.4817 -1.1401
19643TIP3    H280345   1.961   6.752   4.318  0.9844  1.0253  0.8954
19644TIP3   OH280346   1.935   1.083   1.282 -0.7272 -0.0297  0.4632
19644TIP3    H180347   1.979   1.088   1.197 -1.2004 -0.9815  0.1521
19644TIP3    H280348   1.919   1.175   1.306 -1.1463  0.2280 -0.7610
19645TIP3   OH280349   4.043   5.726  12.471  0.0647  0.7965 -0.0621
19645TIP3    H180350   4.138   5.733  12.459 -0.1657  0.2013 -3.0492
19645TIP3    H280351   4.033   5.690  12.559  2.5895  1.1720  0.4691
19646TIP3   OH280352   1.328   0.835   3.435 -0.3325 -0.4064  0.1244
19646TIP3    H180353   1.364   0.776   3.369  0.1817 -1.0942  1.0153
19646TIP3    H280354   1.395   0.903   3.446 -0.5348 -0.1422 -0.2452
19647TIP3   OH280355   1.943   0.936  15.792  0.2376  0.4795  0.1388
19647TIP3    H180356   2.008   0.967  15.729 -0.3280 -0.3269 -0.8648
19647TIP3    H280357   1.889   1.013  15.810  0.4698  0.7462 -0.2776
19648TIP3   OH280358   3.192   4.429   3.799  0.2172  0.2523 -0.2236
19648TIP3    H180359   3.136   4.481   3.742  1.6559  0.8892 -1.1269
19648TIP3    H280360   3.163   4.338   3.785  1.0199  0.2904 -2.6303
19649TIP3   OH280361   0.101   3.979   4.506  0.2452  0.0118  0.1203
19649TIP3    H180362   0.127   4.053   4.561  0.5991  0.0811 -0.1364
19649TIP3    H280363   0.119   3.902   4.560  1.6276  0.0185 -0.2830
19650TIP3   OH280364   5.508   3.130   4.758 -0.0762  0.1183 -0.1798
19650TIP3    H180365   5.487   3.043   4.724 -1.4028  0.1871  0.3879
19650TIP3    H280366   5.424   3.176   4.758  0.2770  0.8133  1.2062
19651TIP3   OH280367   1.729   3.717  15.039 -1.0149 -0.1046  0.0473
19651TIP3    H180368   1.755   3.730  14.948  1.3508 -1.0500  0.5114
19651TIP3    H280369   1.649   3.665  15.033 -0.5670 -0.6858 -1.4916
19652TIP3   OH280370   6.747   5.921   5.949 -0.0322 -0.2635  0.2368
19652TIP3    H180371   6.653   5.920   5.971 -0.4407 -2.7399 -1.2491
19652TIP3    H280372   6.753   5.872   5.868  2.6614 -0.6527  0.5873
19653TIP3   OH280373   2.140   5.832   3.029  0.5462 -0.0530  0.0623
19653TIP3    H180374   2.052   5.856   2.999  1.2222  1.8765 -0.5788
19653TIP3    H280375   2.183   5.796   2.952  1.0414  1.2613 -0.3124
19654TIP3   OH280376   5.859   2.816  13.743  0.4325 -0.4688  0.0395
19654TIP3    H180377   5.899   2.774  13.667 -1.7476 -2.5194 -0.1206
19654TIP3    H280378   5.766   2.818  13.722  0.1181  1.9251  1.3465
19655TIP3   OH280379   1.959   0.650  12.851  0.7512 -0.3634  0.5593
19655TIP3    H180380   2.019   0.722  12.832  1.1209 -0.3804  1.5661
19655TIP3    H280381   1.872   0.686  12.837  0.9780 -0.5884 -1.7858
19656TIP3   OH280382   6.181   0.256  13.231 -0.2302 -0.5759 -0.0808
19656TIP3    H180383   6.150   0.321  13.294  2.0387  0.7528 -0.2124
19656TIP3    H280384   6.168   0.172  13.275 -0.6229  0.1693  1.2950
19657TIP3   OH280385   2.951   0.115  16.158  0.3660 -0.4223  0.2233
19657TIP3    H180386   2.915   0.186  16.212 -0.7627  0.3207 -1.4063
19657TIP3    H280387   2.914   0.035  16.196 -1.7134  0.2042 -0.3446
19658TIP3   OH280388   0.263   0.787   2.806  0.0077 -0.5577  0.1972
19658TIP3    H180389   0.318   0.818   2.878  0.1314  1.4074 -0.6932
19658TIP3    H280390   0.299   0.701   2.784  1.5825 -0.0950  0.8244
19659TIP3   OH280391   0.879   2.120   3.662  0.1374  0.0369 -0.4668
19659TIP3    H180392   0.822   2.120   3.739  0.0029 -1.1943 -0.5413
19659TIP3    H280393   0.842   2.188   3.605 -0.3387  0.2985  0.1444
19660TIP3   OH280394   0.228   6.205  15.909 -0.2007 -0.5686  0.1694
19660TIP3    H180395   0.259   6.134  15.965 -1.0803 -1.7232 -0.7451
19660TIP3    H280396   0.182   6.161  15.838 -1.2842  0.9444 -0.1231
19661TIP3   OH280397   0.016   1.775   3.810 -0.2634 -0.1428  0.0023
19661TIP3    H180398   0.058   1.821   3.882  0.9987 -1.5102  0.1834
19661TIP3    H280399   0.089   1.744   3.756 -1.1618  0.8196 -1.8878
19662TIP3   OH280400   6.424   6.671   1.561 -0.1564 -0.1425 -1.0442
19662TIP3    H180401   6.496   6.700   1.618  1.7745  1.4402 -3.9941
19662TIP3    H280402   6.372   6.750   1.547 -0.6538 -0.5331 -1.4317
19663TIP3   OH280403   3.169   0.810   2.760  0.4625 -0.1845 -0.1290
19663TIP3    H180404   3.234   0.797   2.691 -0.0098 -0.4564 -0.5323
19663TIP3    H280405   3.198   0.889   2.806  1.8237 -1.0617  0.5734
19664TIP3   OH280406   1.517   3.842  16.465  0.1146 -0.5309  0.4148
19664TIP3    H180407   1.487   3.779  16.531  0.9457 -0.2738  1.0691
19664TIP3    H280408   1.562   3.909  16.516  0.0189  0.1279 -0.3561
19665TIP3   OH280409   2.993   0.883   2.284 -0.1456  0.2972  0.0473
19665TIP3    H180410   2.938   0.820   2.236 -2.7777  1.0509  1.8414
19665TIP3    H280411   3.062   0.829   2.322 -1.9290 -1.5008  0.9881
19666TIP3   OH280412   0.794   3.076  11.796  0.3215 -0.1754 -0.0095
19666TIP3    H180413   0.834   3.087  11.882  0.5142  1.8189 -0.3048
19666TIP3    H280414   0.700   3.072  11.814  0.2901  1.2721  0.2483
19667TIP3   OH280415   2.720   6.056  13.638 -0.1272 -0.5761  0.1904
19667TIP3    H180416   2.781   6.109  13.588 -0.0321 -0.7999  0.0694
19667TIP3    H280417   2.676   6.119  13.696  1.4776 -0.6548  1.5738
19668TIP3   OH280418   2.705   2.964  14.054 -0.3342 -0.2136 -0.2788
19668TIP3    H180419   2.702   2.986  13.961 -0.6648  1.5418  0.1261
19668TIP3    H280420   2.614   2.958  14.081 -0.2376  0.1456  0.1300
19669TIP3   OH280421   0.361   0.917  11.940 -0.7950  0.4992  0.4375
19669TIP3    H180422   0.440   0.879  11.902 -1.1769 -3.5655  3.0494
19669TIP3    H280423   0.290   0.891  11.881 -0.5772  1.1007 -0.0959
19670TIP3   OH280424   1.182   5.140   2.878 -0.0925  0.1655 -0.3286
19670TIP3    H180425   1.212   5.108   2.963  0.0405  0.4878 -0.2528
19670TIP3    H280426   1.102   5.092   2.861 -0.3159  0.3615  0.1516
19671TIP3   OH280427   5.026   2.229  14.745 -0.6550  0.0340  0.3041
19671TIP3    H180428   5.067   2.299  14.693  1.7744 -0.1157  1.8233
19671TIP3    H280429   4.988   2.275  14.820  0.6219 -0.1711  1.1134
19672TIP3   OH280430   3.041   3.837  12.778 -0.0737  0.2677  0.4807
19672TIP3    H180431   3.107   3.796  12.722  0.9176  0.9112  1.1404
19672TIP3    H280432   3.086   3.912  12.816 -1.0177  0.3736  1.4166
19673TIP3   OH280433   4.396   0.710  14.174 -0.6353 -0.2839  0.2322
19673TIP3    H180434   4.332   0.754  14.117 -1.8584 -0.9483  1.0558
19673TIP3    H280435   4.343   0.667  14.241  0.7198 -0.4112  1.2624
19674TIP3   OH280436   1.609   6.010   0.392  0.1948  0.0684 -0.0027
19674TIP3    H180437   1.639   6.099   0.378 -0.8498  0.2902 -1.0301
19674TIP3    H280438   1.521   6.020   0.429  0.2327 -0.5285  0.2591
19675TIP3   OH280439   2.479   4.528  11.058 -0.1189  0.4553 -0.3209
19675TIP3    H180440   2.558   4.476  11.070  0.0224  0.7834  0.2267
19675TIP3    H280441   2.429   4.516  11.138 -1.8033 -1.6684 -1.6004
19676TIP3   OH280442   1.787   0.741   0.009 -0.0088  0.2519 -0.2272
19676TIP3    H180443   1.751   0.660   0.044  0.6151  0.3382  0.6254
19676TIP3    H280444   1.811   0.793   0.086 -0.1351  1.1307 -0.7617
19677TIP3   OH280445   6.370   1.202   1.280  0.4842  0.3168 -0.2925
19677TIP3    H180446   6.332   1.139   1.219  1.0459 -2.5336  2.0890
19677TIP3    H280447   6.442   1.242   1.231  0.0994 -0.8554 -1.8961
19678TIP3   OH280448   4.748   0.230   0.425 -0.0875  0.0328  0.1291
19678TIP3    H180449   4.844   0.227   0.427 -0.1027 -1.7634  0.2692
19678TIP3    H280450   4.722   0.138   0.414 -1.7560  0.6853 -2.2390
19679TIP3   OH280451   1.264   5.631   2.772  0.0214  0.4833 -0.0329
19679TIP3    H180452   1.169   5.615   2.774 -0.1495  0.9219 -1.8842
19679TIP3    H280453   1.297   5.566   2.710  0.8034  0.8912 -0.0453
19680TIP3   OH280454   0.789   1.038   2.665 -1.0080 -0.1468  0.4329
19680TIP3    H180455   0.824   1.108   2.720  1.1623 -0.0762 -0.9020
19680TIP3    H280456   0.774   1.080   2.580 -1.5559 -0.8752  0.1618
19681TIP3   OH280457   2.761   5.352  17.270  0.3381 -0.1738 -0.5939
19681TIP3    H180458   2.670   5.370  17.295  0.7635  0.7660  0.3603
19681TIP3    H280459   2.775   5.261  17.297  0.4946  0.5148  1.8744
19682TIP3   OH280460   3.279   1.858  16.723 -1.0175  0.1157 -0.5264
19682TIP3    H180461   3.269   1.953  16.720  0.1341  0.2796  0.2867
19682TIP3    H280462   3.352   1.840  16.664  0.3766  0.0212  1.1432
19683TIP3   OH280463   0.298   3.531  14.979 -0.0199  0.6752  0.4025
19683TIP3    H180464   0.235   3.471  15.019 -0.2153  0.9977  0.5748
19683TIP3    H280465   0.342   3.477  14.912 -2.5942  1.2034 -1.9041
19684TIP3   OH280466   6.051   5.642  14.437  0.3888  0.2949 -0.2699
19684TIP3    H180467   6.037   5.726  14.393  2.4372  0.8164 -0.0254
19684TIP3    H280468   6.146   5.633  14.443  0.2384 -0.4651  2.6958
19685TIP3   OH280469   2.890   6.625  16.280 -0.0833 -0.3513 -0.1510
19685TIP3    H180470   2.934   6.662  16.357  0.8135 -0.6355 -0.5099
19685TIP3    H280471   2.954   6.564  16.244  0.5394  1.5205 -2.5187
19686TIP3   OH280472   1.266   6.577   4.243 -0.3411  0.6598 -0.4393
19686TIP3    H180473   1.241   6.626   4.321 -0.9401  0.6355 -0.6173
19686TIP3    H280474   1.302   6.495   4.276 -1.3985  0.2792 -0.2153
19687TIP3   OH280475   4.192   2.830   2.551 -0.3671  0.0171 -0.5534
19687TIP3    H180476   4.255   2.874   2.495 -0.2241  1.0285  0.3730
19687TIP3    H280477   4.214   2.859   2.640 -1.4366 -0.4801 -0.1081
19688TIP3   OH280478   2.062   2.977  16.603 -0.2963  0.8880 -0.0921
19688TIP3    H180479   2.004   3.053  16.603 -0.8949  0.4947  1.8975
19688TIP3    H280480   2.004   2.903  16.617  0.2920  0.0275 -1.9313
19689TIP3   OH280481   4.904   0.574   3.185 -0.4724 -0.2748  0.3006
19689TIP3    H180482   4.996   0.580   3.212  0.4314 -0.9947 -2.3371
19689TIP3    H280483   4.880   0.483   3.204 -1.4640  0.4518  3.0825
19690TIP3   OH280484   5.069   1.711   0.598  0.5544  0.3090  0.0045
19690TIP3    H180485   5.151   1.665   0.579  0.9051  1.0020 -0.2426
19690TIP3    H280486   5.016   1.699   0.519  0.9697  0.9872 -0.3968
19691TIP3   OH280487   2.165   2.790  11.546 -0.5038 -0.2143 -0.5736
19691TIP3    H180488   2.101   2.838  11.494 -0.7997 -0.4712 -0.4526
19691TIP3    H280489   2.164   2.702  11.508 -0.7099 -0.3986 -0.1476
19692TIP3   OH280490   2.821   1.957  11.713 -0.2965  0.3173 -0.4019
19692TIP3    H180491   2.865   1.887  11.666  0.4890  2.1252 -2.5300
19692TIP3    H280492   2.877   1.973  11.790  1.7751  1.2177 -1.9960
19693TIP3   OH280493   5.264   0.122  12.443 -0.0170  0.2776  0.2936
19693TIP3    H180494   5.173   0.150  12.429 -0.3204 -0.9931 -0.4290
19693TIP3    H280495   5.263   0.076  12.527 -0.1443 -0.1620  0.0508
19694TIP3   OH280496   5.981   5.524  13.013  0.8181  0.1093  0.0827
19694TIP3    H180497   6.034   5.535  13.092  0.1950  1.0311  0.3782
19694TIP3    H280498   5.891   5.540  13.041  0.5802  0.3606 -0.7986
19695TIP3   OH280499   2.400   3.235  11.550  0.4121  0.3864  0.2563
19695TIP3    H180500   2.395   3.144  11.521 -1.4780  1.0557 -1.8672
19695TIP3    H280501   2.385   3.286  11.470 -0.1833  2.5336  1.6532
19696TIP3   OH280502   5.137   1.934   1.042 -0.0551  0.7044 -0.7616
19696TIP3    H180503   5.142   1.847   1.003  1.1807 -0.5963  2.0687
19696TIP3    H280504   5.213   1.981   1.006  0.2545  0.0196 -1.0160
19697TIP3   OH280505   0.667   6.654  12.312  0.0185 -0.5667  0.4219
19697TIP3    H180506   0.610   6.608  12.250  0.2030 -0.6176  0.2885
19697TIP3    H280507   0.657   6.746  12.290  1.2972 -0.6742 -0.7493
19698TIP3   OH280508   0.900   6.592   5.229 -0.0020 -0.3181 -0.0478
19698TIP3    H180509   0.812   6.599   5.192  0.4032 -0.1931 -1.0098
19698TIP3    H280510   0.958   6.589   5.153  0.8716  0.1448  0.5884
19699TIP3   OH280511   0.802   2.308   6.693  0.0232 -0.2208  0.7797
19699TIP3    H180512   0.754   2.239   6.647  0.7856  0.0737 -0.5015
19699TIP3    H280513   0.738   2.378   6.706 -0.3078 -0.4778  0.5275
19700TIP3   OH280514   0.576   0.464   1.117 -0.0505 -0.1720  0.2654
19700TIP3    H180515   0.514   0.537   1.109 -1.7851 -1.7504 -1.6577
19700TIP3    H280516   0.620   0.460   1.032  0.5873 -0.8802  0.6185
19701TIP3   OH280517   2.863   3.987   1.774  0.2261 -0.4863  0.3602
19701TIP3    H180518   2.935   3.957   1.828 -0.1772 -1.9447  0.1285
19701TIP3    H280519   2.885   3.956   1.686  0.3377  0.8974 -0.1193
19702TIP3   OH280520   5.732   5.385  16.206 -0.4850  0.2638 -0.2253
19702TIP3    H180521   5.796   5.450  16.175  0.6195 -0.8093 -0.2613
19702TIP3    H280522   5.768   5.301  16.179 -2.3709 -0.3331 -1.0160
19703TIP3   OH280523   3.779   4.270   4.309 -0.0791 -0.2116  0.7796
19703TIP3    H180524   3.698   4.308   4.272 -0.3090 -1.5581 -0.1757
19703TIP3    H280525   3.757   4.253   4.400 -0.3426  0.8660  0.9416
19704TIP3   OH280526   4.564   5.110  15.946  0.2385 -0.3095  0.3641
19704TIP3    H180527   4.557   5.054  16.023 -0.3779  2.7384  2.6906
19704TIP3    H280528   4.656   5.103  15.919  0.4952 -1.3121  1.4346
19705TIP3   OH280529   5.700   2.373   0.192 -0.2371  0.0873 -0.0324
19705TIP3    H180530   5.723   2.351   0.282 -1.2061 -1.7898 -0.1852
19705TIP3    H280531   5.609   2.344   0.184 -0.3927  0.8912 -1.4093
19706TIP3   OH280532   6.577   2.869  11.096 -0.3063  0.5073 -0.3294
19706TIP3    H180533   6.619   2.934  11.039 -2.8727  2.0527 -0.6453
19706TIP3    H280534   6.500   2.841  11.047 -0.8117 -0.6195  1.0434
19707TIP3   OH280535   4.419   0.377  14.481  0.1547 -0.0115 -0.1169
19707TIP3    H180536   4.421   0.386  14.576  0.1697  0.1928 -0.1344
19707TIP3    H280537   4.432   0.284  14.465 -0.6612 -0.1761  0.1108
19708TIP3   OH280538   3.519   4.605   5.508 -0.4091 -0.0874 -0.2346
19708TIP3    H180539   3.436   4.642   5.478 -1.1587 -1.2684  0.2845
19708TIP3    H280540   3.511   4.511   5.488  1.5004  0.0150 -1.7389
19709TIP3   OH280541   5.876   2.908  11.568  0.8428 -0.0073  0.1289
19709TIP3    H180542   5.796   2.868  11.602  0.9845 -0.0840  0.3744
19709TIP3    H280543   5.851   2.942  11.482  0.8467 -1.0610 -0.3088
19710TIP3   OH280544   4.623   2.794   0.672 -0.0385 -0.2842 -0.6794
19710TIP3    H180545   4.701   2.849   0.673  0.7984 -1.4457 -0.7744
19710TIP3    H280546   4.628   2.744   0.754  0.4352 -1.8762 -1.6465
19711TIP3   OH280547   3.872   3.422  15.305  0.0378 -0.0484  0.4045
19711TIP3    H180548   3.914   3.349  15.261  0.9266 -0.1887  1.4288
19711TIP3    H280549   3.817   3.463  15.238  0.6951 -0.7408 -0.5781
19712TIP3   OH280550   3.114   1.526   2.226 -0.1992 -0.6197  0.3139
19712TIP3    H180551   3.189   1.585   2.239  0.2055 -1.2500  0.8884
19712TIP3    H280552   3.040   1.574   2.264 -0.4091  0.6524 -1.5650
19713TIP3   OH280553   3.103   2.216   5.242 -0.7179  0.7272 -0.3898
19713TIP3    H180554   3.089   2.127   5.274  0.1235  1.0590  0.9492
19713TIP3    H280555   3.057   2.271   5.304  2.1492  1.4911  1.2175
19714TIP3   OH280556   3.006   0.454  17.245  0.3306 -0.1574  0.1918
19714TIP3    H180557   3.000   0.547  17.264  0.8072  0.2842 -1.5879
19714TIP3    H280558   3.079   0.447  17.183  0.6322 -1.7815  0.6773
19715TIP3   OH280559   5.521   4.593   5.318  0.0823  0.2438 -0.1613
19715TIP3    H180560   5.544   4.510   5.276 -0.6703  0.4894 -1.1050
19715TIP3    H280561   5.480   4.644   5.248  0.9068  1.5732  0.2877
19716TIP3   OH280562   5.414   0.434  11.623 -0.2483  0.1635  0.2858
19716TIP3    H180563   5.383   0.481  11.700 -1.0485 -0.9064  0.6353
19716TIP3    H280564   5.351   0.455  11.555 -0.3160  0.0168  0.3020
19717TIP3   OH280565   6.074   3.789   6.123  0.0059  0.2036 -0.1633
19717TIP3    H180566   6.119   3.869   6.150 -0.8637  0.7674 -0.3870
19717TIP3    H280567   6.102   3.724   6.188  0.0793  0.8789  0.4962
19718TIP3   OH280568   3.359   3.271   0.782 -0.1407 -0.8199 -0.3640
19718TIP3    H180569   3.312   3.190   0.799 -0.0265 -0.7972  0.0880
19718TIP3    H280570   3.392   3.262   0.693 -1.9449 -0.3598 -1.1160
19719TIP3   OH280571   5.116   4.635   4.232 -0.4867 -0.1741  0.0807
19719TIP3    H180572   5.065   4.655   4.311 -0.8497 -0.5048 -0.0645
19719TIP3    H280573   5.062   4.666   4.160  0.0111  0.4578 -0.0207
19720TIP3   OH280574   0.566   0.686  16.207 -0.6556 -0.0631 -0.0954
19720TIP3    H180575   0.484   0.715  16.249 -0.4860  1.6117 -0.8336
19720TIP3    H280576   0.557   0.591  16.200 -1.7386 -0.1192  1.5045
19721TIP3   OH280577   4.224   4.372   6.248 -0.7402 -0.0965 -0.1206
19721TIP3    H180578   4.171   4.299   6.279  0.6006 -0.3232  1.8412
19721TIP3    H280579   4.251   4.418   6.327  2.3262 -0.2676 -0.9095
19722TIP3   OH280580   5.920   2.205  14.021 -0.6306 -0.0946  0.3105
19722TIP3    H180581   5.896   2.289  13.981  1.1138 -0.1016 -0.8190
19722TIP3    H280582   5.895   2.140  13.956 -0.7786 -0.3641  0.6362
19723TIP3   OH280583   1.965   4.452   3.120  0.3128 -0.3778 -0.4163
19723TIP3    H180584   2.015   4.532   3.136 -0.7146 -0.0966  1.6764
19723TIP3    H280585   1.972   4.438   3.025  2.3235  0.9556 -0.5277
19724TIP3   OH280586   4.999   5.462  13.458 -0.3367  0.4585  0.4157
19724TIP3    H180587   4.944   5.518  13.512 -1.4710 -1.6579  1.5721
19724TIP3    H280588   5.076   5.444  13.512  1.1383  2.6161 -0.8208
19725TIP3   OH280589   2.810   1.206   5.539 -0.0145 -0.0896  0.3550
19725TIP3    H180590   2.850   1.159   5.465 -0.5052 -0.1464  0.1232
19725TIP3    H280591   2.802   1.296   5.508  0.2047 -0.0184  0.5090
19726TIP3   OH280592   2.638   6.061  16.666 -0.2102  0.2635  0.1190
19726TIP3    H180593   2.547   6.091  16.675  0.2018  1.2788  1.2118
19726TIP3    H280594   2.689   6.124  16.717  1.1667 -0.0553 -0.8019
19727TIP3   OH280595   3.405   3.326   5.170  0.4317 -0.2184  0.4217
19727TIP3    H180596   3.380   3.380   5.095  0.6401 -0.1238  0.4181
19727TIP3    H280597   3.352   3.359   5.242 -0.6168 -1.0698  0.0622
19728TIP3   OH280598   5.824   0.480   2.197 -0.0647  0.6735  0.3105
19728TIP3    H180599   5.841   0.556   2.142 -0.0817  0.8173  0.5023
19728TIP3    H280600   5.836   0.405   2.139  1.3323  0.7606  0.4527
19729TIP3   OH280601   1.764   0.563   3.590 -0.3137 -0.1629  0.3465
19729TIP3    H180602   1.696   0.503   3.556 -0.1122  0.1108 -0.5721
19729TIP3    H280603   1.846   0.526   3.557 -0.3712  2.5809 -3.5812
19730TIP3   OH280604   1.722   0.956  17.060  0.0739 -0.5892 -0.0094
19730TIP3    H180605   1.677   0.872  17.053 -0.8776 -0.0718 -0.3558
19730TIP3    H280606   1.735   0.969  17.154  0.7453 -1.3723  0.0195
19731TIP3   OH280607   0.798   0.013   0.213 -0.3465 -0.4159  0.1625
19731TIP3    H180608   0.759   0.080   0.269  3.4716  1.2267  1.1815
19731TIP3    H280609   0.872  -0.020   0.264  1.2316 -1.3549 -2.5578
19732TIP3   OH280610   0.584   5.316  13.330  0.2010  0.1313  0.0421
19732TIP3    H180611   0.591   5.363  13.413 -0.9693  0.7802 -0.2082
19732TIP3    H280612   0.595   5.223  13.354 -1.0643  0.2185  1.0745
19733TIP3   OH280613   4.516   4.954   0.460  0.0588  0.1037  0.2544
19733TIP3    H180614   4.528   5.047   0.475  2.8107  0.0444 -0.9571
19733TIP3    H280615   4.594   4.913   0.498  0.1413 -1.4121 -1.3716
19734TIP3   OH280616   4.250   0.753   0.462  0.6661  0.2554  0.3336
19734TIP3    H180617   4.276   0.670   0.423 -1.7219 -0.2488 -0.2850
19734TIP3    H280618   4.244   0.814   0.388 -2.0236 -0.2262  0.0749
19735TIP3   OH280619   1.759   4.543   5.160  0.0261  0.4237  0.0273
19735TIP3    H180620   1.759   4.638   5.172 -1.2964  0.3611  0.6797
19735TIP3    H280621   1.722   4.530   5.072  0.8818  0.5312 -0.3539
19736TIP3   OH280622   0.899   6.183   1.835  0.1869 -0.5142  0.0403
19736TIP3    H180623   0.857   6.269   1.830 -1.4426 -1.3356 -2.0948
19736TIP3    H280624   0.851   6.138   1.904  0.1461 -0.1601  0.2474
19737TIP3   OH280625   0.267   5.881   1.248 -0.5014 -0.3336 -0.3909
19737TIP3    H180626   0.254   5.788   1.264 -1.2386 -0.2795 -0.6377
19737TIP3    H280627   0.351   5.902   1.291  0.3900 -1.3974 -1.5395
19738TIP3   OH280628   6.582   3.781   1.466  0.6075 -0.6576  0.3293
19738TIP3    H180629   6.520   3.791   1.538  0.9437 -2.2108  0.8867
19738TIP3    H280630   6.557   3.848   1.402 -1.8170 -1.4077  0.4070
19739TIP3   OH280631   3.521   1.038   6.388  0.9575  0.0225 -0.0947
19739TIP3    H180632   3.438   1.083   6.404  2.0925  1.3400  2.6786
19739TIP3    H280633   3.495   0.954   6.350 -1.7013  0.1953  1.1023
19740TIP3   OH280634   4.100   4.148   4.773  0.2389  0.1120 -0.2586
19740TIP3    H180635   4.103   4.198   4.691  1.2401 -1.2007 -1.0469
19740TIP3    H280636   4.178   4.093   4.771  0.6739  0.5580  1.9240
19741TIP3   OH280637   4.664   3.225   0.287 -0.7029  0.3034 -0.0338
19741TIP3    H180638   4.735   3.172   0.250  0.5661  0.8991  1.4284
19741TIP3    H280639   4.671   3.212   0.382 -0.5842  2.7351  0.3495
19742TIP3   OH280640   5.326   4.998   5.350 -0.2996 -0.6785 -0.5459
19742TIP3    H180641   5.322   5.093   5.341 -0.1911 -0.7055 -0.8929
19742TIP3    H280642   5.381   4.984   5.427 -2.7167 -0.4190  1.3528
19743TIP3   OH280643   2.935   5.342  15.318  0.0628 -0.0380  0.1090
19743TIP3    H180644   3.000   5.286  15.274 -0.3554  0.5342 -1.2808
19743TIP3    H280645   2.942   5.318  15.410  1.1626 -1.0924 -0.2191
19744TIP3   OH280646   3.812   6.370  13.818 -0.8442  0.2174 -0.0846
19744TIP3    H180647   3.779   6.443  13.870 -1.2262  1.7000 -2.2518
19744TIP3    H280648   3.898   6.351  13.854 -1.5105  0.4541  1.7125
19745TIP3   OH280649   6.587   0.596   2.778 -0.3356  0.0841 -0.1064
19745TIP3    H180650   6.510   0.591   2.834  0.3025 -3.1695  0.6649
19745TIP3    H280651   6.553   0.576   2.690 -0.5041 -0.7557  0.1353
19746TIP3   OH280652   3.323   2.067  15.962  0.2051 -0.0403  0.0666
19746TIP3    H180653   3.302   2.002  16.030 -0.5904  0.1816  0.0495
19746TIP3    H280654   3.407   2.102  15.988  0.0131 -0.1157  0.8262
19747TIP3   OH280655   6.645   6.593   1.910  0.0974 -0.2472  0.0998
19747TIP3    H180656   6.704   6.518   1.903  1.7643  0.8757  1.3378
19747TIP3    H280657   6.612   6.605   1.821  0.7083 -1.6997 -0.3613
19748TIP3   OH280658   3.971   1.409   5.740 -0.0426  0.2375 -0.2531
19748TIP3    H180659   3.908   1.365   5.798  1.4393 -1.4353  0.1542
19748TIP3    H280660   4.025   1.339   5.705 -0.1709  1.3364 -2.8389
19749TIP3   OH280661   0.177   6.746   1.987  0.3258  0.3206 -0.3286
19749TIP3    H180662   0.178   6.753   2.083 -0.4426  1.5611 -0.3828
19749TIP3    H280663   0.089   6.714   1.967  0.2168  0.8039 -0.6437
19750TIP3   OH280664   6.022   3.228   4.314 -0.2136  0.0915 -0.1396
19750TIP3    H180665   5.942   3.267   4.348 -0.3393 -0.5718  0.3591
19750TIP3    H280666   6.021   3.247   4.220 -0.2122  1.3519  0.1044
19751TIP3   OH280667   4.773   4.854   4.283 -0.3768  0.3289  0.2495
19751TIP3    H180668   4.824   4.930   4.309  0.0026 -0.5298  2.1107
19751TIP3    H280669   4.683   4.877   4.307 -0.4754  0.7258 -0.4720
19752TIP3   OH280670   1.027   1.476  12.335 -0.0775 -0.4483  0.2760
19752TIP3    H180671   1.004   1.563  12.304  1.3812  0.0760  0.6008
19752TIP3    H280672   1.004   1.417  12.263 -2.3368 -0.0054  0.5508
19753TIP3   OH280673   3.831   4.655   4.588 -0.2362  0.1001  0.6082
19753TIP3    H180674   3.917   4.639   4.549 -1.1289  2.0619 -2.5471
19753TIP3    H280675   3.821   4.750   4.587 -2.2775 -0.0531  1.2862
19754TIP3   OH280676   1.005   0.730   1.190  0.1736  0.1854  0.0320
19754TIP3    H180677   1.008   0.786   1.112  0.7393  0.8332  0.5132
19754TIP3    H280678   1.096   0.719   1.215 -0.0034 -0.0740  0.5681
19755TIP3   OH280679   0.335   2.532  12.183 -0.0038  0.2727 -0.7057
19755TIP3    H180680   0.348   2.437  12.189 -1.2099  0.1334  0.0527
19755TIP3    H280681   0.273   2.542  12.110  0.4836  0.5241 -1.0894
19756TIP3   OH280682   5.154   2.082   5.592 -0.2651  0.7230 -0.4049
19756TIP3    H180683   5.095   2.073   5.667  0.3791  1.3112  0.1824
19756TIP3    H280684   5.119   2.156   5.543  0.2801  1.4194  0.2348
19757TIP3   OH280685   1.230   1.779  15.134 -0.6872  0.2142 -0.6598
19757TIP3    H180686   1.223   1.722  15.211 -0.5654  1.2321  0.1297
19757TIP3    H280687   1.253   1.720  15.063 -0.2311 -0.6815  0.1978
19758TIP3   OH280688   0.431   3.628   0.099  0.4895  0.0841 -0.4999
19758TIP3    H180689   0.375   3.644   0.023 -1.1767 -0.1662  0.6155
19758TIP3    H280690   0.426   3.533   0.114  0.1897  0.2220  0.3475
19759TIP3   OH280691   4.125   5.521   3.427  0.1337 -0.2649  0.1078
19759TIP3    H180692   4.186   5.567   3.485 -0.2700  1.4351 -0.7393
19759TIP3    H280693   4.064   5.478   3.486  0.1039  0.8988  0.9625
19760TIP3   OH280694   1.126   5.043  13.982 -0.6347  0.1924  0.1828
19760TIP3    H180695   1.108   4.982  14.054  0.3837  1.1275  1.2518
19760TIP3    H280696   1.041   5.082  13.963 -0.7945  0.5252  1.4510
19761TIP3   OH280697   5.361   2.919   0.248 -0.6007  0.3212  0.5514
19761TIP3    H180698   5.292   2.855   0.256 -0.5000  0.0135 -0.7226
19761TIP3    H280699   5.380   2.922   0.154  0.7891  0.7313  0.8146
19762TIP3   OH280700   2.656   5.893  10.909 -0.1068  0.3587  0.3283
19762TIP3    H180701   2.730   5.879  10.851  0.5047  0.7166  1.0053
19762TIP3    H280702   2.657   5.987  10.927 -1.3184  0.5341 -0.4264
19763TIP3   OH280703   5.116   4.847   1.443  0.2430 -0.2681  0.4122
19763TIP3    H180704   5.152   4.796   1.515  0.4429  1.1294  1.3466
19763TIP3    H280705   5.036   4.886   1.478 -0.3885 -0.6226 -0.5653
19764TIP3   OH280706   3.405   4.806  11.131  0.3808  0.6116 -0.3058
19764TIP3    H180707   3.467   4.832  11.063  0.1104  0.8913 -0.4446
19764TIP3    H280708   3.383   4.887  11.176  1.3627  0.2893  0.8067
19765TIP3   OH280709   4.584   1.471   6.318 -0.1720 -0.0585  0.1901
19765TIP3    H180710   4.613   1.381   6.334 -0.2442 -0.4226 -1.5283
19765TIP3    H280711   4.558   1.504   6.404 -1.2045 -2.0525  0.7012
19766TIP3   OH280712   2.899   5.539  15.050  0.0697 -0.8085 -0.0098
19766TIP3    H180713   2.818   5.546  14.998  1.6016  0.7944 -2.3821
19766TIP3    H280714   2.889   5.457  15.098 -2.9783 -0.6433 -0.1540
19767TIP3   OH280715   5.292   6.104   0.661  0.8376  0.6531 -0.5177
19767TIP3    H180716   5.314   6.170   0.726  1.3839  1.6287 -1.6416
19767TIP3    H280717   5.297   6.151   0.577 -1.8973  0.0067 -1.1566
19768TIP3   OH280718   3.863   1.410  15.933 -0.2833 -0.6756  0.3449
19768TIP3    H180719   3.777   1.450  15.938 -0.2673 -0.1863 -1.9543
19768TIP3    H280720   3.853   1.339  15.870  1.2862  0.4287 -1.2760
19769TIP3   OH280721   3.756   4.097  13.647 -0.6394  0.1093  0.0837
19769TIP3    H180722   3.764   4.060  13.559  0.2257  2.2108 -0.7834
19769TIP3    H280723   3.669   4.069  13.677 -0.9285 -0.6952 -1.3992
19770TIP3   OH280724   1.295   5.256   3.580  0.1356 -0.2450  0.5847
19770TIP3    H180725   1.290   5.351   3.567  4.1762  0.1905  0.9119
19770TIP3    H280726   1.310   5.246   3.674  2.2207 -0.9441  0.2215
19771TIP3   OH280727   4.705   0.623  13.696  0.5887 -0.0503  0.0060
19771TIP3    H180728   4.688   0.552  13.758 -0.2377  0.6752  0.6290
19771TIP3    H280729   4.784   0.665  13.729  1.1487 -0.7421 -0.4314
19772TIP3   OH280730   1.074   6.561  11.932 -0.2184  0.4336 -0.6484
19772TIP3    H180731   1.082   6.657  11.929 -0.0560  0.5352  1.5369
19772TIP3    H280732   1.161   6.531  11.958 -0.7511 -0.1327  0.5739
19773TIP3   OH280733   6.385   6.240  12.444  0.1300 -0.4633  0.1483
19773TIP3    H180734   6.409   6.331  12.463 -1.0902  0.1567 -1.1285
19773TIP3    H280735   6.469   6.196  12.430  0.8773 -0.0601  2.7539
19774TIP3   OH280736   5.687   1.802  16.035 -0.0145 -0.3050  0.7457
19774TIP3    H180737   5.688   1.867  15.964  0.1271  1.3249  2.1838
19774TIP3    H280738   5.647   1.725  15.995  1.2219  0.0987 -1.4840
19775TIP3   OH280739   6.396   1.206  13.367  0.5070  0.3138 -0.0375
19775TIP3    H180740   6.355   1.215  13.452 -0.4604 -0.2625 -0.4187
19775TIP3    H280741   6.446   1.124  13.373 -0.9702 -0.6772 -0.5344
19776TIP3   OH280742   1.601   0.740   5.175  0.2382 -0.0095 -0.2095
19776TIP3    H180743   1.679   0.791   5.152  0.3611 -0.2883 -0.4023
19776TIP3    H280744   1.630   0.649   5.176  0.2939 -0.0019  1.2448
19777TIP3   OH280745   5.028   3.698   1.747  0.0169 -0.1001  0.0336
19777TIP3    H180746   5.073   3.751   1.812 -1.7226 -0.3883  1.5559
19777TIP3    H280747   5.017   3.756   1.671  0.5916  0.7961  0.6318
19778TIP3   OH280748   3.923   6.573  12.728 -0.2455 -0.3778  0.6479
19778TIP3    H180749   4.013   6.542  12.743  1.5539  3.4155 -0.9794
19778TIP3    H280750   3.911   6.642  12.794  0.3981  3.0441 -2.4897
19779TIP3   OH280751   5.560   6.047   1.044  0.3363 -0.0893  0.4043
19779TIP3    H180752   5.528   5.986   1.111  0.9830 -0.4577  0.3827
19779TIP3    H280753   5.480   6.079   1.001 -0.3253  1.9636  2.8810
19780TIP3   OH280754   2.131   2.165  16.573  0.0133 -0.3682 -0.6252
19780TIP3    H180755   2.061   2.182  16.637 -0.0337 -0.1716 -0.7300
19780TIP3    H280756   2.160   2.252  16.546 -0.0431 -0.4524 -0.9583
19781TIP3   OH280757   3.677   3.923  15.566 -0.4797 -0.1708  0.0147
19781TIP3    H180758   3.753   3.961  15.612 -1.0228  1.6158 -0.4892
19781TIP3    H280759   3.716   3.871  15.496  0.2996  1.0675 -0.5065
19782TIP3   OH280760   5.590   4.085  14.910  0.3222  0.2031 -0.3121
19782TIP3    H180761   5.653   4.026  14.869 -1.1911 -0.9130 -1.1028
19782TIP3    H280762   5.606   4.075  15.004  0.6690 -0.8072 -0.4627
19783TIP3   OH280763   4.431   5.087   6.887 -0.1014 -0.2510  0.5296
19783TIP3    H180764   4.374   5.028   6.838  0.4008 -1.1720  1.0355
19783TIP3    H280765   4.506   5.102   6.829  1.0860 -2.3161  1.4226
19784TIP3   OH280766   5.688   4.048   3.446  0.0227 -0.4457 -0.5501
19784TIP3    H180767   5.692   4.143   3.456  1.1351 -0.4600 -0.7190
19784TIP3    H280768   5.602   4.023   3.479  0.5295  0.3798  1.5175
19785TIP3   OH280769   6.636   4.416   1.469 -0.0894  0.4195 -0.4984
19785TIP3    H180770   6.713   4.390   1.418  1.0164 -0.0982  1.3231
19785TIP3    H280771   6.578   4.340   1.465  1.0630 -0.6029  0.9292
19786TIP3   OH280772   6.525   6.509   5.034 -0.5628 -0.1912  0.1691
19786TIP3    H180773   6.461   6.572   5.002  0.8366  0.1135 -2.3127
19786TIP3    H280774   6.608   6.537   4.993  0.7317 -1.7931  1.5552
19787TIP3   OH280775   2.794   1.647  15.463 -0.0384  0.2264  0.7695
19787TIP3    H180776   2.881   1.642  15.425 -0.9350  0.2080 -1.4389
19787TIP3    H280777   2.768   1.738  15.453 -1.9781 -0.5428 -2.9580
19788TIP3   OH280778   3.257   0.289  13.119  0.7535  0.3322 -0.7870
19788TIP3    H180779   3.330   0.309  13.178  0.7517  1.1290 -1.0418
19788TIP3    H280780   3.211   0.373  13.110  0.0773 -0.0590 -0.9945
19789TIP3   OH280781   5.185   2.233   6.242  0.1782 -0.0842  0.2470
19789TIP3    H180782   5.212   2.228   6.151 -1.6509 -1.0370 -0.3010
19789TIP3    H280783   5.172   2.326   6.259 -1.6133 -0.0096 -1.1933
19790TIP3   OH280784   0.949   6.688  14.179  0.2332  0.1815 -0.0548
19790TIP3    H180785   1.008   6.615  14.199  0.9194  0.3038 -1.5182
19790TIP3    H280786   0.929   6.726  14.265  0.6408 -1.1186  0.6475
19791TIP3   OH280787   2.099   1.356   3.888 -0.3530 -0.0413 -0.1418
19791TIP3    H180788   2.174   1.299   3.908 -0.6322  0.1881  1.7665
19791TIP3    H280789   2.096   1.359   3.792  1.5282 -0.7641 -0.2684
19792TIP3   OH280790   2.963   1.243  14.951  0.2659  0.0854 -0.6963
19792TIP3    H180791   2.870   1.221  14.945  0.4320 -0.9817  0.2976
19792TIP3    H280792   2.977   1.309  14.883 -1.6279  1.7503  0.4334
19793TIP3   OH280793   1.606   1.192  12.435 -0.4304 -0.6007 -0.1506
19793TIP3    H180794   1.657   1.258  12.388  0.8806  1.0926  3.2479
19793TIP3    H280795   1.660   1.113  12.433  0.9319  0.2625  0.7381
19794TIP3   OH280796   6.746   1.173   2.766  0.5126 -0.4156  0.0620
19794TIP3    H180797   6.754   1.087   2.725  1.4721  0.5741 -2.0079
19794TIP3    H280798   6.675   1.215   2.718 -1.3206 -0.6676  2.3678
19795TIP3   OH280799   2.583   6.171   2.004 -0.1452 -0.1479  0.6181
19795TIP3    H180800   2.547   6.259   1.993  1.4090  0.3812 -0.5036
19795TIP3    H280801   2.530   6.132   2.074 -0.3544  1.9484  1.6931
19796TIP3   OH280802   4.277   0.120   3.048 -0.2176 -0.4836  0.3373
19796TIP3    H180803   4.283   0.119   2.952  0.5490 -1.7593  0.3686
19796TIP3    H280804   4.351   0.175   3.075  0.7937 -1.7517  0.2293
19797TIP3   OH280805   4.924   0.460  12.530 -0.0552 -0.0253 -0.0515
19797TIP3    H180806   4.836   0.478  12.564  0.3239  0.9972  0.4366
19797TIP3    H280807   4.910   0.396  12.460 -1.0312 -0.9152  0.9223
19798TIP3   OH280808   2.918   0.436  12.695 -0.0025  0.3934 -0.2413
19798TIP3    H180809   2.977   0.467  12.626  0.8640  1.6659  1.0101
19798TIP3    H280810   2.884   0.353  12.662  1.7959  0.0621 -1.4031
19799TIP3   OH280811   2.451   0.955   6.099 -0.1041 -0.4096 -0.5572
19799TIP3    H180812   2.427   0.863   6.095 -0.8407 -0.2610  0.2412
19799TIP3    H280813   2.369   1.001   6.118  0.2122  0.4344 -1.1611
19800TIP3   OH280814   1.833   5.014  15.138  0.0861  0.2912  0.3215
19800TIP3    H180815   1.744   4.996  15.167 -0.0558  0.0817 -0.2370
19800TIP3    H280816   1.830   5.104  15.107  0.2940  0.5955  1.1550
19801TIP3   OH280817   3.961   6.663   5.642  0.4016  0.8379 -0.1369
19801TIP3    H180818   3.940   6.724   5.713 -0.5314  0.2549  0.1028
19801TIP3    H280819   3.928   6.579   5.672  1.0438  0.3507 -0.7707
19802TIP3   OH280820   5.062   0.147   0.874 -0.6976 -0.2845  0.4903
19802TIP3    H180821   5.090   0.222   0.926  0.6051 -0.8837  0.6867
19802TIP3    H280822   4.972   0.130   0.903 -1.5589  2.0320 -0.5500
19803TIP3   OH280823   2.313   1.248  16.509 -0.0507  0.2750  0.4117
19803TIP3    H180824   2.378   1.230  16.442 -0.5381  0.3331 -0.0891
19803TIP3    H280825   2.262   1.321  16.474 -0.8758 -0.2756  0.4389
19804TIP3   OH280826   2.817   0.771   2.082  0.2016 -0.1068 -0.0001
19804TIP3    H180827   2.729   0.786   2.117  0.2108  0.8683 -0.3647
19804TIP3    H280828   2.816   0.810   1.995  0.7979 -0.6919 -0.2837
19805TIP3   OH280829   1.206   4.312   3.949 -0.3179  0.4895 -0.1539
19805TIP3    H180830   1.249   4.260   3.881 -0.2239 -0.4669  0.6208
19805TIP3    H280831   1.150   4.250   3.995 -0.9864  1.2987  0.1443
19806TIP3   OH280832   0.188   4.490  12.390  0.1861 -0.2660 -1.0047
19806TIP3    H180833   0.230   4.556  12.445 -0.9947  0.4196 -0.8888
19806TIP3    H280834   0.142   4.540  12.323 -1.4526 -0.8790 -0.3989
19807TIP3   OH280835   2.502   2.317  15.679  0.1851 -0.2810 -0.2896
19807TIP3    H180836   2.415   2.356  15.668  0.4988 -0.0276 -2.3104
19807TIP3    H280837   2.538   2.360  15.756 -1.3246 -0.1030  0.3515
19808TIP3   OH280838   0.918   2.994   3.859  0.2316  0.7728 -0.2778
19808TIP3    H180839   0.853   2.987   3.928  1.3976  1.6340  0.9548
19808TIP3    H280840   0.969   2.913   3.865 -0.2027  0.4560 -0.7271
19809TIP3   OH280841   0.533   1.075  14.013  0.1037  0.3320  0.2767
19809TIP3    H180842   0.471   1.118  14.072  0.4832  2.4150 -0.7436
19809TIP3    H280843   0.511   1.110  13.926  0.6914 -1.3055 -0.5622
19810TIP3   OH280844   0.142   5.149   5.025 -0.2123  0.1068 -0.0575
19810TIP3    H180845   0.121   5.241   5.034 -0.2573  0.3100 -1.7901
19810TIP3    H280846   0.224   5.138   5.073 -0.0877  1.0948 -0.0309
19811TIP3   OH280847   5.261   5.558   4.161  0.3598 -0.4467 -0.0737
19811TIP3    H180848   5.296   5.551   4.250 -0.4383  0.3140  0.3192
19811TIP3    H280849   5.265   5.651   4.141 -0.3917 -0.4835 -0.4452
19812TIP3   OH280850   2.996   1.230   0.276  0.0350 -0.2145  0.3320
19812TIP3    H180851   3.020   1.301   0.218  1.2060  0.3628  1.4815
19812TIP3    H280852   3.078   1.182   0.291 -0.5348 -1.2180  0.3813
19813TIP3   OH280853   3.131   5.725  11.279 -0.3647 -0.1941  0.0221
19813TIP3    H180854   3.057   5.751  11.334 -1.1426 -0.9092 -0.6639
19813TIP3    H280855   3.106   5.750  11.191  1.9997  3.4457  0.1895
19814TIP3   OH280856   3.379   4.172  11.568 -0.0817 -0.2065 -0.3768
19814TIP3    H180857   3.369   4.090  11.519 -2.3753 -0.1203 -0.1624
19814TIP3    H280858   3.465   4.206  11.540  0.8342 -2.5281 -0.6340
19815TIP3   OH280859   3.273   0.897  13.528 -0.4375  0.0510 -0.3631
19815TIP3    H180860   3.266   0.814  13.576 -0.7505  0.3563  0.1378
19815TIP3    H280861   3.209   0.889  13.458 -0.2353 -0.2583 -0.5164
19816TIP3   OH280862   4.539   0.824   2.618  0.0855 -0.0795  0.5959
19816TIP3    H180863   4.616   0.820   2.674 -0.2464 -2.6212  0.9693
19816TIP3    H280864   4.573   0.853   2.533  1.5819 -1.6083  0.6183
19817TIP3   OH280865   4.112   2.941   0.368  0.4480  0.2234 -0.2222
19817TIP3    H180866   4.181   2.955   0.303  2.6584  0.8816  2.1067
19817TIP3    H280867   4.152   2.965   0.451 -1.8372 -1.7489  1.5927
19818TIP3   OH280868   0.570   1.088   3.797 -0.7865 -0.0659 -0.3043
19818TIP3    H180869   0.568   1.132   3.882 -2.0922  1.0016 -0.8596
19818TIP3    H280870   0.659   1.051   3.792  0.8936  3.5779 -0.3292
19819TIP3   OH280871   3.102   1.322   2.889 -0.1457 -0.6425 -0.1214
19819TIP3    H180872   3.071   1.240   2.851 -0.1470  0.0190 -1.6091
19819TIP3    H280873   3.030   1.352   2.946 -0.7209 -0.9651 -0.6714
19820TIP3   OH280874   4.526   3.432   1.119 -0.5946 -0.3108  0.0583
19820TIP3    H180875   4.546   3.479   1.201 -0.7933 -1.6526  0.9016
19820TIP3    H280876   4.538   3.498   1.051  1.3479  0.3935  0.9984
19821TIP3   OH280877   4.074   6.095   5.643  0.0850 -0.0267  0.1524
19821TIP3    H180878   4.121   6.165   5.598 -0.8802 -0.4713 -1.6345
19821TIP3    H280879   4.120   6.015   5.617 -0.6592 -0.3144 -0.3236
19822TIP3   OH280880   2.771   3.550   1.568  0.2965  0.6481 -0.1735
19822TIP3    H180881   2.721   3.524   1.490  0.2462 -0.4480  0.2009
19822TIP3    H280882   2.719   3.618   1.609  0.6789  1.7644 -1.4805
19823TIP3   OH280883   5.752   0.331  14.833 -0.2560  0.0562  0.1396
19823TIP3    H180884   5.831   0.276  14.837  0.6207  1.0274 -2.1885
19823TIP3    H280885   5.736   0.343  14.740 -2.3708  1.0561  0.5826
19824TIP3   OH280886   1.883   0.571   5.982  0.1306  0.0902  0.6549
19824TIP3    H180887   1.890   0.479   6.010 -0.2782  0.0918  0.7693
19824TIP3    H280888   1.821   0.610   6.045  1.5939  0.8679  1.6783
19825TIP3   OH280889   4.469   5.746   6.088 -0.2600  0.0705 -0.4007
19825TIP3    H180890   4.454   5.732   6.182  3.9257 -1.3202  0.2484
19825TIP3    H280891   4.501   5.836   6.081  1.3363 -0.4485 -0.1276
19826TIP3   OH280892   2.256   1.790   2.260  0.2132 -0.3373  0.1378
19826TIP3    H180893   2.214   1.834   2.186 -0.0637  1.3104  1.2225
19826TIP3    H280894   2.208   1.708   2.270  0.1208 -0.4925 -1.3545
19827TIP3   OH280895   4.567   4.649  14.077 -0.1002 -0.5273 -0.8073
19827TIP3    H180896   4.517   4.582  14.030  0.9287 -1.0257 -1.2153
19827TIP3    H280897   4.613   4.696  14.008  1.2393 -1.1081 -0.3385
19828TIP3   OH280898   1.133   5.687   2.037  0.1982 -0.4399  0.2605
19828TIP3    H180899   1.138   5.766   2.090  2.3726 -0.8711  0.7897
19828TIP3    H280900   1.135   5.719   1.946 -1.2907  0.1917  0.4325
19829TIP3   OH280901   6.111   3.222  14.700 -0.4430  0.3838 -0.4703
19829TIP3    H180902   6.184   3.283  14.687 -0.7614  1.1512  1.0510
19829TIP3    H280903   6.034   3.271  14.669 -0.9598  1.5637  2.3348
19830TIP3   OH280904   5.843   0.022  13.682  0.5153  0.2888 -0.3511
19830TIP3    H180905   5.757  -0.012  13.708  1.1240  0.1113  1.5492
19830TIP3    H280906   5.838   0.116  13.698 -0.0518  0.6729 -2.4543
19831TIP3   OH280907   5.198   4.567   0.619 -0.0273  0.3221 -0.3535
19831TIP3    H180908   5.138   4.639   0.640 -2.1758 -1.3358 -0.4843
19831TIP3    H280909   5.280   4.611   0.594 -1.3972  2.7279 -0.9476
19832TIP3   OH280910   2.011   3.898  12.076 -0.4037  0.3345  0.2123
19832TIP3    H180911   2.100   3.934  12.075  0.0103 -0.6580 -1.0426
19832TIP3    H280912   1.979   3.918  12.164  1.6693 -0.6945  1.2927
19833TIP3   OH280913   5.103   6.071  17.262 -0.1760  0.1120 -0.1958
19833TIP3    H180914   5.015   6.085  17.297  0.1432  0.2724  0.5588
19833TIP3    H280915   5.121   5.978  17.277 -0.6857 -0.2076 -1.4624
19834TIP3   OH280916   2.644   1.090   3.582  0.3852 -0.1982 -0.6374
19834TIP3    H180917   2.629   1.103   3.488  0.1326 -0.8319 -0.6888
19834TIP3    H280918   2.557   1.096   3.621  0.6195  1.2849 -0.2745
19835TIP3   OH280919   5.257   5.656  16.983 -0.5481  0.1112  0.2282
19835TIP3    H180920   5.250   5.752  16.987 -1.7937 -0.0086  1.8147
19835TIP3    H280921   5.189   5.631  16.921 -0.1636  0.2498 -0.2554
19836TIP3   OH280922   6.709   2.560   4.324  0.1512 -0.2067 -0.5738
19836TIP3    H180923   6.715   2.656   4.327 -2.4975  0.0211  0.2882
19836TIP3    H280924   6.685   2.541   4.233  1.2059 -0.1328 -0.8823
19837TIP3   OH280925   4.748   0.160  16.896 -0.2108 -0.3431  0.4827
19837TIP3    H180926   4.781   0.143  16.808  1.3462  1.4613  0.6664
19837TIP3    H280927   4.808   0.111  16.953 -0.1138 -0.0644  0.6219
19838TIP3   OH280928   0.979   5.596   4.418 -0.0206 -0.0353 -0.2962
19838TIP3    H180929   0.936   5.657   4.478  2.0625  1.1534  0.0898
19838TIP3    H280930   0.927   5.602   4.337 -0.4552  1.5048  0.0565
19839TIP3   OH280931   1.088   3.136  14.552 -0.4244  0.2197  0.6262
19839TIP3    H180932   1.059   3.109  14.465 -0.3099 -1.2390  1.0049
19839TIP3    H280933   1.152   3.070  14.578  0.4047  1.2727  1.3587
19840TIP3   OH280934   2.449   3.499   1.161  0.4423  0.0788  0.8947
19840TIP3    H180935   2.505   3.480   1.237  0.8778 -0.4044  0.4559
19840TIP3    H280936   2.451   3.419   1.109  0.4296  0.5310  0.1890
19841TIP3   OH280937   1.326   3.269  13.140 -0.3392 -0.0805 -0.7987
19841TIP3    H180938   1.321   3.356  13.179  3.2582 -0.5220  1.1336
19841TIP3    H280939   1.288   3.211  13.206  0.5061 -0.2758 -0.4710
19842TIP3   OH280940   1.859   3.585  14.267  0.4778 -0.1614 -0.1792
19842TIP3    H180941   1.788   3.527  14.292  1.0851 -1.1207 -0.6156
19842TIP3    H280942   1.816   3.663  14.231 -0.3734  0.4725  2.0646
19843TIP3   OH280943   1.017   0.938   2.406 -0.3464 -0.5662  0.0627
19843TIP3    H180944   0.955   0.915   2.474 -0.4972 -1.2469 -0.2981
19843TIP3    H280945   0.975   0.910   2.324 -0.0036 -0.1153 -0.2723
19844TIP3   OH280946   0.300   0.175  14.005 -0.3908 -0.1391  0.3675
19844TIP3    H180947   0.222   0.168  13.949 -1.0924 -1.4324  1.4190
19844TIP3    H280948   0.319   0.268  14.008 -0.0027 -0.0430 -2.3996
19845TIP3   OH280949   0.453   2.120  13.913 -0.0408  0.5884  0.3822
19845TIP3    H180950   0.388   2.102  13.845  0.4991  1.5385 -0.4082
19845TIP3    H280951   0.483   2.033  13.941 -0.4380  0.1777 -0.4338
19846TIP3   OH280952   5.967   2.442  12.373  0.1625 -0.2125  0.2398
19846TIP3    H180953   5.895   2.379  12.367 -0.2315  0.2846 -0.4130
19846TIP3    H280954   6.025   2.406  12.440 -0.6677 -0.6451  0.7440
19847TIP3   OH280955   5.489   3.551   0.420  0.2627  0.3145  0.5536
19847TIP3    H180956   5.545   3.523   0.493  0.2519  0.3464  0.5740
19847TIP3    H280957   5.549   3.595   0.360  0.6128 -1.2803 -0.3108
19848TIP3   OH280958   1.897   3.180  17.141 -0.1804 -0.3019  0.3473
19848TIP3    H180959   1.826   3.214  17.196  0.2513 -1.0265  1.3724
19848TIP3    H280960   1.906   3.089  17.168  0.6770 -0.4072 -0.2728
19849TIP3   OH280961   1.785   1.726  12.456  0.0563  0.3870 -0.1896
19849TIP3    H180962   1.851   1.723  12.525  0.1589 -0.2402 -0.3055
19849TIP3    H280963   1.785   1.817  12.427 -0.1952  0.7253  0.8303
19850TIP3   OH280964   4.625   3.031  15.937 -0.0136 -0.0786  0.0732
19850TIP3    H180965   4.700   3.091  15.936 -1.1998  1.4861 -0.8099
19850TIP3    H280966   4.634   2.981  15.856 -0.8499  1.4096 -0.9940
19851TIP3   OH280967   0.451   2.425   2.047  0.1740  0.0731  0.1080
19851TIP3    H180968   0.464   2.340   2.005 -1.0277 -0.2099  0.2661
19851TIP3    H280969   0.540   2.459   2.061  0.8748 -2.5726  3.0181
19852TIP3   OH280970   3.529   1.972   2.967  0.1033 -0.0168  0.1940
19852TIP3    H180971   3.467   2.012   3.028  0.2141 -2.9862  2.4711
19852TIP3    H280972   3.614   1.976   3.011  1.1372  1.6567 -1.7511
19853TIP3   OH280973   0.769   3.365   0.358  0.7506  0.0345  0.4753
19853TIP3    H180974   0.686   3.336   0.394  0.3642  1.4945  0.7928
19853TIP3    H280975   0.758   3.458   0.341  0.9035 -0.4573 -3.3860
19854TIP3   OH280976   4.069   1.759   2.607 -0.4252 -0.0465  0.0809
19854TIP3    H180977   3.996   1.698   2.623 -0.5130 -0.6263 -2.2298
19854TIP3    H280978   4.027   1.838   2.574 -0.0368 -0.5317 -1.6656
19855TIP3   OH280979   4.522   5.140   3.198  0.1732 -0.2724 -0.2499
19855TIP3    H180980   4.482   5.216   3.241  2.3424  0.0661  1.3098
19855TIP3    H280981   4.462   5.068   3.216 -1.1946  0.7583 -0.5154
19856TIP3   OH280982   2.736   1.253  11.605 -0.5387 -0.0405  0.2106
19856TIP3    H180983   2.824   1.289  11.613 -0.3574  0.3948 -2.5038
19856TIP3    H280984   2.704   1.245  11.695  1.7548  1.0375  1.1983
19857TIP3   OH280985   5.277   6.320  12.267 -0.0215  0.0092 -0.3355
19857TIP3    H180986   5.183   6.304  12.275  0.1155 -1.3718 -1.1850
19857TIP3    H280987   5.290   6.407  12.305 -1.1692 -0.9981  2.6843
19858TIP3   OH280988   3.973   1.465  13.849 -0.0669  0.4166  0.0923
19858TIP3    H180989   3.887   1.490  13.883  0.1017  1.6840 -0.3367
19858TIP3    H280990   3.980   1.371  13.867 -1.3948  0.3603  0.4289
19859TIP3   OH280991   6.575   1.953   2.914 -0.4685 -0.5209 -0.0326
19859TIP3    H180992   6.668   1.950   2.892 -0.1861  0.6824  0.8782
19859TIP3    H280993   6.572   2.002   2.997 -1.9576  0.0091 -0.3757
19860TIP3   OH280994   2.187   0.001  16.709 -0.1047 -0.2457  0.2402
19860TIP3    H180995   2.253   0.067  16.730 -0.7866  0.6825 -0.4308
19860TIP3    H280996   2.237  -0.078  16.690  0.8053  0.3662 -0.0094
19861TIP3   OH280997   0.690   4.866  16.776 -0.0687  0.7993 -0.7722
19861TIP3    H180998   0.712   4.957  16.798 -1.2139  1.6065 -2.6854
19861TIP3    H280999   0.594   4.866  16.770 -0.2175 -0.9647  0.7725
19862TIP3   OH281000   6.671   3.197  12.406 -1.1218 -0.1991  0.5395
19862TIP3    H181001   6.587   3.228  12.440 -1.5355 -1.5745  0.8020
19862TIP3    H281002   6.689   3.116  12.453  0.1270 -0.1847  0.1420
19863TIP3   OH281003   1.011   2.169   2.476  0.6028  0.1974  0.0952
19863TIP3    H181004   0.989   2.104   2.542 -1.7670 -0.1369 -0.9123
19863TIP3    H281005   1.040   2.118   2.400  0.5093  0.4133 -0.0886
19864TIP3   OH281006   2.691   5.671  11.317 -0.4625  0.3274 -0.3983
19864TIP3    H181007   2.603   5.672  11.353 -0.1587 -0.3303  0.4060
19864TIP3    H281008   2.690   5.599  11.253 -0.0973 -0.7297  0.7492
19865TIP3   OH281009   6.575   0.951  13.349  0.1139 -0.1988 -0.3942
19865TIP3    H181010   6.548   0.917  13.435  1.5266  1.0969  0.6168
19865TIP3    H281011   6.671   0.947  13.350  0.1531 -0.3312 -2.0050
19866TIP3   OH281012   3.530   5.152   6.258  0.3685  0.1734 -0.1366
19866TIP3    H181013   3.534   5.149   6.354 -1.8127  0.2088  0.0149
19866TIP3    H281014   3.535   5.061   6.230 -2.6185 -0.2337  0.3167
19867TIP3   OH281015   1.357   1.442   3.306 -0.0211 -0.3515 -0.6424
19867TIP3    H181016   1.377   1.536   3.301 -1.6672  0.0461 -0.3985
19867TIP3    H281017   1.441   1.401   3.326  0.8692  0.9950 -1.4152
19868TIP3   OH281018   5.413   5.011   1.094 -0.2266  0.7264 -0.1770
19868TIP3    H181019   5.433   4.957   1.171  0.9738  2.5924  0.8948
19868TIP3    H281020   5.463   4.970   1.023 -1.8337 -1.3855 -0.1778
19869TIP3   OH281021   1.547   2.820   0.738  0.0564  0.1411  0.1972
19869TIP3    H181022   1.558   2.735   0.780 -0.5084  1.5104  3.3943
19869TIP3    H281023   1.635   2.855   0.730  0.1747 -0.1509  0.2200
19870TIP3   OH281024   1.984   3.633   6.689 -0.0148 -0.2156 -0.3451
19870TIP3    H181025   2.079   3.647   6.695 -0.2665  1.0042  1.5735
19870TIP3    H281026   1.949   3.718   6.662 -0.6600 -0.2433  0.3642
19871TIP3   OH281027   1.082   0.933   5.581  0.2226 -0.3357  0.9651
19871TIP3    H181028   1.002   0.928   5.633 -0.6564  1.1248 -0.1941
19871TIP3    H281029   1.146   0.976   5.639 -0.9817  2.0463  0.6466
19872TIP3   OH281030   5.770   5.561  15.620  0.8039 -0.2432  0.3180
19872TIP3    H181031   5.771   5.594  15.710  0.7972  1.1839 -0.1725
19872TIP3    H281032   5.861   5.540  15.601  1.2798  2.0256 -0.1972
19873TIP3   OH281033   6.206   6.338  11.487 -0.4458  0.6861 -0.9933
19873TIP3    H181034   6.212   6.432  11.505 -2.4374  0.6812  0.0303
19873TIP3    H281035   6.264   6.297  11.552 -0.2532  1.1630 -0.8622
19874TIP3   OH281036   3.183   6.493   0.209 -0.6632  0.2365  1.3142
19874TIP3    H181037   3.091   6.465   0.205 -0.4987 -0.1578 -0.8715
19874TIP3    H281038   3.232   6.416   0.179  0.3983  0.4810  2.3497
19875TIP3   OH281039   2.404   5.611   0.682 -0.4058 -0.0126 -0.0373
19875TIP3    H181040   2.498   5.592   0.690 -0.2822  0.4406 -0.4331
19875TIP3    H281041   2.393   5.646   0.594 -1.1230 -1.0501 -0.3870
19876TIP3   OH281042   3.046   2.466   2.483  0.3603  0.4214 -0.0490
19876TIP3    H181043   3.104   2.476   2.407  1.2168 -0.7558  0.4179
19876TIP3    H281044   2.966   2.427   2.447  0.6888  0.0509 -0.3875
19877TIP3   OH281045   4.196   0.407   4.393  0.1348  0.5611  0.0611
19877TIP3    H181046   4.229   0.332   4.443  1.5411  2.1078  1.5563
19877TIP3    H281047   4.102   0.389   4.384  0.2006 -0.7592  1.5194
19878TIP3   OH281048   3.677   2.627  14.998 -0.0312 -0.2037  0.1694
19878TIP3    H181049   3.641   2.715  15.003 -0.9808 -0.6292  1.1977
19878TIP3    H281050   3.607   2.570  15.031  0.9740 -1.2260  0.6094
19879TIP3   OH281051   0.973   3.850   5.745  0.0676 -0.0336 -0.4304
19879TIP3    H181052   0.939   3.800   5.819 -2.5380  0.5733 -1.1359
19879TIP3    H281053   1.049   3.896   5.781  0.3778 -1.6714  1.1625
19880TIP3   OH281054   5.940   2.181   2.620 -0.1675  0.6200 -0.0219
19880TIP3    H181055   5.996   2.104   2.608 -2.2403 -0.6418 -2.6948
19880TIP3    H281056   5.897   2.166   2.704  0.5910 -0.3544  0.2164
19881TIP3   OH281057   0.162   3.331  13.787 -0.1168  0.1514 -0.3537
19881TIP3    H181058   0.226   3.290  13.845 -1.7355  0.1456  1.5179
19881TIP3    H281059   0.178   3.425  13.796 -0.3226  0.1474  0.0696
19882TIP3   OH281060   4.317   4.565   1.882 -0.2484 -0.4239 -0.0021
19882TIP3    H181061   4.236   4.545   1.836 -0.6871 -0.7547  0.8834
19882TIP3    H281062   4.304   4.653   1.917 -0.0475 -0.2992 -0.2432
19883TIP3   OH281063   2.146   2.046  14.241 -0.3815 -0.9811  0.0421
19883TIP3    H181064   2.232   2.056  14.201 -1.5161  2.6118 -2.0075
19883TIP3    H281065   2.164   2.031  14.334  2.4982  0.5574 -0.1578
19884TIP3   OH281066   2.064   5.978  15.687 -0.1041  0.0106  0.3044
19884TIP3    H181067   2.132   5.980  15.755 -0.9731  2.2300  1.1870
19884TIP3    H281068   2.072   6.062  15.643 -2.5269  0.5204  0.7157
19885TIP3   OH281069   5.910   2.975   4.124 -0.2546 -0.0778  0.1562
19885TIP3    H181070   5.912   3.025   4.205 -0.8531 -2.1121  1.5163
19885TIP3    H281071   5.817   2.955   4.109 -0.1464  0.1657 -0.9747
19886TIP3   OH281072   4.834   3.152   2.148  0.1384 -0.2739  0.3077
19886TIP3    H181073   4.787   3.092   2.089  1.0078 -0.1088 -0.5740
19886TIP3    H281074   4.908   3.183   2.097  0.8444 -0.0135  1.4525
19887TIP3   OH281075   0.467   2.722  10.598  0.1539  0.2713 -0.0722
19887TIP3    H181076   0.508   2.752  10.679 -1.1105 -1.0374  1.1278
19887TIP3    H281077   0.503   2.635  10.583  1.9210  1.2579 -2.1299
19888TIP3   OH281078   3.594   2.040  16.828 -0.4385 -0.1098 -0.4655
19888TIP3    H181079   3.503   2.064  16.807  0.0237  0.0861 -2.3932
19888TIP3    H281080   3.640   2.044  16.745  1.2753 -0.6245  0.4101
19889TIP3   OH281081   3.259   2.477  14.962 -0.3176  0.5725 -0.0196
19889TIP3    H181082   3.256   2.573  14.956  0.0942  0.5534 -0.5370
19889TIP3    H281083   3.347   2.453  14.932 -0.4500  0.0236  0.0183
19890TIP3   OH281084   5.046   0.880  16.943 -0.2729  0.1538  0.5201
19890TIP3    H181085   5.107   0.815  16.977 -1.3898 -0.4507  1.4120
19890TIP3    H281086   5.067   0.960  16.992 -1.3435 -0.5088  2.1260
19891TIP3   OH281087   6.403   1.356  12.203  0.2754  0.4756 -0.9030
19891TIP3    H181088   6.377   1.268  12.175  0.9611  0.6466 -2.1857
19891TIP3    H281089   6.404   1.407  12.122  0.1457  1.6037 -0.2111
19892TIP3   OH281090   5.543   1.685  11.791  0.4613 -0.3376  0.5166
19892TIP3    H181091   5.574   1.601  11.823 -0.3073 -0.4394  1.0349
19892TIP3    H281092   5.596   1.703  11.713 -0.2213 -1.9088 -0.3609
19893TIP3   OH281093   2.825   4.260   5.854 -0.1926  0.0656 -0.1693
19893TIP3    H181094   2.886   4.197   5.892 -0.8970  0.9852  2.7888
19893TIP3    H281095   2.739   4.221   5.865 -0.4974  0.8031  0.1408
19894TIP3   OH281096   0.781   4.874   6.297  0.2100  0.1948 -0.4805
19894TIP3    H181097   0.834   4.844   6.371  0.0282 -1.6618 -1.0520
19894TIP3    H281098   0.692   4.879   6.333 -0.2806 -2.8598 -1.0231
19895TIP3   OH281099   6.213   4.730  15.757 -0.2797 -0.2550  0.6197
19895TIP3    H181100   6.133   4.764  15.796 -0.5895 -2.5907  2.1733
19895TIP3    H281101   6.203   4.747  15.663 -2.5052 -0.3340  0.8012
19896TIP3   OH281102   5.400   5.278  10.566 -0.0737  0.3034 -0.3035
19896TIP3    H181103   5.319   5.321  10.592 -0.2065 -0.3993  0.4789
19896TIP3    H281104   5.468   5.322  10.617 -0.2472 -0.5842  0.7422
19897TIP3   OH281105   0.803   3.877  15.027  0.4201 -0.1359 -0.4129
19897TIP3    H181106   0.896   3.869  15.006  0.2676 -0.1917 -1.0851
19897TIP3    H281107   0.765   3.793  15.001  0.2124 -0.1981  0.0688
19898TIP3   OH281108   1.080   5.532  13.833 -0.5724 -0.7766  0.4645
19898TIP3    H181109   1.176   5.539  13.829 -0.5609 -0.9629  0.4036
19898TIP3    H281110   1.061   5.507  13.923 -0.5850 -0.4304  0.5604
19899TIP3   OH281111   2.223   3.058   1.687  0.0044  0.4382  0.5970
19899TIP3    H181112   2.215   3.101   1.601 -0.4308  0.8500  0.8408
19899TIP3    H281113   2.289   2.990   1.673  1.9142  2.1964  0.6000
19900TIP3   OH281114   5.383   0.758   4.993  0.0481  0.1552 -0.2096
19900TIP3    H181115   5.331   0.839   4.999  0.9619  0.6549  1.7492
19900TIP3    H281116   5.473   0.789   4.979  0.6904 -0.3662  2.2759
19901TIP3   OH281117   4.388   0.576   3.489 -0.5966  0.4285 -0.2670
19901TIP3    H181118   4.317   0.584   3.552  0.7002 -1.2038  1.4869
19901TIP3    H281119   4.436   0.659   3.497 -0.6970  0.4135  0.5551
19902TIP3   OH281120   0.549   3.882  14.237  0.3827 -0.3623  0.2439
19902TIP3    H181121   0.529   3.971  14.207 -0.2809 -0.3287  0.7765
19902TIP3    H281122   0.552   3.830  14.156 -0.2765 -0.0578  0.0170
19903TIP3   OH281123   6.415   0.049  17.286  0.1665 -0.2543 -0.9002
19903TIP3    H181124   6.497   0.097  17.274 -0.9686  1.7778 -1.1295
19903TIP3    H281125   6.406   0.041  17.381 -0.9086  2.5678 -0.6578
19904TIP3   OH281126   1.251   2.956  13.863 -0.4516 -0.2725  0.2054
19904TIP3    H181127   1.160   2.933  13.844 -0.1262 -1.7696  0.3514
19904TIP3    H281128   1.296   2.945  13.779 -0.4319  0.7153  0.0715
19905TIP3   OH281129   2.352   1.124   3.942  0.1262  0.1772  0.1298
19905TIP3    H181130   2.415   1.170   3.997  0.3101 -0.2509  0.2865
19905TIP3    H281131   2.384   1.033   3.940 -0.3980 -0.0101  0.0765
19906TIP3   OH281132   4.950   0.318   4.215 -0.3923 -0.1608 -0.4722
19906TIP3    H181133   5.002   0.392   4.182 -2.3553  1.5454  0.0277
19906TIP3    H281134   4.950   0.330   4.310 -0.1087 -1.2863 -0.3207
19907TIP3   OH281135   4.659   0.748  16.104  0.3748  0.3002 -0.3403
19907TIP3    H181136   4.579   0.792  16.130  0.1805 -0.8079  1.0573
19907TIP3    H281137   4.726   0.782  16.162  1.2977  2.2890 -2.4316
19908TIP3   OH281138   3.711   2.819  14.149  0.6351 -0.2342 -0.2836
19908TIP3    H181139   3.736   2.771  14.228 -1.2538 -1.5290 -0.4059
19908TIP3    H281140   3.722   2.911  14.172  0.7360 -0.6101  1.2726
19909TIP3   OH281141   1.910   1.595  15.268 -0.2246  0.5539  0.8524
19909TIP3    H181142   1.826   1.629  15.301 -0.7540  0.5664 -0.4394
19909TIP3    H281143   1.939   1.533  15.334 -0.6073  1.5156  1.9500
19910TIP3   OH281144   0.289   2.182  12.772 -0.4045  0.4893  0.1638
19910TIP3    H181145   0.247   2.200  12.688 -0.5630  0.6346  0.2737
19910TIP3    H281146   0.219   2.144  12.826 -0.1832 -0.0493  0.0743
19911TIP3   OH281147   1.066   2.508  14.778 -0.2078 -0.4464  0.1220
19911TIP3    H181148   1.001   2.500  14.709  1.9940 -3.5339 -1.8371
19911TIP3    H281149   1.112   2.590  14.759 -1.2886  0.0377 -0.4649
19912TIP3   OH281150   3.328   5.140   3.779 -0.3558  0.0244  0.1678
19912TIP3    H181151   3.403   5.199   3.770  0.3979 -0.6645  1.5874
19912TIP3    H281152   3.365   5.058   3.811 -1.5456 -0.8373 -0.5422
19913TIP3   OH281153   0.811   4.306  17.242  0.7960  0.0380 -0.3140
19913TIP3    H181154   0.718   4.286  17.230  0.7289  1.0310 -1.6905
19913TIP3    H281155   0.827   4.290  17.334 -0.0177 -3.0276 -0.6133
19914TIP3   OH281156   5.934   4.637  17.269 -0.0875 -0.1310 -0.0027
19914TIP3    H181157   5.894   4.558  17.233 -1.4574  0.5701 -0.0925
19914TIP3    H281158   5.935   4.699  17.195 -0.5250  0.4636  0.4786
19915TIP3   OH281159   3.305   2.121   2.454 -0.0451  0.1817 -0.3161
19915TIP3    H181160   3.315   2.039   2.503 -1.2316  0.1149 -0.1759
19915TIP3    H281161   3.372   2.179   2.492 -0.0238 -0.3141  0.4358
19916TIP3   OH281162   4.109   6.545  17.049 -0.2977 -0.2371  0.0987
19916TIP3    H181163   4.018   6.566  17.024 -0.6975 -0.3530  1.3999
19916TIP3    H281164   4.123   6.594  17.130  0.6348 -0.6396  0.1824
19917TIP3   OH281165   0.450   6.258   5.016 -0.1950 -0.1365  0.1973
19917TIP3    H181166   0.492   6.198   4.955 -0.7137 -0.4996  0.1946
19917TIP3    H281167   0.498   6.245   5.098 -0.7599 -1.0719  0.3885
19918TIP3   OH281168   3.472   4.497   1.746  0.2146 -0.1669 -0.1880
19918TIP3    H181169   3.535   4.555   1.702 -1.1556  1.0760 -0.6027
19918TIP3    H281170   3.526   4.441   1.801  1.6107  1.9713  0.7740
19919TIP3   OH281171   2.307   3.694   1.027  0.0570  0.1247 -0.5606
19919TIP3    H181172   2.336   3.772   1.075  1.3207  0.1973 -1.4008
19919TIP3    H281173   2.360   3.623   1.062  0.5460  0.0676 -1.4098
19920TIP3   OH281174   5.914   1.073  14.533 -0.2787 -0.1428  0.3967
19920TIP3    H181175   5.824   1.042  14.546 -0.3249 -1.3429 -2.2503
19920TIP3    H281176   5.910   1.124  14.452  1.5767 -0.9248 -0.2223
19921TIP3   OH281177   1.363   2.546  17.066  0.0474  0.7903  0.2157
19921TIP3    H181178   1.277   2.562  17.106 -0.9686 -1.6886 -0.8066
19921TIP3    H281179   1.398   2.634  17.050 -1.8762  1.8737  1.5048
19922TIP3   OH281180   2.894   5.753   3.983 -0.5938 -0.4537 -0.5537
19922TIP3    H181181   2.854   5.676   3.942  0.0107 -2.3005  2.0286
19922TIP3    H281182   2.901   5.729   4.076  3.8248  0.8696 -0.3351
19923TIP3   OH281183   2.404   1.785   1.275  0.1748 -0.2471 -0.3848
19923TIP3    H181184   2.397   1.796   1.180 -0.2323 -1.3545 -0.4977
19923TIP3    H281185   2.320   1.748   1.301  0.3444 -0.0917  0.3829
19924TIP3   OH281186   6.326   4.173   0.311 -0.0663 -0.0237 -0.0226
19924TIP3    H181187   6.394   4.121   0.268 -2.2370 -2.3004 -0.8971
19924TIP3    H281188   6.316   4.250   0.255  0.3045 -0.7144 -1.0721
19925TIP3   OH281189   4.901   4.816  14.560  0.3352 -0.0707  0.1191
19925TIP3    H181190   4.904   4.911  14.549  1.6732 -0.1264 -0.1645
19925TIP3    H281191   4.831   4.802  14.624 -2.0782  0.8625 -2.0877
19926TIP3   OH281192   3.496   1.350   4.415 -0.2104 -0.2756 -0.0619
19926TIP3    H181193   3.432   1.386   4.354  0.3745  1.4813  0.3021
19926TIP3    H281194   3.448   1.340   4.497 -0.7095 -1.5912 -0.4962
19927TIP3   OH281195   6.637   3.229   5.938  0.3105 -0.1546  0.6158
19927TIP3    H181196   6.720   3.194   5.968  0.6721  0.9464  0.9192
19927TIP3    H281197   6.660   3.306   5.887 -0.5683  0.8581  1.6905
19928TIP3   OH281198   4.521   1.816  11.082  0.5426 -0.0958 -0.0172
19928TIP3    H181199   4.436   1.847  11.114  1.5221  1.6299  1.0585
19928TIP3    H281200   4.499   1.746  11.021 -1.7993  1.8294 -1.6082
19929TIP3   OH281201   3.387   5.817  13.409  0.6088 -0.2105  0.0441
19929TIP3    H181202   3.335   5.777  13.339  0.5348 -3.0426  1.5791
19929TIP3    H281203   3.325   5.828  13.481  1.6039 -1.7210  1.2011
19930TIP3   OH281204   3.289   1.803  14.457 -0.6723 -0.5539 -0.3339
19930TIP3    H181205   3.205   1.812  14.412  0.1195 -0.9868 -1.9459
19930TIP3    H281206   3.275   1.731  14.519 -1.9004  0.3248  0.4554
19931TIP3   OH281207   6.589   6.396  11.713 -0.0737  0.5300  0.3428
19931TIP3    H181208   6.511   6.433  11.753 -0.1128  0.6911  0.1222
19931TIP3    H281209   6.556   6.340  11.642 -0.0257 -0.1084  0.8110
19932TIP3   OH281210   6.019   3.430   4.975 -0.4661  0.2857  0.0164
19932TIP3    H181211   6.047   3.341   4.994 -0.1643  0.4220  0.2218
19932TIP3    H281212   6.076   3.459   4.903 -0.6795  0.2517 -0.1666
19933TIP3   OH281213   3.482   1.002  16.660 -0.1563 -0.3235 -0.7861
19933TIP3    H181214   3.386   1.009  16.653 -0.0361 -0.1647 -2.6739
19933TIP3    H281215   3.512   0.986  16.571  1.6107 -0.1684 -0.2606
19934TIP3   OH281216   2.041   4.790  13.349 -0.1148  0.0833  0.2146
19934TIP3    H181217   2.131   4.769  13.324  0.0917  0.7955  0.3354
19934TIP3    H281218   2.013   4.855  13.284 -0.8657 -0.7998 -0.3709
19935TIP3   OH281219   4.395   3.761   5.050 -0.1355 -0.1701 -0.0526
19935TIP3    H181220   4.389   3.686   5.109  0.6480 -0.8425 -0.7988
19935TIP3    H281221   4.310   3.806   5.059 -0.3785 -0.8027  0.8514
19936TIP3   OH281222   0.378   5.228  14.299 -0.6333  0.5194 -0.7405
19936TIP3    H181223   0.459   5.274  14.275  0.1603 -0.6874 -0.4846
19936TIP3    H281224   0.328   5.293  14.348  0.0445  1.3891 -1.1645
19937TIP3   OH281225   1.570   4.874  15.958  0.0952  0.5623 -0.3242
19937TIP3    H181226   1.664   4.852  15.961 -0.6129 -3.3348 -0.8487
19937TIP3    H281227   1.550   4.878  15.865 -0.3072  1.2094 -0.2126
19938TIP3   OH281228   1.126   4.883  11.256 -0.0627 -0.3015  0.0614
19938TIP3    H181229   1.157   4.792  11.256 -0.6623 -0.5125  0.3590
19938TIP3    H281230   1.199   4.933  11.294  0.4316 -0.5962 -0.4874
19939TIP3   OH281231   4.816   2.830   2.887 -0.5196 -0.1424  0.3641
19939TIP3    H181232   4.726   2.807   2.862  0.1804 -3.5712  0.4953
19939TIP3    H281233   4.830   2.784   2.970  2.4807 -3.0032 -1.5130
19940TIP3   OH281234   4.040   3.632   0.258 -0.4999 -0.3781 -0.2462
19940TIP3    H181235   4.094   3.654   0.181  1.4470 -3.6553  0.0237
19940TIP3    H281236   4.056   3.704   0.319 -0.9317  1.5609 -2.2608
19941TIP3   OH281237   3.728   4.138  16.491  0.2239 -0.1390 -0.0714
19941TIP3    H181238   3.713   4.066  16.429  0.2749  0.5183 -0.8787
19941TIP3    H281239   3.650   4.192  16.483  0.6463  0.4585 -0.2913
19942TIP3   OH281240   2.407   0.443   2.586 -0.4560 -0.4668 -0.1009
19942TIP3    H181241   2.382   0.503   2.515 -0.8306  1.8279  1.8313
19942TIP3    H281242   2.325   0.428   2.633  0.1896  0.0201  1.2190
19943TIP3   OH281243   5.000   5.334   4.190  0.3953  0.0791 -0.0542
19943TIP3    H181244   5.010   5.279   4.112  0.0383 -1.4747  0.9311
19943TIP3    H281245   5.060   5.296   4.253  0.8968  1.5003  0.3556
19944TIP3   OH281246   3.228   3.017   2.130  0.1111  0.2601 -0.0352
19944TIP3    H181247   3.287   3.041   2.059  1.8453 -0.0032  1.2588
19944TIP3    H281248   3.201   2.927   2.109  0.6346  0.1733 -0.3485
19945TIP3   OH281249   2.946   1.527   1.594 -0.2703 -0.2799 -0.4596
19945TIP3    H181250   2.961   1.502   1.685 -1.6504  2.1897  0.5638
19945TIP3    H281251   2.965   1.621   1.591 -1.9582  0.0947 -2.2452
19946TIP3   OH281252   3.426   2.864   1.952 -0.3360 -0.4542 -0.4320
19946TIP3    H181253   3.375   2.783   1.944 -3.1147  1.2440 -1.2747
19946TIP3    H281254   3.371   2.931   1.912  1.7735  1.9239  0.4033
19947TIP3   OH281255   4.817   3.683   6.165 -0.0140  0.2017  0.0303
19947TIP3    H181256   4.871   3.606   6.185  0.3613 -0.2621 -2.3969
19947TIP3    H281257   4.818   3.735   6.245  2.7659 -0.5347  0.5817
19948TIP3   OH281258   5.089   5.522   4.912  0.2336 -0.3610  0.0441
19948TIP3    H181259   5.117   5.609   4.941 -0.8514 -0.4769  1.5647
19948TIP3    H281260   5.068   5.533   4.819  1.7012  0.5818 -0.2080
19949TIP3   OH281261   3.576   3.253   6.585 -0.1559  0.5486 -0.4017
19949TIP3    H181262   3.497   3.236   6.534  1.2657 -0.0915 -2.5486
19949TIP3    H281263   3.605   3.167   6.614 -0.3884  0.8139  0.6770
19950TIP3   OH281264   6.439   0.937   5.527 -0.2213 -0.5443  0.0281
19950TIP3    H181265   6.510   0.882   5.497 -0.7455 -0.1850 -2.0370
19950TIP3    H281266   6.468   0.971   5.611  2.1782 -0.1729 -0.8818
19951TIP3   OH281267   4.474   5.360   5.465  0.1611 -0.1761  0.6349
19951TIP3    H181268   4.493   5.446   5.429 -1.4626 -0.4984 -1.1143
19951TIP3    H281269   4.485   5.371   5.560 -1.3376  2.3302  0.5920
19952TIP3   OH281270   1.393   3.690   1.354 -0.1152  0.1565 -0.5193
19952TIP3    H181271   1.350   3.708   1.437 -2.6650  0.0072 -1.7061
19952TIP3    H281272   1.392   3.595   1.347  2.4827 -0.0066  0.3836
19953TIP3   OH281273   6.451   5.036   3.756 -0.4491  0.2699 -0.0492
19953TIP3    H181274   6.378   4.983   3.726  0.7989 -0.8310 -1.2951
19953TIP3    H281275   6.474   5.001   3.841  1.4902 -2.5523 -1.5681
19954TIP3   OH281276   6.633   2.050  14.875 -0.0540 -0.0207  0.0734
19954TIP3    H181277   6.719   2.011  14.863 -0.4156 -1.5504  1.9912
19954TIP3    H281278   6.650   2.144  14.887  1.4486 -0.4226  1.2841
19955TIP3   OH281279   1.948   5.910  17.056 -0.5882 -0.3946  0.4226
19955TIP3    H181280   1.997   5.827  17.051 -1.5049 -0.8777 -1.7235
19955TIP3    H281281   1.931   5.933  16.965 -1.0335  1.7862  1.0075
19956TIP3   OH281282   2.202   1.057   5.811 -0.3287  0.5571 -0.4663
19956TIP3    H181283   2.169   1.108   5.737  0.9337  0.2952 -1.2182
19956TIP3    H281284   2.296   1.072   5.811 -0.1164 -0.6518  0.1616
19957TIP3   OH281285   3.687   0.735   4.645 -0.2920  0.1923 -0.8600
19957TIP3    H181286   3.593   0.753   4.644 -0.4098 -0.4249 -1.3562
19957TIP3    H281287   3.715   0.758   4.733 -0.6227  1.8218 -1.1518
19958TIP3   OH281288   6.556   1.288  13.606  0.2939 -0.1031 -0.4918
19958TIP3    H181289   6.593   1.375  13.619 -1.0399  0.1573  2.1843
19958TIP3    H281290   6.471   1.304  13.565  0.0767 -0.1558 -0.0593
19959TIP3   OH281291   3.680   0.289   4.275 -0.0219  0.5525 -0.0869
19959TIP3    H181292   3.636   0.353   4.218  1.5959  0.0757 -1.9733
19959TIP3    H281293   3.745   0.247   4.218  0.4928 -1.1988  1.6932
19960TIP3   OH281294   6.567   3.917   4.067  0.4846 -0.5412  0.0484
19960TIP3    H181295   6.482   3.956   4.085  0.5904 -0.7593  1.0704
19960TIP3    H281296   6.617   3.986   4.022  0.5000  0.3495  1.3739
19961TIP3   OH281297   5.894   4.835   5.464  0.1097  0.1145 -0.3497
19961TIP3    H181298   5.942   4.781   5.526  0.0895  2.8765  2.2660
19961TIP3    H281299   5.825   4.777   5.431  0.6056 -1.7161  1.5816
19962TIP3   OH281300   4.709   5.202   5.313  0.0691  0.5593 -0.1159
19962TIP3    H181301   4.670   5.117   5.295  1.3441  0.0101 -0.3684
19962TIP3    H281302   4.674   5.259   5.244  0.1302 -0.0508 -0.6620
19963TIP3   OH281303   5.477   1.596  12.614  0.7959  0.0442 -0.1000
19963TIP3    H181304   5.427   1.613  12.534 -0.9058  0.2573  0.9427
19963TIP3    H281305   5.538   1.527  12.591 -0.4307 -0.6859 -1.2896
19964TIP3   OH281306   5.341   2.018   6.337 -0.1551 -0.3967  0.5430
19964TIP3    H181307   5.291   1.944   6.303 -0.6306  0.4785 -0.7542
19964TIP3    H281308   5.416   2.026   6.278  0.0054  0.0228  0.7972
19965TIP3   OH281309   6.144   4.028  14.107  0.2418  0.2845  0.5965
19965TIP3    H181310   6.198   4.064  14.036  0.7258 -0.1865  0.7192
19965TIP3    H281311   6.158   4.088  14.180  1.7075 -0.5652  1.0639
19966TIP3   OH281312   4.231   4.610  13.817 -0.2733  0.5230 -0.2008
19966TIP3    H181313   4.188   4.529  13.846 -1.0961  1.4499  1.2813
19966TIP3    H281314   4.238   4.663  13.896  0.9798  1.5969 -0.9981
19967TIP3   OH281315   4.072   6.188   4.992  0.4242  0.1470 -0.1771
19967TIP3    H181316   3.996   6.132   5.006 -1.6728  2.5447 -1.2215
19967TIP3    H281317   4.102   6.209   5.081 -2.2552  1.7727  0.4535
19968LIG      S81318   3.392   3.256  16.280  0.2957  0.0623 -0.0309
19968LIG     F181319   2.958   2.917  16.252  0.1463  0.3249  0.1226
19968LIG     F281320   2.874   3.112  16.251  0.6828 -0.3885  0.0224
19968LIG     F381321   2.857   2.992  16.081 -0.8951 -0.5423  0.0237
19968LIG     N181322   3.483   3.467  15.830  0.3680  0.0100 -0.1729
19968LIG     N281323   3.305   3.631  16.009 -0.4455 -0.1995  0.7425
19968LIG     N381324   3.504   3.100  16.055  0.1897  0.0059 -0.1809
19968LIG     N481325   3.315   2.945  15.862  0.9268 -0.3551 -0.6168
19968LIG     C181326   3.517   3.610  15.878 -0.2696 -0.8237 -0.2658
19968LIG     C281327   3.332   3.461  15.826  0.0700 -0.1715 -0.2394
19968LIG     C381328   3.554   3.366  15.919 -0.2565  0.3946  0.4772
19968LIG     C481329   3.452   3.640  16.015  0.3388 -0.1541 -0.4481
19968LIG     C581330   3.267   3.493  15.958  0.0384  0.4075 -0.0782
19968LIG     C681331   3.560   3.225  15.843  0.5169  0.4524 -0.2323
19968LIG     C781332   3.588   3.104  15.931 -0.1358  0.7819 -0.2389
19968LIG     C881333   3.247   3.742  15.936  0.7229 -0.0062  0.3101
19968LIG     C981334   3.354   3.100  16.059  0.7903  0.0007  0.0653
19968LIG    C1081335   3.568   3.080  16.181 -0.2124  0.9337 -0.2340
19968LIG    C1181336   3.292   3.166  16.166  0.0193 -0.5845 -0.3644
19968LIG    C1281337   3.521   3.138  16.305  0.2303  0.5141 -0.9999
19968LIG    C1381338   3.266   3.029  15.972 -0.4785  0.4595  0.6377
19968LIG    C1481339   3.673   2.980  16.193  0.4926 -0.1923 -0.3276
19968LIG    C1581340   3.163   3.147  16.209  0.0019  0.2512 -0.2914
19968LIG    C1681341   3.130   3.013  16.007 -0.0883 -0.0129 -0.9679
19968LIG    C1781342   3.078   3.076  16.126  0.4783  0.3063 -0.0143
19968LIG    C1881343   3.549   3.077  16.427 -0.0211 -0.1256 -0.2711
19968LIG    C1981344   3.714   2.936  16.321  0.1256  0.1649 -0.0337
19968LIG    C2081345   3.653   2.983  16.441 -0.3761 -0.5095 -0.5348
19968LIG    C2181346   2.946   3.029  16.176 -0.6503  0.0071  0.2900
19968LIG     H181347   3.487   3.687  15.805  1.6536 -0.0811 -0.3308
19968LIG     H281348   3.626   3.630  15.870 -0.6587  2.6078  1.3443
19968LIG     H381349   3.296   3.359  15.798 -0.8942  0.6527 -2.2097
19968LIG     H481350   3.304   3.526  15.740 -0.1111 -0.1228 -0.1426
19968LIG     H581351   3.509   3.358  16.020 -2.5655 -2.4769 -0.6332
19968LIG     H681352   3.659   3.402  15.930  0.3804 -1.1980 -0.0999
19968LIG     H781353   3.481   3.559  16.087  0.1597 -0.2562 -0.4894
19968LIG     H881354   3.469   3.739  16.061 -0.5704  0.3651 -1.2180
19968LIG     H981355   3.157   3.486  15.950 -0.0284 -1.4721  1.7259
19968LIG    H1081356   3.307   3.421  16.032 -0.2429  0.6619  0.3270
19968LIG    H1181357   3.639   3.222  15.766  0.5587 -0.5917 -0.1545
19968LIG    H1281358   3.457   3.203  15.809  0.4686 -1.3187  0.9321
19968LIG    H1381359   3.565   3.012  15.873 -0.6918  2.5453 -3.0242
19968LIG    H1481360   3.695   3.108  15.959  0.0399  1.9356 -0.9893
19968LIG    H1581361   3.217   3.827  16.001  1.9246  1.0684 -0.4844
19968LIG    H1681362   3.158   3.705  15.880  2.0233  1.3365 -2.9377
19968LIG    H1781363   3.325   3.783  15.868  1.5107 -0.6050  0.8384
19968LIG    H1881364   3.722   2.936  16.108 -3.5931 -0.1030 -3.0085
19968LIG    H1981365   3.125   3.199  16.295  0.8010 -0.0524  0.2667
19968LIG    H2081366   3.059   2.944  15.963 -0.6828 -0.2472  0.3053
19968LIG    H2181367   3.487   3.114  16.508 -0.8726  0.5610 -1.2140
19968LIG    H2281368   3.788   2.858  16.318  2.0005  1.7679  1.9962
19968LIG    H2381369   3.693   2.947  16.535  1.0160 -0.6372 -1.1567
19968LIG    H2481370   3.411   2.964  15.840  1.8122  0.4039  3.0979
19968LIG    H2581371   3.247   2.939  15.790 -0.4056 -2.0240  0.7138
   6.76980   6.76980  17.36335
